Title
82269
    1SAPS     N    1   1.698   5.713  10.927 -0.4775  0.0609  0.4995
    1SAPS   HN1    2   1.759   5.742  10.848 -0.6770 -1.4350 -0.2380
    1SAPS   HN2    3   1.749   5.720  11.017 -1.4336  2.7829  0.9256
    1SAPS   HN3    4   1.679   5.613  10.906  1.5984 -0.1391 -0.6945
    1SAPS   C12    5   1.567   5.783  10.931  0.3773 -0.7869  0.0436
    1SAPS  H12A    6   1.511   5.757  10.842 -0.5336  2.2654 -0.3930
    1SAPS   C13    7   1.500   5.762  11.069  0.1509  0.0916  0.9738
    1SAPS  O13A    8   1.547   5.683  11.147  0.0847 -0.2471  0.1359
    1SAPS  O13B    9   1.411   5.846  11.095 -0.2252  0.1457  0.1099
    1SAPS   C11   10   1.587   5.937  10.909  0.5727 -0.6683  0.1788
    1SAPS  H11A   11   1.595   5.985  11.009 -0.8814 -3.2740  1.6655
    1SAPS  H11B   12   1.495   5.990  10.876  0.2310 -0.8345  0.8420
    1SAPS     P   13   1.769   6.106  10.846 -0.5000 -0.1130  0.1564
    1SAPS   O13   14   1.665   6.205  10.884 -0.5173  0.4338  0.9769
    1SAPS   O14   15   1.887   6.096  10.938  0.0460 -0.1676  0.4292
    1SAPS   O12   16   1.704   5.966  10.827  0.1358  0.0704  0.1228
    1SAPS   O11   17   1.812   6.138  10.693  0.4394 -0.7586 -0.1003
    1SAPS    C1   18   1.732   6.216  10.604 -0.4317  0.1179  0.8161
    1SAPS    HA   19   1.629   6.176  10.595 -0.2514  0.0353 -2.0439
    1SAPS    HB   20   1.730   6.323  10.631 -1.8387 -0.2446  2.2336
    1SAPS    C2   21   1.786   6.200  10.458 -0.0759  0.4021 -0.2273
    1SAPS    HS   22   1.715   6.258  10.395  0.9490  2.9957  0.8169
    1SAPS   O21   23   1.800   6.061  10.415 -0.9489 -0.5476  0.2206
    1SAPS   C21   24   1.688   5.984  10.407  0.4032 -0.0790  0.0489
    1SAPS   O22   25   1.572   6.025  10.424 -0.2780 -0.1589 -0.5332
    1SAPS   C22   26   1.728   5.849  10.360  0.5997 -0.2104 -0.1043
    1SAPS   H2R   27   1.777   5.801  10.447 -1.4769 -2.8977 -0.2773
    1SAPS   H2S   28   1.638   5.789  10.335  0.6129 -0.8938  1.4090
    1SAPS    C3   29   1.931   6.262  10.440 -0.6170 -0.1517  0.0190
    1SAPS    HX   30   1.996   6.218  10.518  0.8615  1.4361 -0.2638
    1SAPS    HY   31   1.926   6.368  10.473 -0.6313 -0.3007  0.5068
    1SAPS   O31   32   1.995   6.253  10.315 -0.5044 -0.3649 -0.1608
    1SAPS   C31   33   1.944   6.328  10.218 -0.7501 -0.3821 -0.2095
    1SAPS   O32   34   1.870   6.424  10.231  0.2112  0.6003  0.1993
    1SAPS   C32   35   2.006   6.289  10.086  0.0577 -0.3201  0.1882
    1SAPS   H2X   36   1.988   6.180  10.069 -0.3306 -0.1216 -0.7066
    1SAPS   H2Y   37   2.117   6.297  10.081  0.2511 -2.1054  0.6415
    1SAPS   C23   38   1.826   5.849  10.242  0.3498  1.1755  0.3035
    1SAPS   H3R   39   1.841   5.743  10.212 -0.8016  1.3402 -0.9643
    1SAPS   H3S   40   1.927   5.884  10.271  0.9555  0.7270 -1.1784
    1SAPS   C24   41   1.781   5.923  10.116  0.1686  0.0537  0.1290
    1SAPS   H4R   42   1.876   5.953  10.066  1.3959 -3.1912  0.3096
    1SAPS   H4S   43   1.720   6.012  10.143 -1.4731 -0.5744 -1.2833
    1SAPS   C25   44   1.701   5.845  10.020  0.4499  0.1222  0.9801
    1SAPS   H5R   45   1.625   5.777  10.062  1.8375 -1.8229  0.4865
    1SAPS   C26   46   1.719   5.825   9.888 -0.2766  0.1581 -0.4556
    1SAPS   H6R   47   1.655   5.748   9.842  0.9554 -0.9486 -0.3498
    1SAPS   C27   48   1.816   5.887   9.791  0.6858  0.1142  0.0866
    1SAPS   H7R   49   1.851   5.813   9.716 -0.6833 -1.3172  0.8004
    1SAPS   H7S   50   1.907   5.900   9.852 -0.2633  0.8930  1.3878
    1SAPS   C28   51   1.779   6.017   9.720 -0.4272  0.4258  0.5957
    1SAPS   H8R   52   1.763   6.107   9.780  0.9888  1.8328 -1.0208
    1SAPS   C29   53   1.763   6.029   9.586 -0.6656 -0.6992 -0.1767
    1SAPS   H9R   54   1.732   6.126   9.546  0.9986  0.3479  0.9192
    1SAPS  C210   55   1.792   5.933   9.476  0.0157  0.3865  1.0318
    1SAPS  H10R   56   1.747   5.976   9.384  0.8232  1.4380  1.1097
    1SAPS  H10S   57   1.746   5.833   9.490  1.4215 -0.6364 -1.1342
    1SAPS  C211   58   1.944   5.909   9.471 -0.5598 -0.1308 -0.2782
    1SAPS  H11R   59   1.998   5.894   9.566 -0.8622  1.8046  0.2416
    1SAPS  C212   60   2.006   5.876   9.362 -0.0142  0.0936 -0.1172
    1SAPS  H12R   61   2.115   5.863   9.363 -0.2691 -2.3267  1.0597
    1SAPS  C213   62   1.941   5.861   9.227 -0.1147 -0.3390  0.0595
    1SAPS  H13R   63   1.937   5.962   9.182 -1.2486  0.6538  2.2087
    1SAPS  H13S   64   1.834   5.836   9.239 -0.8583  2.4040 -0.0649
    1SAPS  C214   65   2.008   5.760   9.141 -0.0204  0.1077 -0.0865
    1SAPS  H14R   66   1.965   5.659   9.141  1.1581 -0.4260 -1.2177
    1SAPS  C215   67   2.121   5.775   9.067  0.1909  0.0816  0.4942
    1SAPS  H15R   68   2.161   5.689   9.012 -2.9239 -1.3287  0.2505
    1SAPS  C216   69   2.206   5.896   9.053 -0.0963 -0.4484  1.2724
    1SAPS  H16R   70   2.292   5.893   9.123 -1.9498 -0.7530  3.6631
    1SAPS  H16S   71   2.143   5.984   9.079  2.1078  1.3112  0.8956
    1SAPS  C217   72   2.255   5.919   8.901  0.0250  0.0062 -0.3977
    1SAPS  H17R   73   2.300   6.021   8.892 -0.1017  0.1196  0.2061
    1SAPS  H17S   74   2.174   5.901   8.827 -0.2926  2.0499 -0.5991
    1SAPS  C218   75   2.375   5.835   8.848 -0.0710  0.2891  0.1942
    1SAPS  H18R   76   2.372   5.734   8.895  0.4507 -0.9371 -2.2486
    1SAPS  H18S   77   2.464   5.893   8.878 -0.1272  0.9756 -0.8911
    1SAPS  C219   78   2.362   5.803   8.696 -0.6003  0.7408 -0.8086
    1SAPS  H19R   79   2.396   5.894   8.641 -1.5522  1.8254  0.3291
    1SAPS  H19S   80   2.258   5.788   8.661  0.2058 -2.0013 -2.3389
    1SAPS  C220   81   2.447   5.686   8.634 -0.3834  0.3785 -0.6616
    1SAPS  H20R   82   2.555   5.713   8.638 -0.9064  2.5975 -0.0451
    1SAPS  H20S   83   2.416   5.658   8.531 -1.0290 -2.0560  0.1358
    1SAPS  H20T   84   2.426   5.596   8.694 -0.7555  1.2047  0.4840
    1SAPS   C33   85   1.926   6.369   9.972  0.1259 -0.4305 -0.5301
    1SAPS   H3X   86   1.926   6.478   9.994 -0.7868 -0.8070  1.6662
    1SAPS   H3Y   87   1.820   6.336   9.970  0.2866 -0.9356 -0.9270
    1SAPS   C34   88   1.982   6.336   9.829 -0.3038  0.2633 -0.3068
    1SAPS   H4X   89   1.975   6.225   9.818  0.0623  0.2265 -0.1968
    1SAPS   H4Y   90   2.085   6.376   9.824  0.6883 -1.5989  2.5056
    1SAPS   C35   91   1.908   6.395   9.703 -0.7816 -0.1834  0.2263
    1SAPS   H5X   92   1.912   6.505   9.693  2.3779 -0.2724 -0.8595
    1SAPS   H5Y   93   1.805   6.356   9.714 -0.0800 -2.1011  0.4569
    1SAPS   C36   94   1.965   6.346   9.570  0.0665  0.2891  0.2966
    1SAPS   H6X   95   1.949   6.236   9.569 -1.0763  0.4263  1.1763
    1SAPS   H6Y   96   2.073   6.371   9.577 -0.3132  2.7598 -1.5954
    1SAPS   C37   97   1.902   6.407   9.445 -0.3884  0.2220 -0.3825
    1SAPS   H7X   98   1.889   6.516   9.459 -0.6907  0.8348 -4.2376
    1SAPS   H7Y   99   1.794   6.389   9.458 -0.5023  1.7644  1.1458
    1SAPS   C38  100   1.952   6.375   9.306 -0.0984  0.0675  0.4286
    1SAPS   H8X  101   2.052   6.328   9.321  0.1045 -0.3781 -1.9958
    1SAPS   H8Y  102   1.974   6.470   9.253 -0.9239  0.5588  0.9361
    1SAPS   C39  103   1.858   6.286   9.221 -1.1225 -0.1763 -0.1739
    1SAPS   H9X  104   1.798   6.227   9.294 -0.5504  0.1616  0.5866
    1SAPS   H9Y  105   1.924   6.227   9.155  1.6300  1.7511  0.6688
    1SAPS  C310  106   1.765   6.360   9.121 -0.1700  0.7392 -0.1600
    1SAPS  H10X  107   1.824   6.437   9.067  1.0974 -1.2764 -1.7996
    1SAPS  H10Y  108   1.689   6.416   9.179  0.4765  0.9437  0.5077
    1SAPS  C311  109   1.681   6.261   9.031 -0.6727 -0.1546 -0.2975
    1SAPS  H11X  110   1.614   6.203   9.098 -0.7734 -0.5986 -0.7753
    1SAPS  H11Y  111   1.749   6.190   8.980  2.5279  3.9311 -2.2566
    1SAPS  C312  112   1.606   6.344   8.931 -0.7154 -0.1188 -0.0197
    1SAPS  H12X  113   1.673   6.399   8.861  0.7485 -0.3887  1.1242
    1SAPS  H12Y  114   1.550   6.428   8.977 -0.6629  0.7117 -1.4071
    1SAPS  C313  115   1.507   6.256   8.846 -0.0426  0.3076 -0.2946
    1SAPS  H13X  116   1.403   6.290   8.864 -0.3841  0.1569 -1.7870
    1SAPS  H13Y  117   1.517   6.150   8.877  0.1118 -0.9283 -4.0522
    1SAPS  C314  118   1.535   6.266   8.694  0.7004  0.2861 -0.7059
    1SAPS  H14X  119   1.473   6.191   8.641 -0.3850 -1.6788  2.9965
    1SAPS  H14Y  120   1.642   6.236   8.683  1.3345  1.1397  2.2426
    1SAPS  C315  121   1.498   6.406   8.632  0.0733  0.7368 -0.5941
    1SAPS  H15X  122   1.546   6.485   8.692  1.3428  2.0154 -3.1143
    1SAPS  H15Y  123   1.388   6.414   8.643 -0.3644 -3.4068 -0.4565
    1SAPS  C316  124   1.543   6.432   8.490  0.2803  0.2777 -0.1200
    1SAPS  H16X  125   1.652   6.455   8.490 -0.1705  2.7308  1.6757
    1SAPS  H16Y  126   1.508   6.534   8.464  1.3985  0.6868 -0.0755
    1SAPS  C317  127   1.506   6.331   8.378  0.1661  0.0120  0.1779
    1SAPS  H17X  128   1.548   6.231   8.406  0.5264  0.3054  0.6966
    1SAPS  H17Y  129   1.545   6.363   8.280 -0.9264  0.4129 -0.1400
    1SAPS  C318  130   1.352   6.294   8.363  0.0992 -0.5755 -0.0366
    1SAPS  H18X  131   1.333   6.230   8.274 -0.5962 -2.3419  1.3050
    1SAPS  H18Y  132   1.300   6.390   8.345  1.9729  0.7102  1.0967
    1SAPS  H18Z  133   1.317   6.240   8.454  0.5937 -2.4688 -0.9263
    2SAPS     N  134   5.961   5.063  10.931 -0.0823 -0.0026 -0.6065
    2SAPS   HN1  135   6.023   5.135  10.889 -1.5311  1.1339 -0.8681
    2SAPS   HN2  136   6.020   4.989  10.974 -1.2777 -0.7334 -0.1679
    2SAPS   HN3  137   5.897   5.021  10.861 -1.2423 -0.7026  0.8119
    2SAPS   C12  138   5.885   5.144  11.028 -0.3078 -0.0736  0.7339
    2SAPS  H12A  139   5.801   5.088  11.067  1.5405 -2.2485  1.7801
    2SAPS   C13  140   5.975   5.198  11.142  0.0297  0.0875  0.1652
    2SAPS  O13A  141   6.096   5.157  11.143  0.5097  0.1182 -0.1267
    2SAPS  O13B  142   5.922   5.245  11.244  0.2251  0.7194 -0.0180
    2SAPS   C11  143   5.832   5.270  10.957  0.3460 -0.0051  0.1195
    2SAPS  H11A  144   5.914   5.325  10.907  0.6032 -2.0910 -1.9490
    2SAPS  H11B  145   5.800   5.334  11.042  0.3458 -1.2920  1.1214
    2SAPS     P  146   5.667   5.364  10.787  0.2442 -0.0328  0.0918
    2SAPS   O13  147   5.547   5.316  10.717 -0.0175 -0.1757 -0.1324
    2SAPS   O14  148   5.649   5.485  10.870  0.3844 -0.1517 -0.1557
    2SAPS   O12  149   5.720   5.247  10.881  0.1027  0.4928  0.2082
    2SAPS   O11  150   5.782   5.400  10.679  0.2822  0.3530 -0.0292
    2SAPS    C1  151   5.836   5.291  10.595  0.4665  0.0486 -0.3750
    2SAPS    HA  152   5.897   5.223  10.657  1.0169  0.7531 -0.1270
    2SAPS    HB  153   5.755   5.253  10.529  0.1076 -0.7588  0.5016
    2SAPS    C2  154   5.942   5.345  10.506 -0.5353 -1.0794  0.0022
    2SAPS    HS  155   6.016   5.394  10.573 -1.7579  0.8636  0.0128
    2SAPS   O21  156   5.885   5.448  10.413 -0.3861 -0.2943 -0.1390
    2SAPS   C21  157   5.975   5.533  10.358 -0.0932  0.1113  0.3239
    2SAPS   O22  158   6.095   5.531  10.379 -0.2913  0.2390  0.4360
    2SAPS   C22  159   5.907   5.610  10.238 -0.1257  0.4431 -0.2005
    2SAPS   H2R  160   5.879   5.531  10.166 -2.1619  2.0358 -1.2770
    2SAPS   H2S  161   5.817   5.658  10.283 -0.2008 -0.1897  0.3412
    2SAPS    C3  162   6.004   5.224  10.434  0.6551 -0.2575 -0.8821
    2SAPS    HX  163   6.065   5.149  10.489 -0.4557 -0.6925 -0.2162
    2SAPS    HY  164   6.073   5.272  10.361 -0.5531  0.8552 -1.3235
    2SAPS   O31  165   5.893   5.148  10.371  0.2507 -0.4586  0.2596
    2SAPS   C31  166   5.868   5.169  10.242 -0.2096 -0.1353  0.4078
    2SAPS   O32  167   5.916   5.261  10.181 -0.0036  0.2817  0.0984
    2SAPS   C32  168   5.765   5.067  10.192  0.2236 -0.5496  0.0824
    2SAPS   H2X  169   5.680   5.128  10.156  0.8211  0.1476 -0.1771
    2SAPS   H2Y  170   5.732   4.995  10.270 -1.0460  0.1346  0.2073
    2SAPS   C23  171   5.986   5.722  10.183 -0.1351 -0.0823  0.5957
    2SAPS   H3R  172   6.067   5.682  10.118 -0.2590  1.4342 -0.5347
    2SAPS   H3S  173   6.030   5.789  10.260 -2.0290  0.2480  1.4545
    2SAPS   C24  174   5.904   5.804  10.087 -0.0908  0.0776  1.3047
    2SAPS   H4R  175   5.830   5.742  10.032  2.0043 -1.5516  0.1650
    2SAPS   H4S  176   5.980   5.837  10.012  0.2281  1.6400  2.2673
    2SAPS   C25  177   5.837   5.927  10.140  0.5475 -0.3979 -0.2348
    2SAPS   H5R  178   5.730   5.917  10.167  0.3189 -0.2193 -1.0404
    2SAPS   C26  179   5.889   6.055  10.146  0.0536  0.2263  0.6274
    2SAPS   H6R  180   5.829   6.141  10.181 -0.0372 -0.1968  1.5190
    2SAPS   C27  181   6.033   6.094  10.112  0.0102  0.5528 -0.0315
    2SAPS   H7R  182   6.067   6.013  10.044 -2.3352  0.7171 -1.4926
    2SAPS   H7S  183   6.095   6.087  10.204 -3.5255  0.5353  2.5452
    2SAPS   C28  184   6.043   6.230  10.063  0.3346 -0.8639 -0.6475
    2SAPS   H8R  185   5.977   6.304  10.110  0.3895 -0.1615 -1.6564
    2SAPS   C29  186   6.097   6.273   9.943 -0.4733 -0.0487 -0.5366
    2SAPS   H9R  187   6.112   6.381   9.927  1.0466 -0.3352 -1.1572
    2SAPS  C210  188   6.160   6.184   9.834  0.0043 -0.1966 -0.3974
    2SAPS  H10R  189   6.193   6.088   9.879 -0.1320 -0.1021 -0.0969
    2SAPS  H10S  190   6.255   6.229   9.798  0.9094 -0.4018  1.6425
    2SAPS  C211  191   6.048   6.139   9.739  0.2925  0.1422  0.3065
    2SAPS  H11R  192   5.951   6.113   9.783 -0.6497  1.7551 -0.6890
    2SAPS  C212  193   6.057   6.124   9.611 -0.0696 -0.4067  0.1082
    2SAPS  H12R  194   5.976   6.083   9.548 -1.5242  1.6126  0.5708
    2SAPS  C213  195   6.176   6.162   9.529 -0.0248  0.4419  0.3868
    2SAPS  H13R  196   6.230   6.250   9.570 -0.1976  0.4736  0.5510
    2SAPS  H13S  197   6.141   6.187   9.427  1.4787  2.4535  0.3027
    2SAPS  C214  198   6.281   6.058   9.519 -0.1153 -0.3225  0.1636
    2SAPS  H14R  199   6.316   6.016   9.615 -0.3427 -0.0813  0.3508
    2SAPS  C215  200   6.342   6.026   9.410  0.2049  0.2692  0.5579
    2SAPS  H15R  201   6.423   5.951   9.418 -0.2752 -0.3581 -0.2835
    2SAPS  C216  202   6.328   6.075   9.270  0.0314 -0.0407 -0.2279
    2SAPS  H16R  203   6.223   6.101   9.244 -0.0333  0.1974  0.2616
    2SAPS  H16S  204   6.365   6.002   9.194  0.7671  0.0075  0.0809
    2SAPS  C217  205   6.427   6.194   9.254 -0.7880 -0.8570  0.2412
    2SAPS  H17R  206   6.533   6.167   9.272  0.2173  2.1764 -0.5814
    2SAPS  H17S  207   6.400   6.282   9.316  0.2351 -0.4789  0.1590
    2SAPS  C218  208   6.429   6.264   9.120 -0.2506  0.2587  0.6095
    2SAPS  H18R  209   6.513   6.336   9.126 -0.0274  0.2071 -1.2975
    2SAPS  H18S  210   6.335   6.322   9.124  0.3603  1.5754 -1.9519
    2SAPS  C219  211   6.435   6.173   9.000 -0.5655  0.0505 -0.5205
    2SAPS  H19R  212   6.338   6.119   8.989 -1.5434  1.6101  0.2200
    2SAPS  H19S  213   6.511   6.093   9.013  1.3827  1.9202  0.0187
    2SAPS  C220  214   6.463   6.247   8.868 -0.0721 -0.1692  0.1170
    2SAPS  H20R  215   6.366   6.296   8.843 -1.3121 -2.7431 -0.4139
    2SAPS  H20S  216   6.486   6.168   8.795 -0.2525 -0.9766  0.9151
    2SAPS  H20T  217   6.545   6.321   8.882 -1.0025  1.1919 -1.3321
    2SAPS   C33  218   5.814   4.984  10.070  0.0046 -0.4686  0.1202
    2SAPS   H3X  219   5.762   4.887  10.054  0.7186 -0.8299 -0.0592
    2SAPS   H3Y  220   5.922   4.964  10.086 -0.3030 -0.2628  2.9069
    2SAPS   C34  221   5.803   5.067   9.941 -0.2881  0.5616  0.3018
    2SAPS   H4X  222   5.870   5.155   9.948 -0.5555  0.7335  0.7072
    2SAPS   H4Y  223   5.704   5.109   9.911 -0.4758  0.5619  0.9041
    2SAPS   C35  224   5.860   4.997   9.814  0.1741 -0.0260  0.5362
    2SAPS   H5X  225   5.797   4.909   9.791  1.3431 -0.3594 -1.7696
    2SAPS   H5Y  226   5.961   4.952   9.826  0.0654 -1.1831 -2.2075
    2SAPS   C36  227   5.860   5.093   9.691  0.5452  0.5883  0.1093
    2SAPS   H6X  228   5.950   5.159   9.692  0.3969  0.8736 -1.7155
    2SAPS   H6Y  229   5.765   5.150   9.695 -0.6691 -1.2830 -0.8435
    2SAPS   C37  230   5.861   5.024   9.552 -0.3704  0.0062 -0.5823
    2SAPS   H7X  231   5.779   4.950   9.548 -1.7974  1.4032  1.1598
    2SAPS   H7Y  232   5.955   4.966   9.537 -0.0631  0.4134 -0.2477
    2SAPS   C38  233   5.860   5.119   9.431 -0.0260  0.6834  0.0569
    2SAPS   H8X  234   5.941   5.194   9.445 -1.0204  1.6697  0.6262
    2SAPS   H8Y  235   5.767   5.178   9.424 -0.5380 -0.1181 -0.0298
    2SAPS   C39  236   5.887   5.043   9.296  0.2124  1.1543 -0.3270
    2SAPS   H9X  237   5.811   4.964   9.280  3.0954 -1.6818 -1.3539
    2SAPS   H9Y  238   5.980   4.983   9.305 -0.2750  0.4742  0.2510
    2SAPS  C310  239   5.910   5.126   9.175 -0.0483  0.3086 -0.1019
    2SAPS  H10X  240   5.980   5.080   9.102 -1.9017 -0.3031 -1.5895
    2SAPS  H10Y  241   5.962   5.215   9.216 -0.2636  0.4602 -0.1553
    2SAPS  C311  242   5.785   5.173   9.102  0.1239  0.8197 -0.7763
    2SAPS  H11X  243   5.789   5.283   9.085  2.5415  1.0758  0.9198
    2SAPS  H11Y  244   5.696   5.179   9.168  0.7828  0.0114  0.2217
    2SAPS  C312  245   5.768   5.097   8.969 -1.0001 -0.5015  0.4043
    2SAPS  H12X  246   5.745   4.989   8.978 -0.1129 -0.5799  2.0125
    2SAPS  H12Y  247   5.853   5.108   8.897 -1.3460  0.1823  0.0877
    2SAPS  C313  248   5.659   5.158   8.889 -0.1894 -0.2155 -0.1531
    2SAPS  H13X  249   5.678   5.268   8.884 -0.5922 -0.0047  2.0682
    2SAPS  H13Y  250   5.557   5.155   8.932 -0.0160 -1.4068  0.2089
    2SAPS  C314  251   5.651   5.111   8.745  0.2597  0.0187  0.0416
    2SAPS  H14X  252   5.634   5.002   8.754 -1.7858  0.3798  1.1606
    2SAPS  H14Y  253   5.740   5.130   8.682  0.3968  1.0951  0.5327
    2SAPS  C315  254   5.535   5.180   8.675  0.1121 -0.1413 -0.0348
    2SAPS  H15X  255   5.553   5.288   8.693 -0.9314  0.3345 -1.6357
    2SAPS  H15Y  256   5.441   5.153   8.729  1.0593 -3.0862  0.3038
    2SAPS  C316  257   5.532   5.138   8.529 -0.1670 -0.1087  0.0248
    2SAPS  H16X  258   5.543   5.028   8.517 -0.2123 -0.0593 -0.5232
    2SAPS  H16Y  259   5.616   5.191   8.480 -1.0983 -0.7154 -2.3762
    2SAPS  C317  260   5.409   5.196   8.462  0.1094  0.4723  0.1935
    2SAPS  H17X  261   5.426   5.187   8.352  4.4376  1.5436  0.5750
    2SAPS  H17Y  262   5.399   5.305   8.484  0.4023  0.5242  0.0788
    2SAPS  C318  263   5.282   5.116   8.503 -0.3243 -0.3795 -0.1585
    2SAPS  H18X  264   5.272   5.100   8.613 -1.4468  1.1634 -0.0091
    2SAPS  H18Y  265   5.288   5.016   8.455 -0.8824  0.0317 -1.1172
    2SAPS  H18Z  266   5.188   5.160   8.463  0.8613 -0.0885 -2.8121
    3SAPS     N  267   4.758   1.660  10.730 -0.4251 -0.2035 -0.1610
    3SAPS   HN1  268   4.687   1.729  10.699  2.2117  2.7526 -0.1329
    3SAPS   HN2  269   4.794   1.607  10.648  0.8299  0.1761  0.1148
    3SAPS   HN3  270   4.729   1.602  10.811 -0.6984  0.2408  0.0647
    3SAPS   C12  271   4.873   1.748  10.775 -0.2337  0.6499  0.0359
    3SAPS  H12A  272   4.875   1.825  10.700 -3.1802 -1.6161 -2.6527
    3SAPS   C13  273   4.861   1.800  10.919  0.1564 -0.8251 -0.6942
    3SAPS  O13A  274   4.771   1.761  10.993 -0.6371 -0.0769 -0.2947
    3SAPS  O13B  275   4.917   1.913  10.947  0.2266  1.1002  0.2099
    3SAPS   C11  276   4.998   1.663  10.766  0.9909 -0.7201 -0.9252
    3SAPS  H11A  277   5.008   1.590  10.849  2.5982  0.9163  0.4193
    3SAPS  H11B  278   5.085   1.729  10.784  0.1405  0.1688  0.0329
    3SAPS     P  279   5.133   1.520  10.592  0.2627  0.3158  0.0442
    3SAPS   O13  280   5.253   1.604  10.575  0.5420  0.3678 -0.4013
    3SAPS   O14  281   5.147   1.403  10.676 -0.0619  0.0720 -0.2067
    3SAPS   O12  282   5.007   1.601  10.638  0.9344 -0.1477 -0.5016
    3SAPS   O11  283   5.087   1.471  10.452 -0.4831  0.2314 -0.3438
    3SAPS    C1  284   5.108   1.553  10.332  0.5381 -0.2718 -0.7581
    3SAPS    HA  285   5.036   1.518  10.255 -0.2237 -0.3483 -0.0336
    3SAPS    HB  286   5.104   1.664  10.345  1.5965 -0.3787  0.6126
    3SAPS    C2  287   5.240   1.521  10.264  0.4084 -0.6397  0.0253
    3SAPS    HS  288   5.321   1.558  10.330  0.5925  0.9858 -1.0571
    3SAPS   O21  289   5.245   1.596  10.139 -0.0609  0.6338  0.1618
    3SAPS   C21  290   5.362   1.626  10.084  0.1750 -0.0869 -0.5793
    3SAPS   O22  291   5.471   1.616  10.143  0.3734  0.5157 -0.0826
    3SAPS   C22  292   5.336   1.665   9.937  0.2369 -0.6044 -0.3362
    3SAPS   H2R  293   5.227   1.658   9.914 -0.2847  1.5788  1.1775
    3SAPS   H2S  294   5.370   1.770   9.925 -0.6995 -0.1976  0.4216
    3SAPS    C3  295   5.256   1.368  10.237 -0.3872 -0.9536  0.8171
    3SAPS    HX  296   5.166   1.338  10.179  0.9719 -1.1232 -1.3260
    3SAPS    HY  297   5.256   1.308  10.331 -0.3510 -2.3012 -0.0215
    3SAPS   O31  298   5.369   1.326  10.159 -0.2614 -0.0842 -0.3798
    3SAPS   C31  299   5.487   1.341  10.225  0.6991  0.6737 -0.0970
    3SAPS   O32  300   5.502   1.372  10.342 -0.0512  0.0498 -0.1044
    3SAPS   C32  301   5.599   1.338  10.127 -0.1075 -0.1973  0.2923
    3SAPS   H2X  302   5.670   1.422  10.145  1.4945 -1.2595 -0.7712
    3SAPS   H2Y  303   5.550   1.363  10.031  0.1916 -2.7741 -0.6267
    3SAPS   C23  304   5.411   1.567   9.839 -0.3171 -0.3870  0.0141
    3SAPS   H3R  305   5.380   1.460   9.841  1.1060 -0.8125  1.4233
    3SAPS   H3S  306   5.518   1.564   9.869 -0.0515  0.4976 -0.8193
    3SAPS   C24  307   5.416   1.618   9.698 -0.1288  0.3787 -0.1440
    3SAPS   H4R  308   5.514   1.581   9.661  0.3269  0.7105  0.6969
    3SAPS   H4S  309   5.416   1.728   9.684 -1.7462  0.3688 -0.5032
    3SAPS   C25  310   5.307   1.554   9.622  0.5019 -0.3467  0.5576
    3SAPS   H5R  311   5.309   1.445   9.637 -2.4186 -0.3347  1.6058
    3SAPS   C26  312   5.215   1.615   9.547  0.4350 -0.1702 -0.4966
    3SAPS   H6R  313   5.139   1.551   9.500  0.9610 -1.4323  0.3236
    3SAPS   C27  314   5.198   1.768   9.526  0.0062 -0.0783  0.0920
    3SAPS   H7R  315   5.244   1.834   9.603 -0.5699  1.0833 -0.5159
    3SAPS   H7S  316   5.091   1.798   9.513 -0.2777 -1.1916 -0.2092
    3SAPS   C28  317   5.265   1.796   9.387  0.6885 -0.1376 -0.2914
    3SAPS   H8R  318   5.375   1.790   9.393  0.6213 -1.1337  0.2517
    3SAPS   C29  319   5.203   1.843   9.275 -0.3386 -0.4704  0.5949
    3SAPS   H9R  320   5.272   1.852   9.190 -1.2289  0.6655 -0.0287
    3SAPS  C210  321   5.052   1.856   9.253 -0.2469 -0.2625  0.2016
    3SAPS  H10R  322   4.996   1.808   9.337 -0.4284 -3.0502 -1.3567
    3SAPS  H10S  323   5.015   1.812   9.158  0.6470 -3.0543  1.0450
    3SAPS  C211  324   5.021   2.005   9.254 -0.3078  0.3144  0.0135
    3SAPS  H11R  325   5.046   2.065   9.343  0.8733 -0.0111 -0.0799
    3SAPS  C212  326   4.977   2.073   9.148  0.4651  0.0964 -0.2445
    3SAPS  H12R  327   4.974   2.182   9.162 -1.1472 -0.0491  0.8912
    3SAPS  C213  328   4.938   2.016   9.017 -0.3239 -0.0211 -0.5545
    3SAPS  H13R  329   4.848   1.955   9.036  0.9777 -1.4684  1.3360
    3SAPS  H13S  330   5.009   1.937   8.984  0.8813  0.4701  0.7664
    3SAPS  C214  331   4.917   2.119   8.912  0.0321  0.0434 -0.3829
    3SAPS  H14R  332   4.824   2.177   8.924  1.0439  1.7267 -0.3735
    3SAPS  C215  333   5.006   2.159   8.819 -0.4006 -0.4147 -0.0471
    3SAPS  H15R  334   4.978   2.234   8.744 -2.2120 -0.4463  0.5547
    3SAPS  C216  335   5.143   2.092   8.787 -0.0529  0.0981 -0.0279
    3SAPS  H16R  336   5.130   2.018   8.705 -1.7075 -0.4050  0.6277
    3SAPS  H16S  337   5.178   2.049   8.884  0.6150 -0.0591 -0.3337
    3SAPS  C217  338   5.256   2.193   8.771 -0.1571  0.0910 -0.3306
    3SAPS  H17R  339   5.356   2.148   8.755 -0.0024  0.8557 -1.6960
    3SAPS  H17S  340   5.269   2.259   8.859  1.7586  0.3011 -0.7191
    3SAPS  C218  341   5.237   2.290   8.652 -0.7970 -0.2087  0.3143
    3SAPS  H18R  342   5.330   2.350   8.641  1.0333 -3.0000 -0.4932
    3SAPS  H18S  343   5.149   2.357   8.664 -0.4896  0.6682 -1.8644
    3SAPS  C219  344   5.210   2.214   8.522  0.0548 -0.2052 -0.5571
    3SAPS  H19R  345   5.110   2.165   8.530  0.3914 -0.8774 -0.4234
    3SAPS  H19S  346   5.294   2.143   8.515  1.2022  1.2003 -1.5603
    3SAPS  C220  347   5.203   2.308   8.406 -0.2250  0.6020 -0.0409
    3SAPS  H20R  348   5.129   2.390   8.408  1.1892  1.9635 -1.1204
    3SAPS  H20S  349   5.195   2.244   8.315  1.1462 -0.0991  0.2909
    3SAPS  H20T  350   5.304   2.352   8.390 -0.0601 -0.5752 -3.1283
    3SAPS   C33  351   5.672   1.200  10.120  0.1989  0.0667 -0.0599
    3SAPS   H3X  352   5.727   1.192  10.216  2.3272  0.2438 -1.1874
    3SAPS   H3Y  353   5.756   1.211  10.047  0.6407  3.2689  0.7620
    3SAPS   C34  354   5.591   1.082  10.084  0.7680 -0.2339 -0.0190
    3SAPS   H4X  355   5.523   1.097   9.998  0.5372  2.9204  0.5969
    3SAPS   H4Y  356   5.528   1.055  10.171 -0.1613  1.7375 -0.0096
    3SAPS   C35  357   5.673   0.951  10.062 -0.2431 -0.1176 -0.1713
    3SAPS   H5X  358   5.713   0.924  10.162  1.1487 -0.4078 -0.7805
    3SAPS   H5Y  359   5.750   0.959   9.982 -0.1688 -3.0691 -0.5060
    3SAPS   C36  360   5.581   0.831  10.019 -0.2507 -0.0304  0.0531
    3SAPS   H6X  361   5.482   0.837  10.070  0.2725 -0.2089  1.1278
    3SAPS   H6Y  362   5.620   0.731  10.048 -2.4322 -1.0831 -0.4363
    3SAPS   C37  363   5.570   0.836   9.870 -0.5623 -0.4348 -0.0970
    3SAPS   H7X  364   5.670   0.826   9.823 -0.2207 -0.1898  0.5514
    3SAPS   H7Y  365   5.532   0.937   9.842  0.8617  0.3414  0.6426
    3SAPS   C38  366   5.472   0.723   9.823  0.4387  0.1508  0.5684
    3SAPS   H8X  367   5.372   0.746   9.865 -1.9555 -1.9741 -3.4278
    3SAPS   H8Y  368   5.501   0.625   9.866  3.1976  0.5037 -0.2596
    3SAPS   C39  369   5.448   0.723   9.670 -1.3052 -0.3272  0.1275
    3SAPS   H9X  370   5.402   0.818   9.636 -1.3535 -0.4709 -0.2174
    3SAPS   H9Y  371   5.368   0.653   9.638  0.6265 -2.0302 -1.2432
    3SAPS  C310  372   5.577   0.700   9.588  0.0403 -0.8616 -0.3114
    3SAPS  H10X  373   5.621   0.609   9.634 -0.1240  0.1428  1.9721
    3SAPS  H10Y  374   5.644   0.787   9.606 -0.4728 -0.4787 -0.2474
    3SAPS  C311  375   5.553   0.671   9.441 -0.1746  0.1775 -0.8200
    3SAPS  H11X  376   5.493   0.578   9.434 -1.6536  0.9198  1.2445
    3SAPS  H11Y  377   5.652   0.648   9.394 -0.1244 -0.2230 -0.5279
    3SAPS  C312  378   5.497   0.792   9.364  0.1504 -0.0123 -0.2672
    3SAPS  H12X  379   5.569   0.875   9.382 -0.8987  1.1885 -1.4217
    3SAPS  H12Y  380   5.399   0.826   9.404  0.6901 -0.5946  1.6768
    3SAPS  C313  381   5.485   0.768   9.213 -0.1084 -0.1802 -0.0345
    3SAPS  H13X  382   5.444   0.667   9.191 -0.0202 -0.1866 -0.1691
    3SAPS  H13Y  383   5.579   0.784   9.156 -0.5525 -0.2719 -0.8115
    3SAPS  C314  384   5.390   0.868   9.135 -0.3083 -0.1484 -0.8440
    3SAPS  H14X  385   5.438   0.966   9.117 -1.1041  0.0856 -1.8011
    3SAPS  H14Y  386   5.308   0.888   9.207  0.3506 -0.3064 -0.0470
    3SAPS  C315  387   5.338   0.829   8.996 -0.1643 -0.6782  0.3068
    3SAPS  H15X  388   5.245   0.769   9.003 -0.9332  0.5324  1.0336
    3SAPS  H15Y  389   5.412   0.772   8.936 -0.4408 -1.3563  0.6043
    3SAPS  C316  390   5.304   0.961   8.920 -0.8267  0.8905  0.2708
    3SAPS  H16X  391   5.306   0.934   8.812 -0.6484  0.8575  0.2828
    3SAPS  H16Y  392   5.377   1.045   8.921  0.7300 -0.4134  0.3807
    3SAPS  C317  393   5.155   1.011   8.946 -0.2007  0.0221  0.8185
    3SAPS  H17X  394   5.152   1.052   9.049 -2.3265 -0.9266  1.1903
    3SAPS  H17Y  395   5.072   0.938   8.942 -1.3920  1.3701 -0.7374
    3SAPS  C318  396   5.112   1.129   8.848  0.3130 -0.4492 -0.5805
    3SAPS  H18X  397   5.203   1.190   8.830  0.8675 -0.4816  1.7600
    3SAPS  H18Y  398   5.024   1.176   8.897  0.3506 -1.9138  1.0043
    3SAPS  H18Z  399   5.069   1.088   8.755 -0.1854  0.7124 -0.8738
    4SAPS     N  400   0.111   1.957  10.811  0.1457 -1.0298  0.1028
    4SAPS   HN1  401   0.020   1.908  10.806  0.7491 -2.5863  2.5183
    4SAPS   HN2  402   0.092   2.058  10.791  2.7182 -0.6971 -1.0637
    4SAPS   HN3  403   0.173   1.934  10.730 -1.2555 -0.3346 -1.2173
    4SAPS   C12  404   0.175   1.950  10.953  0.2976 -0.7464  0.1867
    4SAPS  H12A  405   0.265   2.009  10.939 -0.3190  0.2366  0.2687
    4SAPS   C13  406   0.083   2.025  11.062  0.2208 -0.0679  0.0129
    4SAPS  O13A  407  -0.041   2.052  11.036 -0.3403  0.3031  0.4019
    4SAPS  O13B  408   0.131   2.065  11.170  0.8492  0.0277  0.5347
    4SAPS   C11  409   0.206   1.806  11.000  0.9675  0.0982 -0.1930
    4SAPS  H11A  410   0.108   1.761  11.024  0.3257 -0.5765 -3.5458
    4SAPS  H11B  411   0.253   1.818  11.100 -1.5313 -1.9595  1.3431
    4SAPS     P  412   0.432   1.708  10.924  0.3054  0.0818 -0.2635
    4SAPS   O13  413   0.490   1.836  10.974  0.4188 -0.3619 -0.1429
    4SAPS   O14  414   0.452   1.582  11.005  0.4633 -0.0966  0.8719
    4SAPS   O12  415   0.279   1.732  10.900 -0.2933  0.3648  0.1974
    4SAPS   O11  416   0.503   1.692  10.780 -0.0106  0.2809 -0.0686
    4SAPS    C1  417   0.435   1.636  10.671  0.9972 -0.0669 -0.3368
    4SAPS    HA  418   0.420   1.530  10.702 -1.0225  0.5581  1.0552
    4SAPS    HB  419   0.339   1.687  10.650  0.2442 -1.8196 -1.3543
    4SAPS    C2  420   0.515   1.638  10.542 -0.0580  0.2687 -0.3028
    4SAPS    HS  421   0.611   1.586  10.565 -0.0887  0.9191  1.4567
    4SAPS   O21  422   0.546   1.770  10.507  0.2245  0.1866 -0.1149
    4SAPS   C21  423   0.642   1.778  10.415  0.4512 -0.7072  0.5068
    4SAPS   O22  424   0.713   1.697  10.364  0.1439  0.4050 -0.1072
    4SAPS   C22  425   0.646   1.924  10.378 -0.0946  0.2844  0.7913
    4SAPS   H2R  426   0.595   1.985  10.456  1.1393  2.3109  0.0844
    4SAPS   H2S  427   0.748   1.967  10.367  1.6115 -3.7094 -0.5112
    4SAPS    C3  428   0.442   1.552  10.428 -0.2854 -0.0776  0.2812
    4SAPS    HX  429   0.426   1.448  10.463 -2.1539 -0.0726 -0.4401
    4SAPS    HY  430   0.501   1.556  10.334 -1.1517 -0.1339 -0.2798
    4SAPS   O31  431   0.312   1.614  10.406 -0.0069 -0.1734 -0.1042
    4SAPS   C31  432   0.261   1.588  10.282 -0.3299 -0.7714 -0.0981
    4SAPS   O32  433   0.304   1.503  10.203  0.0813 -0.9229 -0.5656
    4SAPS   C32  434   0.135   1.675  10.260  0.1518  0.2235 -0.5486
    4SAPS   H2X  435   0.136   1.758  10.333 -0.6344  2.1828 -2.6384
    4SAPS   H2Y  436   0.040   1.619  10.272  0.4632  0.0344  1.3642
    4SAPS   C23  437   0.559   1.962  10.256 -0.0915  0.1029  0.2395
    4SAPS   H3R  438   0.575   2.070  10.239  3.5752 -0.4421 -0.7481
    4SAPS   H3S  439   0.453   1.945  10.283 -0.4698  0.7413 -0.7839
    4SAPS   C24  440   0.601   1.892  10.119  1.3068  0.7051 -0.0215
    4SAPS   H4R  441   0.520   1.932  10.054  0.1965  0.3272  1.0792
    4SAPS   H4S  442   0.585   1.782  10.119 -0.1310  0.8883 -0.2722
    4SAPS   C25  443   0.738   1.923  10.076  0.4151  0.1277  0.2416
    4SAPS   H5R  444   0.812   1.930  10.158 -0.2741  0.3011  0.8614
    4SAPS   C26  445   0.781   1.925   9.946  0.6568  0.2623  0.4462
    4SAPS   H6R  446   0.889   1.937   9.926  0.2532  2.4207 -0.7491
    4SAPS   C27  447   0.705   1.910   9.815  0.4743 -0.0410 -0.5051
    4SAPS   H7R  448   0.621   1.840   9.836 -1.1721  2.0131  0.0593
    4SAPS   H7S  449   0.768   1.855   9.741  0.1313 -0.9330 -0.1445
    4SAPS   C28  450   0.643   2.039   9.759  0.1390 -0.7674  0.2118
    4SAPS   H8R  451   0.630   2.119   9.833 -2.2726  1.7090 -2.6275
    4SAPS   C29  452   0.608   2.072   9.631 -1.0043 -0.3652 -0.2129
    4SAPS   H9R  453   0.568   2.173   9.619  0.1887  0.0488 -0.8651
    4SAPS  C210  454   0.624   1.976   9.513  0.1718 -0.6668 -0.4580
    4SAPS  H10R  455   0.555   2.001   9.429 -1.6374  0.3664  1.2404
    4SAPS  H10S  456   0.599   1.877   9.558 -2.5090  0.2470  0.2761
    4SAPS  C211  457   0.765   1.954   9.465  0.8311 -0.4623 -0.6287
    4SAPS  H11R  458   0.848   1.980   9.532 -0.1743  1.8030 -0.1488
    4SAPS  C212  459   0.791   1.892   9.352 -0.1893  0.5500 -0.0427
    4SAPS  H12R  460   0.898   1.880   9.330 -0.3870  0.3409 -0.9072
    4SAPS  C213  461   0.689   1.841   9.253  0.8497 -0.0608  0.5232
    4SAPS  H13R  462   0.600   1.803   9.307 -1.2739  3.7452  0.0561
    4SAPS  H13S  463   0.735   1.751   9.207  0.5604  0.5981 -1.1238
    4SAPS  C214  464   0.645   1.924   9.130  0.3573  0.3093  0.0354
    4SAPS  H14R  465   0.541   1.961   9.128  0.3466  0.3083 -2.0379
    4SAPS  C215  466   0.726   1.952   9.028 -0.3566  0.0223  0.1414
    4SAPS  H15R  467   0.695   2.008   8.938  0.6973  2.7078  1.3455
    4SAPS  C216  468   0.865   1.897   9.016  0.3158 -0.0863  0.1091
    4SAPS  H16R  469   0.865   1.786   9.020 -0.9657 -0.0732  1.0627
    4SAPS  H16S  470   0.915   1.939   9.105 -1.6185 -0.7227  1.5605
    4SAPS  C217  471   0.944   1.933   8.888  0.0911  0.5109  0.3574
    4SAPS  H17R  472   1.050   1.906   8.908 -0.2701 -0.7271  0.6485
    4SAPS  H17S  473   0.949   2.044   8.880 -0.0198  0.4781 -0.1753
    4SAPS  C218  474   0.905   1.857   8.758  0.2678  0.6383  0.1847
    4SAPS  H18R  475   0.796   1.873   8.745 -0.4688 -3.2827  0.4623
    4SAPS  H18S  476   0.913   1.747   8.766 -2.2989  0.4700  1.4361
    4SAPS  C219  477   0.972   1.902   8.636  0.2470  0.7357  0.2166
    4SAPS  H19R  478   0.964   2.012   8.646 -0.8155  0.8442 -1.4959
    4SAPS  H19S  479   0.921   1.866   8.544 -1.1815 -1.2514  1.6740
    4SAPS  C220  480   1.121   1.846   8.632 -0.0836 -0.5329 -0.7488
    4SAPS  H20R  481   1.170   1.903   8.715 -0.9995 -0.2545 -0.3939
    4SAPS  H20S  482   1.175   1.864   8.536  3.6192 -0.9712  1.0399
    4SAPS  H20T  483   1.116   1.739   8.661  1.5273  0.0052  1.8947
    4SAPS   C33  484   0.118   1.734  10.116 -0.5835  0.2096  0.8898
    4SAPS   H3X  485   0.026   1.796  10.126 -1.2570 -0.6487  0.2152
    4SAPS   H3Y  486   0.088   1.650  10.049 -1.7783  1.7113 -0.5471
    4SAPS   C34  487   0.240   1.818  10.077  0.0812  0.4191 -0.3864
    4SAPS   H4X  488   0.328   1.750  10.079 -0.2291 -0.0052  2.3874
    4SAPS   H4Y  489   0.254   1.898  10.152  4.2792  0.4400 -0.9703
    4SAPS   C35  490   0.236   1.890   9.939  0.1388  1.0368 -0.4440
    4SAPS   H5X  491   0.305   1.978   9.936  0.1659  1.0168 -0.3987
    4SAPS   H5Y  492   0.134   1.933   9.933  0.7115  2.7470  0.9428
    4SAPS   C36  493   0.252   1.804   9.811  0.1272 -0.4140  0.0207
    4SAPS   H6X  494   0.179   1.720   9.811 -0.6605  0.2070  1.9406
    4SAPS   H6Y  495   0.355   1.765   9.820  0.5882  0.7150 -0.2217
    4SAPS   C37  496   0.230   1.893   9.688  0.0204 -0.3218 -0.3908
    4SAPS   H7X  497   0.311   1.968   9.674 -1.2952  0.6551 -3.8181
    4SAPS   H7Y  498   0.132   1.943   9.699  0.7599  1.6595 -2.1080
    4SAPS   C38  499   0.215   1.803   9.561  0.4241  0.1448 -0.0043
    4SAPS   H8X  500   0.132   1.731   9.575  0.2343  0.3814  0.0921
    4SAPS   H8Y  501   0.299   1.731   9.557  0.8264  0.6517 -2.8218
    4SAPS   C39  502   0.198   1.880   9.427  0.4211 -0.5055  0.0765
    4SAPS   H9X  503   0.270   1.964   9.436  2.8928 -2.3161 -1.3022
    4SAPS   H9Y  504   0.091   1.910   9.423  0.9971  1.6100 -0.6297
    4SAPS  C310  505   0.218   1.784   9.308  0.7360 -0.1641  0.5500
    4SAPS  H10X  506   0.158   1.691   9.312 -1.0523  0.9024 -0.0918
    4SAPS  H10Y  507   0.323   1.750   9.313  0.2709 -1.8770 -0.5048
    4SAPS  C311  508   0.196   1.855   9.166  0.3911 -0.5039 -0.0659
    4SAPS  H11X  509   0.248   1.953   9.162  1.0401 -0.6978  2.2500
    4SAPS  H11Y  510   0.091   1.887   9.149  0.7408 -0.6060 -2.8428
    4SAPS  C312  511   0.237   1.767   9.047 -0.9617 -0.0400 -0.1735
    4SAPS  H12X  512   0.161   1.687   9.032 -0.0572 -0.7898 -0.9460
    4SAPS  H12Y  513   0.338   1.723   9.057 -0.5333  1.0353  0.3992
    4SAPS  C313  514   0.255   1.857   8.917 -0.6113 -0.6675 -1.0883
    4SAPS  H13X  515   0.324   1.940   8.944 -1.4345  0.0527 -1.1561
    4SAPS  H13Y  516   0.158   1.893   8.878 -0.0998  2.0683 -0.0223
    4SAPS  C314  517   0.306   1.784   8.789 -0.5158 -0.6593 -0.4144
    4SAPS  H14X  518   0.229   1.715   8.749  0.0115 -0.6706 -1.4348
    4SAPS  H14Y  519   0.396   1.728   8.822 -0.1170  0.1266 -0.1440
    4SAPS  C315  520   0.357   1.874   8.675 -0.0148  0.0223  0.0989
    4SAPS  H15X  521   0.436   1.945   8.707  1.0426 -1.4823  0.9709
    4SAPS  H15Y  522   0.270   1.924   8.627 -2.5224 -2.9891  1.1391
    4SAPS  C316  523   0.433   1.796   8.564  0.7343 -0.1515  0.2949
    4SAPS  H16X  524   0.442   1.856   8.471  0.3176 -0.1259  0.2673
    4SAPS  H16Y  525   0.367   1.711   8.535 -0.2072  1.4319 -2.6932
    4SAPS  C317  526   0.562   1.747   8.620 -0.1267 -0.4824  0.1564
    4SAPS  H17X  527   0.546   1.674   8.703  1.8176 -0.2400  0.8023
    4SAPS  H17Y  528   0.612   1.837   8.661 -2.4769  1.2101 -0.4935
    4SAPS  C318  529   0.663   1.681   8.525  0.4037 -0.3624  0.2996
    4SAPS  H18X  530   0.622   1.582   8.496 -0.2401 -0.4299  1.3783
    4SAPS  H18Y  531   0.755   1.657   8.583 -0.2532 -0.4492  1.3385
    4SAPS  H18Z  532   0.686   1.751   8.442 -0.9945 -1.6223 -1.2174
    5SAPS     N  533   4.939   0.185  10.895 -0.4793 -0.0539 -0.3249
    5SAPS   HN1  534   4.852   0.183  10.839 -1.2260  1.3296  0.7367
    5SAPS   HN2  535   4.960   0.284  10.917 -4.3953  0.3412  2.5145
    5SAPS   HN3  536   5.017   0.143  10.840 -0.8061 -0.4975 -0.4521
    5SAPS   C12  537   4.917   0.107  11.022 -0.6873 -0.0795  0.2381
    5SAPS  H12A  538   4.997   0.127  11.092 -0.5929 -0.8372  0.3609
    5SAPS   C13  539   4.789   0.144  11.098  0.2343 -0.3625  0.3569
    5SAPS  O13A  540   4.729   0.248  11.063  0.7417 -0.8256 -0.2532
    5SAPS  O13B  541   4.757   0.068  11.193 -0.1024 -0.3829 -0.4594
    5SAPS   C11  542   4.920  -0.054  11.005  0.3364  0.3093 -0.2826
    5SAPS  H11A  543   4.844  -0.076  10.927  0.0975  2.4686 -0.7075
    5SAPS  H11B  544   4.894  -0.104  11.101 -1.2119 -1.2007 -1.4232
    5SAPS     P  545   5.079  -0.164  10.830 -0.2287  0.0780  0.0853
    5SAPS   O13  546   5.226  -0.185  10.814  0.6633 -0.7478 -0.1406
    5SAPS   O14  547   4.999  -0.286  10.807 -0.3418  0.0502  0.2344
    5SAPS   O12  548   5.049  -0.100  10.972 -0.0415 -0.5039  0.2054
    5SAPS   O11  549   5.026  -0.036  10.745  0.2344  0.1385  0.5830
    5SAPS    C1  550   4.959  -0.054  10.613 -0.4028  0.2965  0.3454
    5SAPS    HA  551   4.921  -0.155  10.588 -1.3616  0.6312  0.4208
    5SAPS    HB  552   4.875   0.017  10.597 -0.4543 -0.0416 -1.0386
    5SAPS    C2  553   5.062  -0.023  10.500  0.0568 -0.4949  0.2100
    5SAPS    HS  554   5.082   0.085  10.511 -0.7140 -0.3011 -0.2656
    5SAPS   O21  555   4.992  -0.047  10.378  0.4835 -0.2100 -0.0033
    5SAPS   C21  556   5.021   0.029  10.279 -0.2535 -0.4530  0.0528
    5SAPS   O22  557   5.091   0.126  10.276  0.0811 -0.0722 -0.1180
    5SAPS   C22  558   4.947  -0.017  10.157  0.2451  0.7199 -0.2931
    5SAPS   H2R  559   4.921  -0.123  10.179 -0.6949  1.2926  1.6076
    5SAPS   H2S  560   4.857   0.048  10.156 -0.2961  0.1238  2.1524
    5SAPS    C3  561   5.192  -0.107  10.497  0.3321 -0.5836 -0.3191
    5SAPS    HX  562   5.153  -0.211  10.488 -2.2906  0.2309  0.7999
    5SAPS    HY  563   5.242  -0.115  10.595  0.6170 -2.2281 -0.5650
    5SAPS   O31  564   5.281  -0.086  10.393 -0.0833  0.1332  0.0242
    5SAPS   C31  565   5.345   0.024  10.394 -0.2862 -0.6994  0.1853
    5SAPS   O32  566   5.338   0.118  10.472  0.2221  0.4963  0.0084
    5SAPS   C32  567   5.436   0.024  10.269 -0.1048 -0.1278  0.3169
    5SAPS   H2X  568   5.506  -0.062  10.269  1.3266  0.9883 -0.9488
    5SAPS   H2Y  569   5.497   0.117  10.279  1.0279 -0.7474 -0.5755
    5SAPS   C23  570   5.026   0.005  10.024 -0.4022  0.0606  0.0227
    5SAPS   H3R  571   5.116  -0.060  10.019 -1.3668 -1.5166  1.8867
    5SAPS   H3S  572   5.065   0.108  10.018 -1.9392  0.7232  0.8119
    5SAPS   C24  573   4.938  -0.030   9.906  0.4881 -0.1160  0.3446
    5SAPS   H4R  574   5.010  -0.021   9.822  0.0778 -2.2426 -0.2951
    5SAPS   H4S  575   4.854   0.041   9.892  0.6938  0.2323  0.8508
    5SAPS   C25  576   4.896  -0.174   9.912  0.5784  0.3767 -0.2243
    5SAPS   H5R  577   4.806  -0.194   9.974 -0.0564 -0.5287 -1.3868
    5SAPS   C26  578   4.944  -0.291   9.860 -0.3983  0.6077  0.3463
    5SAPS   H6R  579   4.904  -0.391   9.885  1.6957 -0.1800  0.7323
    5SAPS   C27  580   5.068  -0.289   9.775  0.2725  0.0661 -0.3771
    5SAPS   H7R  581   5.155  -0.275   9.842  1.0515  1.2940 -1.6036
    5SAPS   H7S  582   5.069  -0.201   9.707  0.8987 -0.0990 -0.5836
    5SAPS   C28  583   5.099  -0.417   9.703  0.0204 -0.4425 -0.4702
    5SAPS   H8R  584   5.131  -0.505   9.760  1.0492 -1.3951 -2.4129
    5SAPS   C29  585   5.114  -0.429   9.574 -0.1109 -0.0724  0.1123
    5SAPS   H9R  586   5.127  -0.534   9.546 -0.7465 -0.3616  0.8727
    5SAPS  C210  587   5.090  -0.321   9.460  0.3014 -0.0106 -0.1699
    5SAPS  H10R  588   5.115  -0.220   9.499  2.2076 -0.9715  1.3084
    5SAPS  H10S  589   4.980  -0.306   9.454  0.0676 -0.9349  1.1941
    5SAPS  C211  590   5.167  -0.350   9.338  0.2119  0.3032  0.2618
    5SAPS  H11R  591   5.250  -0.421   9.348  1.7583  1.9873 -0.0369
    5SAPS  C212  592   5.143  -0.299   9.218  0.4321  0.3908  0.9832
    5SAPS  H12R  593   5.214  -0.320   9.136  1.0654  3.9656  0.4835
    5SAPS  C213  594   5.041  -0.194   9.175  0.1391 -0.2833 -0.6581
    5SAPS  H13R  595   5.105  -0.110   9.139  0.8170 -0.1904  0.6719
    5SAPS  H13S  596   4.990  -0.143   9.260 -0.1520  0.1491 -1.0870
    5SAPS  C214  597   4.949  -0.246   9.072  0.9384 -0.0638 -0.0746
    5SAPS  H14R  598   4.843  -0.237   9.102  0.6787  1.0994 -1.2050
    5SAPS  C215  599   4.975  -0.293   8.947  0.8901 -0.5202  0.5614
    5SAPS  H15R  600   4.892  -0.327   8.883  0.9356 -0.4750  0.4785
    5SAPS  C216  601   5.114  -0.305   8.880  0.1739 -0.0640  0.3134
    5SAPS  H16R  602   5.175  -0.396   8.900  0.8443  0.6405  1.6100
    5SAPS  H16S  603   5.172  -0.215   8.911  1.0345 -0.5224  0.0717
    5SAPS  C217  604   5.101  -0.306   8.727  0.1646 -0.2441 -0.2977
    5SAPS  H17R  605   5.040  -0.217   8.700 -0.0880 -0.9142 -2.0515
    5SAPS  H17S  606   5.049  -0.398   8.692  0.2679  0.0433 -1.2176
    5SAPS  C218  607   5.232  -0.289   8.647  0.0979  0.4746  0.8617
    5SAPS  H18R  608   5.284  -0.207   8.701 -1.7086  1.7383  0.7833
    5SAPS  H18S  609   5.282  -0.388   8.649 -0.8994 -0.0392  0.9860
    5SAPS  C219  610   5.224  -0.257   8.497 -0.6838 -0.6296 -0.1689
    5SAPS  H19R  611   5.329  -0.241   8.463 -0.3989  1.9064  1.6204
    5SAPS  H19S  612   5.173  -0.159   8.491  1.0150  0.2379 -1.2272
    5SAPS  C220  613   5.157  -0.363   8.406  0.1504 -0.0993 -0.3839
    5SAPS  H20R  614   5.160  -0.334   8.299  1.5758  0.0373 -0.3284
    5SAPS  H20S  615   5.051  -0.378   8.433 -0.7145 -0.8521 -3.7510
    5SAPS  H20T  616   5.213  -0.460   8.408  0.5194 -0.0686 -3.4907
    5SAPS   C33  617   5.363   0.039  10.135 -0.2422  0.3334  0.2783
    5SAPS   H3X  618   5.315   0.139  10.134  0.0280  0.4640 -0.3179
    5SAPS   H3Y  619   5.287  -0.041  10.127  0.5605 -0.2988 -2.0269
    5SAPS   C34  620   5.452   0.000  10.016  0.0855 -0.1688 -0.0352
    5SAPS   H4X  621   5.518  -0.088  10.033  0.6881  0.1562 -0.6346
    5SAPS   H4Y  622   5.520   0.083   9.986 -0.0132 -0.3281 -0.7158
    5SAPS   C35  623   5.380  -0.051   9.890 -0.2127  0.7470  1.0443
    5SAPS   H5X  624   5.293   0.014   9.866 -1.4858 -0.7564  1.4120
    5SAPS   H5Y  625   5.335  -0.152   9.902 -2.4623  0.9427 -3.6664
    5SAPS   C36  626   5.480  -0.062   9.770  0.7383 -0.1326 -0.9244
    5SAPS   H6X  627   5.567  -0.122   9.804  0.9432  1.5208  1.7079
    5SAPS   H6Y  628   5.512   0.037   9.733 -0.7446 -0.5003 -3.4179
    5SAPS   C37  629   5.417  -0.129   9.647 -0.2811  0.0855 -0.2691
    5SAPS   H7X  630   5.334  -0.061   9.618 -0.0849  1.1687  1.5396
    5SAPS   H7Y  631   5.377  -0.231   9.662  0.4960 -0.0462  1.1444
    5SAPS   C38  632   5.521  -0.142   9.531 -0.3023 -0.2005  0.1155
    5SAPS   H8X  633   5.582  -0.230   9.562 -1.4037 -0.3508  2.0094
    5SAPS   H8Y  634   5.599  -0.063   9.530  2.3435 -2.6279  0.7943
    5SAPS   C39  635   5.450  -0.157   9.388 -0.7178 -0.1175 -0.2180
    5SAPS   H9X  636   5.349  -0.111   9.380 -0.6072  0.3212  0.7385
    5SAPS   H9Y  637   5.426  -0.266   9.384 -1.2931  0.0377 -1.2186
    5SAPS  C310  638   5.549  -0.127   9.277  0.1488 -0.1321  0.1481
    5SAPS  H10X  639   5.637  -0.193   9.297  0.4115 -0.2178 -1.1832
    5SAPS  H10Y  640   5.573  -0.019   9.285  0.5799 -0.2205  0.0816
    5SAPS  C311  641   5.488  -0.166   9.141 -0.1405 -0.5048 -0.1789
    5SAPS  H11X  642   5.511  -0.080   9.075 -1.2864  0.2040  0.3192
    5SAPS  H11Y  643   5.379  -0.177   9.161  0.0608 -1.3863  0.5018
    5SAPS  C312  644   5.559  -0.289   9.080 -0.2309 -0.1467 -0.2119
    5SAPS  H12X  645   5.521  -0.387   9.117 -0.3267 -0.5838 -1.4242
    5SAPS  H12Y  646   5.664  -0.282   9.114 -0.0367 -2.0194 -0.3156
    5SAPS  C313  647   5.546  -0.297   8.932 -0.1118  0.3698  0.1524
    5SAPS  H13X  648   5.451  -0.247   8.902  0.4644  1.3241 -0.1245
    5SAPS  H13Y  649   5.535  -0.403   8.903  3.1531  0.5553 -2.3065
    5SAPS  C314  650   5.657  -0.222   8.848  0.4664  0.0677 -0.5438
    5SAPS  H14X  651   5.749  -0.281   8.866  0.0382 -0.7230 -0.8663
    5SAPS  H14Y  652   5.657  -0.120   8.892 -2.8953 -0.4047  0.9069
    5SAPS  C315  653   5.628  -0.197   8.701  0.4155 -0.3090 -0.7554
    5SAPS  H15X  654   5.732  -0.175   8.669  1.2717 -2.9981 -0.0919
    5SAPS  H15Y  655   5.563  -0.109   8.682 -0.3520 -0.7730 -0.3434
    5SAPS  C316  656   5.587  -0.316   8.619  0.5693  0.0895  0.0627
    5SAPS  H16X  657   5.570  -0.291   8.512  3.8893 -3.8828 -1.6851
    5SAPS  H16Y  658   5.490  -0.357   8.654  0.4957  0.0623 -0.1731
    5SAPS  C317  659   5.702  -0.424   8.626 -0.2461 -0.4339  1.4475
    5SAPS  H17X  660   5.713  -0.463   8.729  1.5192 -3.5612  0.2275
    5SAPS  H17Y  661   5.801  -0.379   8.605  0.7396 -3.3344 -0.9149
    5SAPS  C318  662   5.686  -0.534   8.521 -0.3287  0.6882  0.6438
    5SAPS  H18X  663   5.741  -0.628   8.542 -0.5603  0.4383  0.1496
    5SAPS  H18Y  664   5.707  -0.495   8.419  1.0436  1.0408  1.0463
    5SAPS  H18Z  665   5.579  -0.564   8.522  0.2780 -1.7241  0.0984
    6SAPS     N  666   3.730   6.223  10.928 -0.6489  0.1568  0.3080
    6SAPS   HN1  667   3.653   6.255  10.866 -1.9727 -0.6675  1.4779
    6SAPS   HN2  668   3.813   6.191  10.874 -0.3241  1.3151  0.0924
    6SAPS   HN3  669   3.694   6.145  10.987 -0.0864 -0.2386  0.1396
    6SAPS   C12  670   3.783   6.334  11.017  0.3754  0.1643  0.3772
    6SAPS  H12A  671   3.699   6.363  11.079 -0.3624 -1.1498  0.0232
    6SAPS   C13  672   3.889   6.283  11.113 -0.4733 -0.0739 -0.0650
    6SAPS  O13A  673   3.910   6.156  11.110  0.3013  0.1163 -0.3179
    6SAPS  O13B  674   3.945   6.359  11.200 -0.4946  0.2602 -0.6195
    6SAPS   C11  675   3.851   6.445  10.917  0.5672 -0.0970  0.1795
    6SAPS  H11A  676   3.949   6.403  10.885  0.4160 -1.1065  0.9762
    6SAPS  H11B  677   3.873   6.524  10.991 -0.3721  2.4127 -2.0472
    6SAPS     P  678   3.821   6.579  10.697  0.0447  0.8350 -0.3591
    6SAPS   O13  679   3.706   6.606  10.606 -0.0882 -0.4386 -0.8310
    6SAPS   O14  680   3.881   6.697  10.766  0.3628 -0.2145  0.0817
    6SAPS   O12  681   3.757   6.491  10.812 -0.0965  0.6109 -0.5325
    6SAPS   O11  682   3.928   6.485  10.626 -0.3202  0.0597 -0.4552
    6SAPS    C1  683   3.900   6.420  10.500  0.5222 -0.4491  0.4627
    6SAPS    HA  684   3.985   6.350  10.487  1.8300  1.3514 -1.5258
    6SAPS    HB  685   3.806   6.364  10.518 -0.4422  0.7175 -0.6862
    6SAPS    C2  686   3.887   6.509  10.372  0.1772  0.4529 -0.4721
    6SAPS    HS  687   3.791   6.565  10.374  1.6622  3.2945 -1.9218
    6SAPS   O21  688   3.897   6.429  10.258 -0.0261 -0.2148  0.3030
    6SAPS   C21  689   3.826   6.322  10.235 -0.3871  0.3377  0.8562
    6SAPS   O22  690   3.732   6.276  10.299 -0.1088 -0.5947 -0.1639
    6SAPS   C22  691   3.874   6.265  10.105 -0.0119  0.2390  1.1022
    6SAPS   H2R  692   3.882   6.341  10.025 -0.4253 -0.0687  0.7660
    6SAPS   H2S  693   3.974   6.221  10.125 -0.6546 -1.6959  0.3053
    6SAPS    C3  694   3.987   6.619  10.361  0.4829 -0.8434 -0.2229
    6SAPS    HX  695   4.071   6.564  10.314 -0.4781 -1.5558 -1.1325
    6SAPS    HY  696   4.016   6.651  10.464 -3.2874  2.3340  0.1112
    6SAPS   O31  697   3.945   6.734  10.284  1.0021  0.1465 -0.1489
    6SAPS   C31  698   3.998   6.844  10.310 -0.6739  0.1657  0.0968
    6SAPS   O32  699   4.084   6.860  10.399 -0.3421  0.0695 -0.0849
    6SAPS   C32  700   3.935   6.961  10.227  0.1027  0.0440  0.5772
    6SAPS   H2X  701   4.007   7.045  10.235 -1.1791  1.4057 -1.3815
    6SAPS   H2Y  702   3.840   6.978  10.282 -1.2478 -2.2763 -0.8688
    6SAPS   C23  703   3.786   6.143  10.046  0.2921 -0.2413  0.0767
    6SAPS   H3R  704   3.787   6.057  10.117 -0.6709  0.7848  1.3890
    6SAPS   H3S  705   3.847   6.111   9.959  0.9480 -0.8664  0.7585
    6SAPS   C24  706   3.641   6.178  10.003 -0.0628 -0.3000 -0.1425
    6SAPS   H4R  707   3.649   6.263   9.932 -0.6491  0.7959  1.0353
    6SAPS   H4S  708   3.579   6.219  10.086  0.0474  2.8204 -1.4394
    6SAPS   C25  709   3.575   6.057   9.944 -0.2590  0.0514 -0.3453
    6SAPS   H5R  710   3.619   5.958   9.960 -3.2831 -1.1886  1.0586
    6SAPS   C26  711   3.469   6.066   9.860 -0.4566 -0.7588  0.3817
    6SAPS   H6R  712   3.430   5.975   9.812 -1.5172 -2.3930  3.9876
    6SAPS   C27  713   3.415   6.205   9.814 -1.0647 -0.1759 -0.1556
    6SAPS   H7R  714   3.429   6.281   9.893  1.9133  2.2170 -2.7213
    6SAPS   H7S  715   3.306   6.198   9.794 -0.8651  0.1105 -1.4580
    6SAPS   C28  716   3.498   6.245   9.693 -0.1520  0.1846  0.8187
    6SAPS   H8R  717   3.606   6.234   9.704 -0.2867  0.0457  2.1515
    6SAPS   C29  718   3.456   6.304   9.578 -0.2284 -0.9496  0.1777
    6SAPS   H9R  719   3.533   6.333   9.505 -0.3095 -1.0122  0.0668
    6SAPS  C210  720   3.318   6.347   9.546  0.5511  0.2884  0.1036
    6SAPS  H10R  721   3.253   6.319   9.631  0.6636 -1.3576 -0.3212
    6SAPS  H10S  722   3.291   6.289   9.455 -0.4139 -1.1439  1.2656
    6SAPS  C211  723   3.309   6.494   9.519  0.5308 -0.1246  0.5639
    6SAPS  H11R  724   3.329   6.526   9.416 -2.7196 -1.4719 -0.6323
    6SAPS  C212  725   3.257   6.586   9.591 -0.7399  0.2321 -0.3263
    6SAPS  H12R  726   3.262   6.689   9.553 -4.0032  0.1527 -1.2712
    6SAPS  C213  727   3.192   6.577   9.724  0.6333  0.2293 -0.0383
    6SAPS  H13R  728   3.132   6.483   9.724 -0.8288  0.9950  3.3314
    6SAPS  H13S  729   3.114   6.655   9.740 -0.9787 -1.1963 -0.5895
    6SAPS  C214  730   3.286   6.578   9.845  0.3563  0.2499 -0.2887
    6SAPS  H14R  731   3.378   6.637   9.835  0.3825  0.1873 -0.4174
    6SAPS  C215  732   3.258   6.523   9.968  1.1524 -0.0201  0.4089
    6SAPS  H15R  733   3.316   6.549  10.058 -0.6057  1.2577  1.2297
    6SAPS  C216  734   3.131   6.446   9.995 -0.6642  0.2563 -0.6670
    6SAPS  H16R  735   3.133   6.377  10.082  2.3278 -4.1425 -3.8251
    6SAPS  H16S  736   3.107   6.373   9.915 -0.1205  1.1422 -1.6605
    6SAPS  C217  737   3.013   6.543  10.015 -0.3748  0.4508  0.2860
    6SAPS  H17R  738   2.916   6.490  10.001 -0.6127  0.7242  0.8616
    6SAPS  H17S  739   3.012   6.622   9.937  1.9657 -0.1204 -0.4087
    6SAPS  C218  740   3.014   6.619  10.139  0.2125  0.2680 -0.8279
    6SAPS  H18R  741   2.969   6.720  10.128  2.3897  1.4732  0.7120
    6SAPS  H18S  742   3.118   6.638  10.173 -0.5912  2.2445  0.7656
    6SAPS  C219  743   2.947   6.570  10.270  0.4724 -0.1482 -0.0502
    6SAPS  H19R  744   2.990   6.473  10.303 -0.5384 -0.3912  0.5835
    6SAPS  H19S  745   2.840   6.553  10.245  0.4175 -0.3560  0.3079
    6SAPS  C220  746   2.959   6.668  10.381  0.2751 -0.1909 -0.6470
    6SAPS  H20R  747   3.060   6.690  10.421  0.0615 -2.2294  1.1774
    6SAPS  H20S  748   2.901   6.628  10.467 -1.0154  1.6624 -0.5859
    6SAPS  H20T  749   2.911   6.765  10.353  0.1852  0.1552  0.6322
    6SAPS   C33  750   3.900   6.923  10.087  0.3135 -0.0759  0.4599
    6SAPS   H3X  751   3.826   6.992  10.041  0.0535 -0.6696 -0.0284
    6SAPS   H3Y  752   3.848   6.825  10.083  1.5900 -0.7423 -1.7326
    6SAPS   C34  753   4.023   6.916   9.996  0.0784 -0.1853  1.0460
    6SAPS   H4X  754   4.075   6.820  10.016  0.8854 -0.0607 -0.3073
    6SAPS   H4Y  755   4.092   6.999  10.021  1.4140 -0.5005 -1.3206
    6SAPS   C35  756   3.990   6.918   9.843 -0.0107  0.0708  0.1046
    6SAPS   H5X  757   3.942   7.018   9.831  0.5433  0.1168 -2.0587
    6SAPS   H5Y  758   3.903   6.856   9.814 -0.0979  0.1170  0.2605
    6SAPS   C36  759   4.112   6.905   9.760 -0.2462  0.4934  0.6166
    6SAPS   H6X  760   4.165   6.808   9.755  0.6543  1.0279 -1.0539
    6SAPS   H6Y  761   4.188   6.968   9.811  0.6688 -0.6075  0.6626
    6SAPS   C37  762   4.086   6.964   9.617 -0.1943  0.3464  0.2323
    6SAPS   H7X  763   4.058   7.071   9.624 -0.2632  0.3540 -0.1743
    6SAPS   H7Y  764   4.002   6.904   9.577  0.0382  1.0948 -1.4418
    6SAPS   C38  765   4.210   6.937   9.533 -0.0951 -0.0468 -0.9607
    6SAPS   H8X  766   4.237   6.830   9.519 -3.0808 -1.0349 -0.0875
    6SAPS   H8Y  767   4.292   6.992   9.583 -1.8477 -0.7292  3.1370
    6SAPS   C39  768   4.228   7.020   9.399 -0.3346 -0.3051 -0.9311
    6SAPS   H9X  769   4.336   7.034   9.379 -0.4033  1.6366 -0.1211
    6SAPS   H9Y  770   4.196   7.126   9.407 -0.4985 -0.4786  1.2141
    6SAPS  C310  771   4.169   6.954   9.274  0.2653  0.0862  0.0666
    6SAPS  H10X  772   4.101   7.031   9.232  0.8197  0.2883 -0.4657
    6SAPS  H10Y  773   4.104   6.866   9.297  1.3319 -0.6900  0.1808
    6SAPS  C311  774   4.272   6.922   9.170 -0.0276  0.1828  0.0702
    6SAPS  H11X  775   4.339   6.847   9.219  0.3621  0.1367 -0.5164
    6SAPS  H11Y  776   4.330   7.017   9.159  0.2709 -0.0618 -0.5109
    6SAPS  C312  777   4.221   6.852   9.034 -0.0411  0.2717 -0.0686
    6SAPS  H12X  778   4.121   6.805   9.051 -0.0794  0.7798  1.2681
    6SAPS  H12Y  779   4.281   6.760   9.017 -0.9791  0.2403 -4.0513
    6SAPS  C313  780   4.223   6.946   8.915  0.2235 -0.3310  0.0531
    6SAPS  H13X  781   4.157   7.035   8.923 -0.2568 -0.7159  0.4344
    6SAPS  H13Y  782   4.180   6.877   8.839  2.5887 -3.9374  1.6865
    6SAPS  C314  783   4.364   6.990   8.864  0.1624  0.0957  0.4207
    6SAPS  H14X  784   4.427   6.901   8.844  1.4439  1.6519 -3.4720
    6SAPS  H14Y  785   4.416   7.066   8.926 -0.2387 -0.2369  1.1822
    6SAPS  C315  786   4.340   7.067   8.731 -0.5051 -0.5947  0.0696
    6SAPS  H15X  787   4.296   7.165   8.760  0.8853  0.2922 -0.7432
    6SAPS  H15Y  788   4.273   7.015   8.658 -1.0876 -0.2000  0.3089
    6SAPS  C316  789   4.474   7.095   8.654  0.1129  0.3569  0.1866
    6SAPS  H16X  790   4.552   7.103   8.732 -0.2753 -0.2341  0.6487
    6SAPS  H16Y  791   4.468   7.195   8.604 -0.8302 -0.1155 -0.6995
    6SAPS  C317  792   4.534   6.988   8.570  0.5256  0.7792  0.4530
    6SAPS  H17X  793   4.583   6.907   8.627 -2.3108 -2.6151 -1.5290
    6SAPS  H17Y  794   4.621   7.029   8.514  0.8314  0.7328  0.8864
    6SAPS  C318  795   4.437   6.915   8.475 -0.9023  0.1076 -0.2160
    6SAPS  H18X  796   4.366   6.859   8.539  0.3081 -0.3920  0.7376
    6SAPS  H18Y  797   4.483   6.833   8.415 -1.8901  0.0361 -0.8984
    6SAPS  H18Z  798   4.398   6.992   8.405  1.1114  0.1836 -1.3531
    7SAPS     N  799   6.558   3.070  10.940 -0.6586  0.1515 -0.0880
    7SAPS   HN1  800   6.565   3.142  11.015  1.0037  0.0192 -0.0879
    7SAPS   HN2  801   6.478   3.093  10.878 -0.0422  0.3005 -0.8435
    7SAPS   HN3  802   6.530   2.984  10.991 -2.1604  0.7922  0.2222
    7SAPS   C12  803   6.695   3.059  10.881  0.0456 -0.7489 -0.3756
    7SAPS  H12A  804   6.721   3.150  10.830 -1.2073  0.7110  1.4699
    7SAPS   C13  805   6.812   3.040  10.980 -0.6524 -0.5453  0.2968
    7SAPS  O13A  806   6.796   3.050  11.100  0.1929  0.4544 -0.5568
    7SAPS  O13B  807   6.931   3.027  10.935  0.2630  0.1435  0.2843
    7SAPS   C11  808   6.693   2.940  10.771 -0.0397 -0.4486  0.3354
    7SAPS  H11A  809   6.675   2.846  10.826 -2.5719 -0.7483 -0.8557
    7SAPS  H11B  810   6.792   2.930  10.722 -1.0009  0.5072 -1.9599
    7SAPS     P  811   6.579   3.059  10.558  0.1656  0.3042  0.0828
    7SAPS   O13  812   6.439   3.114  10.566 -0.2651 -0.8730  0.5707
    7SAPS   O14  813   6.683   3.158  10.586 -0.3336 -0.0347  0.4098
    7SAPS   O12  814   6.588   2.950  10.672  0.0200 -0.1521 -0.2380
    7SAPS   O11  815   6.618   2.983  10.430  0.5040  0.5706  0.0745
    7SAPS    C1  816   6.704   2.877  10.420  0.1107 -0.2047  0.2666
    7SAPS    HA  817   6.807   2.918  10.432  0.8561 -0.9342 -2.6368
    7SAPS    HB  818   6.691   2.798  10.497  0.1130  1.1319  1.6839
    7SAPS    C2  819   6.714   2.810  10.281  0.6795 -0.2338  0.3298
    7SAPS    HS  820   6.741   2.889  10.207  1.2783 -0.6554  0.0948
    7SAPS   O21  821   6.584   2.753  10.260  1.0450  0.2990 -0.0062
    7SAPS   C21  822   6.536   2.767  10.135  0.1125  0.9774  1.2435
    7SAPS   O22  823   6.596   2.820  10.046 -0.0552 -0.2929  0.3260
    7SAPS   C22  824   6.393   2.712  10.126 -0.0798 -0.4707  0.2590
    7SAPS   H2R  825   6.374   2.638  10.207 -2.1869  0.6349  0.8471
    7SAPS   H2S  826   6.322   2.794  10.150 -0.2114 -0.6808  0.5916
    7SAPS    C3  827   6.822   2.697  10.278  0.4903 -1.3112  0.7072
    7SAPS    HX  828   6.782   2.622  10.350 -2.1873 -1.1109 -0.4776
    7SAPS    HY  829   6.916   2.744  10.315  0.1166  1.9825 -2.0135
    7SAPS   O31  830   6.841   2.638  10.147  0.5551 -0.4951 -0.5952
    7SAPS   C31  831   6.780   2.525  10.123 -0.7138  0.0871  0.3284
    7SAPS   O32  832   6.711   2.460  10.203 -0.4759  0.1831  0.1732
    7SAPS   C32  833   6.809   2.484   9.979 -0.0948  0.6604  0.0766
    7SAPS   H2X  834   6.921   2.485   9.978 -0.0919  0.0895 -0.7075
    7SAPS   H2Y  835   6.766   2.558   9.909  0.4800 -0.0034 -0.9927
    7SAPS   C23  836   6.359   2.652   9.988  0.3172  0.6437  0.6384
    7SAPS   H3R  837   6.394   2.715   9.904 -0.9638 -1.0698 -1.2712
    7SAPS   H3S  838   6.250   2.635   9.980  0.5704 -0.6477 -0.5931
    7SAPS   C24  839   6.430   2.511   9.965  0.5335 -0.0794 -0.3968
    7SAPS   H4R  840   6.537   2.525   9.989  0.5856 -1.8450  0.5903
    7SAPS   H4S  841   6.414   2.487   9.858  0.8290  0.7050 -0.6257
    7SAPS   C25  842   6.379   2.402  10.052  0.2362  0.1900 -0.9211
    7SAPS   H5R  843   6.435   2.392  10.146 -0.0254  0.4285 -0.7392
    7SAPS   C26  844   6.284   2.312  10.021  0.3065 -0.3281  0.3575
    7SAPS   H6R  845   6.246   2.242  10.097 -1.8252 -0.9528 -1.1850
    7SAPS   C27  846   6.210   2.306   9.888  0.1007  0.2603  0.1030
    7SAPS   H7R  847   6.278   2.321   9.801  1.2834 -0.3448  0.8890
    7SAPS   H7S  848   6.130   2.381   9.870  0.0612 -0.0854 -1.2571
    7SAPS   C28  849   6.140   2.176   9.865  0.0776 -0.2389 -0.6718
    7SAPS   H8R  850   6.052   2.160   9.930 -1.7468  2.1418 -2.4094
    7SAPS   C29  851   6.153   2.097   9.760 -0.0447 -0.4318 -0.5666
    7SAPS   H9R  852   6.092   2.005   9.759  0.8024 -1.0289  0.3528
    7SAPS  C210  853   6.261   2.109   9.652 -0.9901  0.5079 -0.0773
    7SAPS  H10R  854   6.282   2.006   9.617 -0.2434  0.3890  0.6968
    7SAPS  H10S  855   6.356   2.145   9.695  0.4078 -2.8979  0.0517
    7SAPS  C211  856   6.212   2.193   9.542 -0.4357  0.1366  0.5474
    7SAPS  H11R  857   6.185   2.295   9.574  1.2225  1.0183 -0.6716
    7SAPS  C212  858   6.218   2.162   9.406  0.3197  0.7288 -0.6496
    7SAPS  H12R  859   6.191   2.242   9.334  0.1452  1.1214 -0.1522
    7SAPS  C213  860   6.275   2.037   9.349  0.1790  0.5258  0.2739
    7SAPS  H13R  861   6.363   2.012   9.412 -0.5796 -0.4058  0.9830
    7SAPS  H13S  862   6.306   2.063   9.246  0.9298  0.4771  0.4757
    7SAPS  C214  863   6.171   1.929   9.345 -0.2742  0.5562  0.0423
    7SAPS  H14R  864   6.147   1.894   9.446 -1.0622  0.2408 -0.2421
    7SAPS  C215  865   6.094   1.880   9.241  0.1615  0.1913 -0.5235
    7SAPS  H15R  866   6.017   1.806   9.267  1.6345 -0.7343  1.4003
    7SAPS  C216  867   6.101   1.921   9.101  0.0191  0.8581 -0.4215
    7SAPS  H16R  868   6.037   1.847   9.048  1.0752 -0.9745  0.7591
    7SAPS  H16S  869   6.203   1.919   9.058 -0.4347 -1.3475 -1.5868
    7SAPS  C217  870   6.053   2.058   9.073  0.6417  0.6742  0.5829
    7SAPS  H17R  871   6.127   2.134   9.107  1.4519  0.2120 -0.1147
    7SAPS  H17S  872   5.952   2.079   9.114  0.6998  4.1979 -0.6942
    7SAPS  C218  873   6.028   2.075   8.919  0.1455 -0.4745  0.2838
    7SAPS  H18R  874   5.956   2.155   8.893 -1.5850 -2.8174 -2.9241
    7SAPS  H18S  875   5.976   1.985   8.880  1.5560 -0.6553 -1.2621
    7SAPS  C219  876   6.148   2.103   8.830  0.0094  0.4500  0.7469
    7SAPS  H19R  877   6.228   2.033   8.861  0.5845  0.5716 -0.4327
    7SAPS  H19S  878   6.196   2.202   8.841  0.9264  0.0383  0.4893
    7SAPS  C220  879   6.110   2.085   8.678 -0.3367 -0.2960  0.1810
    7SAPS  H20R  880   6.206   2.080   8.622  0.2775  1.6732  0.9752
    7SAPS  H20S  881   6.038   2.167   8.653  0.5684  1.0564  1.7929
    7SAPS  H20T  882   6.064   1.984   8.677  1.2552 -1.0506 -0.4616
    7SAPS   C33  883   6.752   2.341   9.956 -0.6877 -0.5620 -0.5376
    7SAPS   H3X  884   6.659   2.315  10.009 -0.0412 -1.1641  0.3255
    7SAPS   H3Y  885   6.821   2.275  10.012 -0.5900  0.2430  0.3281
    7SAPS   C34  886   6.732   2.309   9.808  0.2200 -0.1193 -0.9932
    7SAPS   H4X  887   6.825   2.323   9.749 -0.3714 -3.1163 -2.8787
    7SAPS   H4Y  888   6.657   2.383   9.773  0.2589  1.2871  1.6459
    7SAPS   C35  889   6.691   2.165   9.778 -0.2660  0.0510  0.2247
    7SAPS   H5X  890   6.595   2.149   9.831 -0.1579  2.4770  1.2797
    7SAPS   H5Y  891   6.760   2.094   9.829  1.3104  0.0154 -1.8356
    7SAPS   C36  892   6.670   2.154   9.628  0.5295 -0.9122 -0.1938
    7SAPS   H6X  893   6.759   2.189   9.571  0.6623  0.3170  0.7220
    7SAPS   H6Y  894   6.578   2.212   9.606  0.1365 -1.0963  0.8667
    7SAPS   C37  895   6.642   2.010   9.584  0.8206  0.0873 -0.0115
    7SAPS   H7X  896   6.542   1.969   9.610  1.5449 -0.7873  1.5330
    7SAPS   H7Y  897   6.716   1.948   9.639 -0.8224 -0.2647  1.9125
    7SAPS   C38  898   6.664   1.991   9.431 -0.2734 -0.1026 -0.0513
    7SAPS   H8X  899   6.764   2.031   9.403 -1.3288  0.3989 -3.5337
    7SAPS   H8Y  900   6.583   2.046   9.378 -1.2168 -1.5929 -0.2048
    7SAPS   C39  901   6.650   1.842   9.394 -0.0526  0.1369 -0.0454
    7SAPS   H9X  902   6.544   1.830   9.425  0.4496  2.4683  3.0087
    7SAPS   H9Y  903   6.718   1.780   9.456  1.0193 -0.1241 -1.4282
    7SAPS  C310  904   6.668   1.801   9.241  0.5080  0.8634 -0.7343
    7SAPS  H10X  905   6.632   1.696   9.230 -0.2262  0.9029  0.9300
    7SAPS  H10Y  906   6.776   1.800   9.214  0.7175 -0.7594  0.0016
    7SAPS  C311  907   6.595   1.903   9.148  0.3684 -0.1690  0.1968
    7SAPS  H11X  908   6.630   2.007   9.165 -2.0866  1.1400 -2.0356
    7SAPS  H11Y  909   6.489   1.896   9.180  0.3070  2.3167  0.6665
    7SAPS  C312  910   6.613   1.859   8.997 -0.2637  1.2060 -0.5892
    7SAPS  H12X  911   6.566   1.758   8.994 -0.0916  1.1535 -1.9607
    7SAPS  H12Y  912   6.723   1.853   8.982 -0.0686  2.2143  0.3093
    7SAPS  C313  913   6.547   1.953   8.901  0.9439  0.1131  1.0342
    7SAPS  H13X  914   6.588   2.054   8.922  1.0915  0.7149 -1.7747
    7SAPS  H13Y  915   6.438   1.961   8.919  0.5885  1.2843 -1.2470
    7SAPS  C314  916   6.572   1.916   8.747 -0.4941  0.5774  0.3030
    7SAPS  H14X  917   6.551   1.811   8.717 -1.1272  1.0568 -0.9922
    7SAPS  H14Y  918   6.682   1.932   8.744 -0.2647 -0.8611  0.2811
    7SAPS  C315  919   6.481   2.007   8.667  0.3283 -0.1707 -0.0152
    7SAPS  H15X  920   6.468   2.101   8.724  2.6643  0.5147 -0.4964
    7SAPS  H15Y  921   6.379   1.965   8.664  1.3740 -2.8343 -2.1879
    7SAPS  C316  922   6.536   2.055   8.536 -0.2459 -0.0428 -0.4113
    7SAPS  H16X  923   6.466   2.129   8.491  0.3174 -0.2112 -1.6094
    7SAPS  H16Y  924   6.538   1.971   8.463 -1.2853 -2.0179  1.7293
    7SAPS  C317  925   6.676   2.121   8.533  0.5802 -0.0509 -0.0086
    7SAPS  H17X  926   6.730   2.077   8.446  0.4244  0.5626 -0.4234
    7SAPS  H17Y  927   6.727   2.078   8.621 -1.8547 -2.3234  0.4094
    7SAPS  C318  928   6.676   2.273   8.511  0.4458  0.1018 -0.4931
    7SAPS  H18X  929   6.777   2.305   8.479  1.0606  0.1243  1.3686
    7SAPS  H18Y  930   6.647   2.329   8.602  2.2288 -0.9666  0.7818
    7SAPS  H18Z  931   6.604   2.284   8.426  0.6817 -2.5672 -1.1374
    8SAPS     N  932   4.563   1.082  11.150 -0.1400 -0.3342 -0.3473
    8SAPS   HN1  933   4.523   1.003  11.095 -1.0813 -0.5404  0.5759
    8SAPS   HN2  934   4.620   1.136  11.083 -0.4342  1.0200  0.4571
    8SAPS   HN3  935   4.622   1.045  11.228 -0.6069 -0.4343 -0.0309
    8SAPS   C12  936   4.452   1.176  11.203 -0.0538  0.1311  0.5723
    8SAPS  H12A  937   4.366   1.119  11.236  1.0085 -0.9479  1.6044
    8SAPS   C13  938   4.491   1.262  11.327  0.0562 -0.4902 -0.2342
    8SAPS  O13A  939   4.601   1.232  11.380 -0.3028  0.2977  0.1995
    8SAPS  O13B  940   4.398   1.319  11.391  0.2783 -0.3549  0.4349
    8SAPS   C11  941   4.402   1.279  11.092  0.0675  0.6373 -0.7065
    8SAPS  H11A  942   4.322   1.334  11.146 -0.5214 -3.2278  2.8789
    8SAPS  H11B  943   4.359   1.225  11.005 -1.0103  0.6329 -0.1954
    8SAPS     P  944   4.596   1.357  10.940 -0.2881 -0.2969  0.5134
    8SAPS   O13  945   4.659   1.487  10.910  0.1871 -0.4573  0.3022
    8SAPS   O14  946   4.687   1.241  10.962 -0.7313 -0.0766 -0.5805
    8SAPS   O12  947   4.495   1.376  11.060 -0.2526 -0.4825 -0.4591
    8SAPS   O11  948   4.512   1.311  10.815  0.4021  0.4867  0.2295
    8SAPS    C1  949   4.382   1.358  10.787 -0.7776  0.1263  0.6052
    8SAPS    HA  950   4.312   1.272  10.790  1.1938 -1.6849 -1.3800
    8SAPS    HB  951   4.341   1.441  10.849  0.5013  2.5367 -1.5406
    8SAPS    C2  952   4.377   1.401  10.635 -0.8474  0.2311  0.2520
    8SAPS    HS  953   4.277   1.449  10.623 -0.0823  1.1333 -3.8106
    8SAPS   O21  954   4.391   1.282  10.546  0.2635  0.7251  0.0186
    8SAPS   C21  955   4.276   1.235  10.501 -0.5234 -0.3286  1.2071
    8SAPS   O22  956   4.171   1.292  10.517 -0.2520  0.3664  0.3921
    8SAPS   C22  957   4.294   1.102  10.427  0.3521 -0.4450 -0.4656
    8SAPS   H2R  958   4.386   1.050  10.464  0.6871  0.5652  0.1815
    8SAPS   H2S  959   4.208   1.042  10.462 -1.0652  1.0030 -1.3509
    8SAPS    C3  960   4.491   1.497  10.595  0.0463  0.3998 -0.0001
    8SAPS    HX  961   4.581   1.432  10.587  0.3161  0.0201  3.9540
    8SAPS    HY  962   4.501   1.577  10.672 -1.1039  1.1092 -0.5561
    8SAPS   O31  963   4.461   1.560  10.469  0.1284  0.1133  0.2122
    8SAPS   C31  964   4.566   1.619  10.408 -0.2962 -0.2484 -0.2549
    8SAPS   O32  965   4.682   1.609  10.445 -0.3936  1.1521 -0.2608
    8SAPS   C32  966   4.531   1.695  10.282 -0.7179 -0.9154  0.0563
    8SAPS   H2X  967   4.595   1.784  10.265 -1.3570 -0.5643 -0.5902
    8SAPS   H2Y  968   4.431   1.739  10.302 -0.7470 -1.7640  1.9831
    8SAPS   C23  969   4.278   1.117  10.271  0.0080 -0.0031 -0.0088
    8SAPS   H3R  970   4.274   1.020  10.217  0.4952 -0.7095  1.1751
    8SAPS   H3S  971   4.357   1.178  10.222 -2.3879  1.3729 -2.3680
    8SAPS   C24  972   4.145   1.182  10.227  0.3706  0.3036  0.1508
    8SAPS   H4R  973   4.081   1.216  10.312 -1.0043 -3.9550  1.0358
    8SAPS   H4S  974   4.072   1.104  10.196 -1.3702  1.3152  1.4747
    8SAPS   C25  975   4.161   1.298  10.130  0.3678 -0.0175  0.6865
    8SAPS   H5R  976   4.158   1.399  10.174 -4.2349  0.2934  0.1930
    8SAPS   C26  977   4.173   1.286   9.992 -0.4863  0.3887  0.1724
    8SAPS   H6R  978   4.199   1.377   9.936  0.6749 -0.7531 -1.2073
    8SAPS   C27  979   4.175   1.153   9.921 -0.4648  0.0919  0.5120
    8SAPS   H7R  980   4.196   1.072   9.995 -1.0408  0.5210  1.1481
    8SAPS   H7S  981   4.265   1.162   9.855  0.5388  1.7610  2.0297
    8SAPS   C28  982   4.040   1.127   9.855  0.0196 -0.5155 -0.3173
    8SAPS   H8R  983   3.954   1.136   9.923  0.5670 -0.8356  0.4307
    8SAPS   C29  984   4.011   1.082   9.731  0.5213  0.8254  0.1262
    8SAPS   H9R  985   3.907   1.077   9.694 -0.3239  1.8034  2.2177
    8SAPS  C210  986   4.108   1.042   9.628  0.6803  0.0397  0.1590
    8SAPS  H10R  987   4.071   0.954   9.571 -0.1661  0.7527 -0.4244
    8SAPS  H10S  988   4.210   1.020   9.667  0.8183  0.5677  0.1011
    8SAPS  C211  989   4.117   1.151   9.524 -0.5643  0.1645 -0.2630
    8SAPS  H11R  990   4.039   1.229   9.526  0.5244  1.2975 -0.8923
    8SAPS  C212  991   4.219   1.159   9.434  0.1258  0.1146 -0.0168
    8SAPS  H12R  992   4.217   1.237   9.356  4.0133  0.9157  0.5004
    8SAPS  C213  993   4.342   1.072   9.424  0.0696  0.3136 -0.1449
    8SAPS  H13R  994   4.359   1.004   9.510 -1.0032  1.0129  0.6467
    8SAPS  H13S  995   4.430   1.139   9.408 -0.1404  1.0364  1.4756
    8SAPS  C214  996   4.328   0.982   9.303  0.2850 -0.0467 -0.7183
    8SAPS  H14R  997   4.235   0.925   9.293  2.0271 -3.4438  0.7487
    8SAPS  C215  998   4.420   0.951   9.216 -0.2803 -0.1168  0.0795
    8SAPS  H15R  999   4.395   0.891   9.127  0.4932 -0.1551 -0.1177
    8SAPS  C216 1000   4.560   0.989   9.221 -0.4853 -0.1461  0.0128
    8SAPS  H16R 1001   4.620   0.900   9.248  1.0746  0.1848 -2.0927
    8SAPS  H16S 1002   4.579   1.062   9.302 -0.3898  1.0046 -1.0169
    8SAPS  C217 1003   4.633   1.051   9.104 -0.0548  0.0039  0.1501
    8SAPS  H17R 1004   4.628   0.995   9.008  2.0622 -0.5948  0.3457
    8SAPS  H17S 1005   4.740   1.059   9.133 -0.1604 -0.0874  0.5667
    8SAPS  C218 1006   4.578   1.189   9.064  0.9679 -0.3598  0.1748
    8SAPS  H18R 1007   4.570   1.250   9.157  2.4316  0.8787 -0.4687
    8SAPS  H18S 1008   4.478   1.164   9.024  1.9588 -2.3589 -1.2043
    8SAPS  C219 1009   4.675   1.264   8.967  0.0285 -0.4129  0.3726
    8SAPS  H19R 1010   4.775   1.276   9.014 -0.1722 -1.0770  0.9789
    8SAPS  H19S 1011   4.622   1.360   8.946  0.9116 -0.2296 -1.1992
    8SAPS  C220 1012   4.688   1.199   8.825 -0.4069  0.2107  0.3665
    8SAPS  H20R 1013   4.590   1.180   8.777  1.4444 -0.7715 -3.5281
    8SAPS  H20S 1014   4.734   1.100   8.845 -0.0076  0.4105  0.4449
    8SAPS  H20T 1015   4.754   1.259   8.757 -0.8551  0.3889  0.0823
    8SAPS   C33 1016   4.538   1.609  10.153 -0.4258 -0.0075 -0.2296
    8SAPS   H3X 1017   4.518   1.505  10.187  0.1239  0.2697  1.0044
    8SAPS   H3Y 1018   4.637   1.607  10.102 -0.6954 -0.2850 -0.7458
    8SAPS   C34 1019   4.435   1.641  10.047  0.1112  0.4701 -0.3761
    8SAPS   H4X 1020   4.465   1.741  10.010 -1.0999  1.5585  1.4034
    8SAPS   H4Y 1021   4.336   1.660  10.095  1.3214  2.9844  1.3396
    8SAPS   C35 1022   4.434   1.542   9.931  0.2388  0.4462 -0.1189
    8SAPS   H5X 1023   4.393   1.446   9.968  1.0185  0.1094 -0.1012
    8SAPS   H5Y 1024   4.538   1.527   9.894  0.4859  2.6083 -0.4544
    8SAPS   C36 1025   4.341   1.591   9.819  0.0331  0.7836  0.2965
    8SAPS   H6X 1026   4.375   1.690   9.781 -0.8247  0.4706 -1.4080
    8SAPS   H6Y 1027   4.237   1.609   9.856 -0.1519  2.0346 -0.7594
    8SAPS   C37 1028   4.325   1.496   9.698  0.3571  0.2550  0.0574
    8SAPS   H7X 1029   4.292   1.394   9.728 -0.9933 -0.4924 -3.4907
    8SAPS   H7Y 1030   4.427   1.476   9.660  1.8935  1.0417  3.4425
    8SAPS   C38 1031   4.234   1.551   9.591 -0.3281 -0.0881 -0.2511
    8SAPS   H8X 1032   4.199   1.655   9.607  2.8789  0.6711  3.5129
    8SAPS   H8Y 1033   4.136   1.500   9.593 -1.2223  1.6089  1.4695
    8SAPS   C39 1034   4.288   1.545   9.442  0.1391 -0.0758 -0.1243
    8SAPS   H9X 1035   4.322   1.443   9.414 -2.2607 -0.7758 -0.7988
    8SAPS   H9Y 1036   4.375   1.612   9.429 -0.8684  0.6427 -4.7702
    8SAPS  C310 1037   4.171   1.582   9.346  0.5781 -0.4873  0.1846
    8SAPS  H10X 1038   4.127   1.680   9.375  2.6825  0.6717 -0.3206
    8SAPS  H10Y 1039   4.097   1.500   9.349  0.9954 -0.8727  2.7746
    8SAPS  C311 1040   4.213   1.597   9.201  0.2602 -0.0190 -0.2327
    8SAPS  H11X 1041   4.302   1.659   9.179 -0.7335  0.6068 -2.8773
    8SAPS  H11Y 1042   4.129   1.641   9.143  0.4549 -1.0731 -1.3585
    8SAPS  C312 1043   4.248   1.461   9.121 -0.2922 -0.9260  0.0224
    8SAPS  H12X 1044   4.186   1.377   9.160  0.3916 -1.6687 -0.4680
    8SAPS  H12Y 1045   4.351   1.437   9.153  0.9644  2.2643 -1.2477
    8SAPS  C313 1046   4.228   1.476   8.975 -0.0685 -0.7918 -0.1456
    8SAPS  H13X 1047   4.315   1.534   8.938  0.2352 -0.9721  0.2724
    8SAPS  H13Y 1048   4.129   1.517   8.946 -0.3770 -0.3181  1.4781
    8SAPS  C314 1049   4.241   1.344   8.898 -0.6374 -0.1759 -0.3296
    8SAPS  H14X 1050   4.336   1.306   8.943 -1.5329 -1.2614  0.7274
    8SAPS  H14Y 1051   4.262   1.347   8.789  1.5412  2.2832  0.0460
    8SAPS  C315 1052   4.128   1.244   8.922  0.4999  0.2399 -0.3082
    8SAPS  H15X 1053   4.045   1.269   8.853  0.1760 -2.2918 -0.9099
    8SAPS  H15Y 1054   4.090   1.252   9.026  1.4737  1.6118 -0.0324
    8SAPS  C316 1055   4.169   1.103   8.901  0.6763  0.1396  0.3924
    8SAPS  H16X 1056   4.258   1.078   8.962 -0.1037 -1.8146  0.7981
    8SAPS  H16Y 1057   4.192   1.089   8.794  0.9195 -2.1657  0.7067
    8SAPS  C317 1058   4.056   1.013   8.954  0.3166 -0.1465 -0.4665
    8SAPS  H17X 1059   3.964   1.044   8.900 -0.1949  1.9328  1.4118
    8SAPS  H17Y 1060   4.024   1.030   9.059 -0.9402  0.8040 -0.9886
    8SAPS  C318 1061   4.093   0.864   8.949 -0.2017 -0.0349  0.1713
    8SAPS  H18X 1062   4.103   0.828   8.844  0.3097  0.6994 -0.0369
    8SAPS  H18Y 1063   4.004   0.808   8.987  0.7004 -2.5023 -1.1275
    8SAPS  H18Z 1064   4.181   0.849   9.016 -0.8646  0.4722  1.1801
    9SAPS     N 1065   3.300   3.487   6.197  0.3032  0.1787 -0.2247
    9SAPS   HN1 1066   3.269   3.583   6.220 -0.2735  0.5873 -2.4346
    9SAPS   HN2 1067   3.275   3.466   6.098 -1.6555  3.2089 -0.4951
    9SAPS   HN3 1068   3.245   3.425   6.259 -0.1178  3.1533  2.6404
    9SAPS   C12 1069   3.448   3.478   6.226  0.3122 -0.6306  0.9196
    9SAPS  H12A 1070   3.493   3.405   6.162  0.1636 -0.4265  0.5813
    9SAPS   C13 1071   3.524   3.614   6.204  0.4989  0.2364  0.5172
    9SAPS  O13A 1072   3.466   3.720   6.161  0.3021  0.4114  0.0329
    9SAPS  O13B 1073   3.643   3.626   6.243 -0.5547  0.5074  0.2442
    9SAPS   C11 1074   3.477   3.430   6.368  0.0361 -0.1091  0.7976
    9SAPS  H11A 1075   3.462   3.510   6.444  0.6570  1.9090 -1.1202
    9SAPS  H11B 1076   3.586   3.414   6.360  0.1010  1.0389 -1.2016
    9SAPS     P 1077   3.422   3.176   6.365 -0.3550  0.1766  0.5695
    9SAPS   O13 1078   3.325   3.084   6.422 -0.0353 -0.0746  0.8588
    9SAPS   O14 1079   3.430   3.176   6.214 -0.1904 -0.0225  0.3657
    9SAPS   O12 1080   3.389   3.327   6.409 -0.8093  0.4786 -0.0000
    9SAPS   O11 1081   3.563   3.143   6.428 -0.0917 -0.0151 -0.3761
    9SAPS    C1 1082   3.570   3.106   6.569  0.1538  0.2921 -0.4094
    9SAPS    HA 1083   3.492   3.158   6.628  0.5993 -2.0721  2.4600
    9SAPS    HB 1084   3.549   2.998   6.578 -0.7545  0.5525  0.9454
    9SAPS    C2 1085   3.706   3.143   6.635  0.2749  0.1011 -0.2879
    9SAPS    HS 1086   3.766   3.050   6.634  0.0065 -0.2091  3.0853
    9SAPS   O21 1087   3.675   3.182   6.771  0.1598  0.5007 -1.4144
    9SAPS   C21 1088   3.684   3.086   6.863  0.3144  0.0926  0.2799
    9SAPS   O22 1089   3.697   2.962   6.847  0.7895 -0.1576 -0.6055
    9SAPS   C22 1090   3.708   3.155   6.996  0.6700 -0.1062 -0.4669
    9SAPS   H2R 1091   3.817   3.176   7.002  0.3334  2.3669 -1.5410
    9SAPS   H2S 1092   3.654   3.251   7.014 -0.4221 -0.9492  0.9679
    9SAPS    C3 1093   3.792   3.254   6.565  0.0387 -0.5265  0.4030
    9SAPS    HX 1094   3.718   3.335   6.546 -2.4296 -2.4098  1.4133
    9SAPS    HY 1095   3.822   3.204   6.470  1.6846 -0.3868  0.8104
    9SAPS   O31 1096   3.919   3.265   6.632  0.3104  0.2032 -0.0293
    9SAPS   C31 1097   3.920   3.356   6.727 -0.6844 -0.2067 -0.0266
    9SAPS   O32 1098   3.824   3.424   6.764 -0.2927 -0.1934  0.1224
    9SAPS   C32 1099   4.068   3.353   6.790  0.6952  0.2649  0.5438
    9SAPS   H2X 1100   4.134   3.395   6.710  0.7638  1.4814  1.2119
    9SAPS   H2Y 1101   4.096   3.248   6.812 -0.3012 -0.0965  0.1302
    9SAPS   C23 1102   3.673   3.074   7.118  0.8606  0.7539 -0.1041
    9SAPS   H3R 1103   3.718   3.118   7.209 -0.0403  2.0377 -0.2576
    9SAPS   H3S 1104   3.707   2.971   7.091 -0.6776  0.4919 -1.1884
    9SAPS   C24 1105   3.522   3.045   7.141 -0.1160 -0.2423 -0.3059
    9SAPS   H4R 1106   3.528   2.972   7.225  0.2166  1.1830  0.9389
    9SAPS   H4S 1107   3.464   2.987   7.065 -0.2596 -1.3930  0.6549
    9SAPS   C25 1108   3.436   3.158   7.175 -0.1464 -0.3680  0.1455
    9SAPS   H5R 1109   3.370   3.203   7.099  0.8204  2.1634  0.6974
    9SAPS   C26 1110   3.435   3.212   7.301 -0.1605 -0.4450 -0.3028
    9SAPS   H6R 1111   3.358   3.288   7.325  0.1278  0.0349 -0.8557
    9SAPS   C27 1112   3.525   3.164   7.414  0.2721  0.0230 -0.7873
    9SAPS   H7R 1113   3.599   3.083   7.394  1.6336  0.2504  2.7700
    9SAPS   H7S 1114   3.475   3.125   7.505  2.1757 -1.3031 -0.2517
    9SAPS   C28 1115   3.601   3.284   7.456  0.4447  0.1085 -0.9479
    9SAPS   H8R 1116   3.686   3.312   7.391  0.4425 -0.8314 -1.3792
    9SAPS   C29 1117   3.590   3.347   7.576 -0.0481  0.0912  0.1350
    9SAPS   H9R 1118   3.660   3.430   7.595 -0.2574  0.0200  1.3140
    9SAPS  C210 1119   3.499   3.321   7.687  0.0217  0.0759 -0.1744
    9SAPS  H10R 1120   3.457   3.218   7.689 -0.7540  0.3807 -0.3954
    9SAPS  H10S 1121   3.408   3.383   7.681  0.0128  0.0788 -0.0127
    9SAPS  C211 1122   3.574   3.335   7.819  0.1665  0.4947  0.0912
    9SAPS  H11R 1123   3.559   3.417   7.890 -0.9491  0.1911  0.2086
    9SAPS  C212 1124   3.655   3.239   7.875 -0.3363 -0.5662  0.4016
    9SAPS  H12R 1125   3.692   3.264   7.975 -1.5132  0.0912  0.6887
    9SAPS  C213 1126   3.692   3.104   7.823  0.2038  0.3712 -0.1571
    9SAPS  H13R 1127   3.764   3.067   7.899  0.3851  0.2407 -0.3935
    9SAPS  H13S 1128   3.739   3.103   7.723 -1.4218  1.4099 -0.9784
    9SAPS  C214 1129   3.577   3.008   7.828  0.0154 -0.2659 -0.0136
    9SAPS  H14R 1130   3.496   3.032   7.899  0.9614  1.2486  0.6040
    9SAPS  C215 1131   3.582   2.886   7.774 -0.1526 -0.5556  0.1801
    9SAPS  H15R 1132   3.496   2.817   7.777 -0.9239  0.4114  1.2771
    9SAPS  C216 1133   3.690   2.839   7.680 -0.2088  0.2331 -0.0566
    9SAPS  H16R 1134   3.732   2.743   7.715 -1.7377 -0.3174  0.3629
    9SAPS  H16S 1135   3.782   2.902   7.678  0.8032 -1.2057  0.2325
    9SAPS  C217 1136   3.655   2.823   7.531 -0.7763  0.4208  1.0921
    9SAPS  H17R 1137   3.672   2.919   7.478  0.8711 -1.2515 -1.6457
    9SAPS  H17S 1138   3.546   2.808   7.516 -0.5563  1.9241 -3.1189
    9SAPS  C218 1139   3.731   2.706   7.461  0.3872  0.6777 -1.2400
    9SAPS  H18R 1140   3.733   2.620   7.532  1.2769 -1.8809 -4.1396
    9SAPS  H18S 1141   3.831   2.737   7.426 -0.3709  1.1817 -3.0600
    9SAPS  C219 1142   3.659   2.655   7.334 -0.0546 -0.2678  0.4518
    9SAPS  H19R 1143   3.653   2.743   7.267  3.5568  0.3985  0.7782
    9SAPS  H19S 1144   3.558   2.623   7.367 -0.9481  0.6089 -1.3347
    9SAPS  C220 1145   3.729   2.547   7.253 -0.7646 -0.3271  0.8606
    9SAPS  H20R 1146   3.679   2.548   7.154 -0.8383  0.5129  0.8966
    9SAPS  H20S 1147   3.707   2.445   7.291 -1.5245  0.2917  2.1696
    9SAPS  H20T 1148   3.839   2.561   7.242 -1.1544  1.6264 -1.3673
    9SAPS   C33 1149   4.076   3.461   6.899 -0.3711  0.8157  0.1269
    9SAPS   H3X 1150   4.037   3.559   6.865 -0.9366  0.0264 -1.6482
    9SAPS   H3Y 1151   4.184   3.470   6.925 -0.4186  1.0157  0.2563
    9SAPS   C34 1152   4.025   3.414   7.038  0.7150 -0.3327 -0.4995
    9SAPS   H4X 1153   4.085   3.326   7.071  0.5195 -0.2454  0.0859
    9SAPS   H4Y 1154   3.925   3.368   7.051  0.0301  0.7369 -1.7170
    9SAPS   C35 1155   4.041   3.520   7.147 -0.4015 -0.1470 -0.2169
    9SAPS   H5X 1156   3.956   3.591   7.141 -0.1937  0.0402 -0.9768
    9SAPS   H5Y 1157   4.136   3.577   7.141  0.4675 -1.6671 -1.7305
    9SAPS   C36 1158   4.025   3.445   7.289  0.0237  0.0351 -0.2604
    9SAPS   H6X 1159   4.090   3.356   7.296 -0.1102 -0.0945 -0.6522
    9SAPS   H6Y 1160   3.925   3.398   7.282  0.3991 -0.6268 -1.3120
    9SAPS   C37 1161   4.043   3.539   7.404  0.3108  0.5573  0.9079
    9SAPS   H7X 1162   4.015   3.642   7.374 -1.2511 -0.0847  0.0678
    9SAPS   H7Y 1163   4.153   3.535   7.419  0.6010  0.5729 -0.9631
    9SAPS   C38 1164   3.971   3.499   7.533 -0.5615 -0.2538 -0.1982
    9SAPS   H8X 1165   4.006   3.403   7.576 -0.4100  0.0331  0.3392
    9SAPS   H8Y 1166   3.869   3.478   7.494 -0.2357 -3.5613  0.5019
    9SAPS   C39 1167   3.961   3.618   7.628 -0.3970  0.2558  0.2919
    9SAPS   H9X 1168   3.885   3.686   7.584 -1.0591 -1.6835 -1.7649
    9SAPS   H9Y 1169   4.059   3.669   7.636  1.4115 -3.0200  0.8564
    9SAPS  C310 1170   3.916   3.577   7.773  0.3508 -0.7167 -0.2677
    9SAPS  H10X 1171   3.985   3.502   7.817  1.8609 -0.8573 -2.6802
    9SAPS  H10Y 1172   3.816   3.529   7.761  0.9395 -2.5440  1.5496
    9SAPS  C311 1173   3.914   3.699   7.867  0.0129 -0.0552 -0.4978
    9SAPS  H11X 1174   3.838   3.770   7.827  0.5278  1.1904  0.6324
    9SAPS  H11Y 1175   4.019   3.734   7.860  0.1623 -0.6366 -1.2688
    9SAPS  C312 1176   3.892   3.647   8.006 -0.6088 -0.0410  0.0971
    9SAPS  H12X 1177   3.978   3.579   8.028 -1.5412 -0.3921  3.0023
    9SAPS  H12Y 1178   3.803   3.591   8.040  1.2671 -2.1163  1.9845
    9SAPS  C313 1179   3.906   3.763   8.106  0.2689 -0.2391 -0.3209
    9SAPS  H13X 1180   3.808   3.815   8.103  0.0839 -0.3714  1.8485
    9SAPS  H13Y 1181   3.981   3.829   8.059  1.4638 -1.7102 -0.5874
    9SAPS  C314 1182   3.964   3.721   8.245  0.9106 -0.4232 -0.2103
    9SAPS  H14X 1183   3.996   3.815   8.296  3.5822 -1.1516 -0.3697
    9SAPS  H14Y 1184   4.051   3.651   8.237  1.8294  0.8189 -1.5164
    9SAPS  C315 1185   3.858   3.666   8.340 -0.7036 -0.0305  1.1054
    9SAPS  H15X 1186   3.811   3.588   8.277  0.8721  0.2792 -0.5163
    9SAPS  H15Y 1187   3.777   3.742   8.342 -0.6616  0.0080  1.3940
    9SAPS  C316 1188   3.913   3.616   8.467  0.1909  0.4379 -0.0375
    9SAPS  H16X 1189   3.927   3.702   8.535 -0.1050 -0.0115  0.5979
    9SAPS  H16Y 1190   4.016   3.574   8.462  0.1223 -0.3463  3.1284
    9SAPS  C317 1191   3.814   3.520   8.538  0.1746 -0.3388 -0.0871
    9SAPS  H17X 1192   3.819   3.417   8.497 -1.4589 -1.1609  1.6141
    9SAPS  H17Y 1193   3.711   3.559   8.525 -0.2746 -1.1889  0.8273
    9SAPS  C318 1194   3.840   3.513   8.688 -0.4097 -1.1872  0.2682
    9SAPS  H18X 1195   3.865   3.609   8.739  1.1020 -1.1059 -0.5596
    9SAPS  H18Y 1196   3.921   3.437   8.694  0.7938  0.1100  1.0877
    9SAPS  H18Z 1197   3.754   3.477   8.748 -2.4150  0.0521 -1.7505
   10SAPS     N 1198   6.106   2.548   6.094  0.3016  0.2716 -0.9050
   10SAPS   HN1 1199   6.077   2.535   5.995 -0.6355 -0.5896 -0.5373
   10SAPS   HN2 1200   6.146   2.463   6.138  0.2082  0.6546 -0.0614
   10SAPS   HN3 1201   6.018   2.577   6.141 -0.1683  0.4627 -1.8642
   10SAPS   C12 1202   6.199   2.666   6.102  0.3229 -0.0988  0.1677
   10SAPS  H12A 1203   6.275   2.661   6.026  0.9013  0.7682  0.6683
   10SAPS   C13 1204   6.123   2.801   6.074 -0.0078  0.0867  0.2526
   10SAPS  O13A 1205   6.015   2.799   6.007 -0.0986 -0.2551 -0.4657
   10SAPS  O13B 1206   6.199   2.906   6.074 -0.3238  0.3439 -0.0840
   10SAPS   C11 1207   6.258   2.675   6.243 -0.3535 -0.3380  0.0406
   10SAPS  H11A 1208   6.185   2.696   6.324 -0.2495 -0.0409  0.0571
   10SAPS  H11B 1209   6.323   2.763   6.224 -0.5799  0.3445  2.1547
   10SAPS     P 1210   6.313   2.446   6.354  0.5943  0.0131 -0.3438
   10SAPS   O13 1211   6.202   2.366   6.289  0.7562  0.3137 -0.3898
   10SAPS   O14 1212   6.439   2.374   6.379 -0.5142  0.5164  0.3727
   10SAPS   O12 1213   6.347   2.571   6.271 -0.4296 -0.5532 -0.0109
   10SAPS   O11 1214   6.255   2.508   6.484  0.1308  0.3156 -0.4458
   10SAPS    C1 1215   6.329   2.600   6.568 -0.0000  0.2210 -0.1928
   10SAPS    HA 1216   6.412   2.653   6.517 -0.1035  0.1356 -0.4511
   10SAPS    HB 1217   6.266   2.681   6.610 -1.9595 -0.8102 -1.0123
   10SAPS    C2 1218   6.380   2.525   6.689 -0.3017  0.0874  0.4339
   10SAPS    HS 1219   6.464   2.458   6.658 -0.0978  0.1850  0.7638
   10SAPS   O21 1220   6.276   2.432   6.734  0.5365 -0.2030 -0.8627
   10SAPS   C21 1221   6.323   2.349   6.825 -0.6591 -0.4166 -0.1056
   10SAPS   O22 1222   6.440   2.338   6.857 -0.0474 -0.1188 -0.2504
   10SAPS   C22 1223   6.209   2.264   6.874  0.0082 -0.0954  0.3062
   10SAPS   H2R 1224   6.146   2.217   6.795  0.2149 -1.2861  0.8288
   10SAPS   H2S 1225   6.256   2.175   6.921  2.0482  0.7595  0.0143
   10SAPS    C3 1226   6.432   2.613   6.808  1.1676 -0.4747 -0.1213
   10SAPS    HX 1227   6.483   2.696   6.755 -0.5503 -0.0022 -1.1339
   10SAPS    HY 1228   6.513   2.566   6.867  0.1344 -3.2879 -0.7789
   10SAPS   O31 1229   6.323   2.661   6.891 -0.2134  0.3470 -0.2690
   10SAPS   C31 1230   6.369   2.749   6.982  0.7684  0.8975 -0.0764
   10SAPS   O32 1231   6.483   2.780   6.995 -1.1478 -0.0282 -0.4039
   10SAPS   C32 1232   6.243   2.816   7.034  0.3476  0.1432 -0.3935
   10SAPS   H2X 1233   6.180   2.745   7.092  1.7471 -0.8984 -0.0838
   10SAPS   H2Y 1234   6.191   2.861   6.946  2.6424  2.1249 -0.8191
   10SAPS   C23 1235   6.134   2.331   6.985 -1.1075 -0.8426  0.5983
   10SAPS   H3R 1236   6.072   2.253   7.036 -0.8975 -0.9962  0.6196
   10SAPS   H3S 1237   6.075   2.408   6.932  0.3235  1.3468  2.0502
   10SAPS   C24 1238   6.212   2.406   7.096  0.2698  0.3436 -0.0696
   10SAPS   H4R 1239   6.139   2.480   7.136  0.4843  0.7609 -0.4481
   10SAPS   H4S 1240   6.292   2.468   7.051 -0.5032  0.5893 -1.1630
   10SAPS   C25 1241   6.282   2.330   7.209  0.3559 -0.0116 -0.2851
   10SAPS   H5R 1242   6.374   2.275   7.183  0.7305 -0.7290  2.2776
   10SAPS   C26 1243   6.241   2.302   7.338  0.0928 -0.8279 -0.3308
   10SAPS   H6R 1244   6.309   2.252   7.410 -1.3533  0.4641  2.0389
   10SAPS   C27 1245   6.113   2.342   7.405  0.8509 -0.6161 -0.0742
   10SAPS   H7R 1246   6.081   2.258   7.472  0.6712 -0.3127  0.2248
   10SAPS   H7S 1247   6.030   2.347   7.332  0.9659 -0.0047 -0.1623
   10SAPS   C28 1248   6.118   2.477   7.480 -0.3256  0.4150 -0.6871
   10SAPS   H8R 1249   6.158   2.563   7.425 -1.0846  0.7633 -0.7069
   10SAPS   C29 1250   6.095   2.488   7.615  0.1869 -0.1327 -0.0482
   10SAPS   H9R 1251   6.087   2.591   7.655 -0.4323 -0.2765  0.2129
   10SAPS  C210 1252   6.064   2.385   7.719 -0.5759  0.9002  0.6161
   10SAPS  H10R 1253   6.095   2.293   7.665  0.3067  1.9671 -0.7731
   10SAPS  H10S 1254   5.955   2.376   7.741 -0.3375  2.3827  2.7374
   10SAPS  C211 1255   6.135   2.412   7.853  0.5840 -0.0376  0.8328
   10SAPS  H11R 1256   6.244   2.424   7.843  0.3283  2.0901 -0.0776
   10SAPS  C212 1257   6.079   2.402   7.974 -0.3067  0.0532 -0.1481
   10SAPS  H12R 1258   6.139   2.411   8.066 -0.4283  0.6228 -0.1204
   10SAPS  C213 1259   5.940   2.371   8.019 -0.7142  0.4437 -0.5398
   10SAPS  H13R 1260   5.950   2.272   8.068 -1.3237  0.1970 -0.8992
   10SAPS  H13S 1261   5.878   2.358   7.928  3.1939 -1.3345 -3.2105
   10SAPS  C214 1262   5.871   2.468   8.101 -0.0813  0.5947 -0.1698
   10SAPS  H14R 1263   5.851   2.562   8.047  1.3967 -0.1791 -2.1667
   10SAPS  C215 1264   5.835   2.436   8.228  0.0825  0.1008 -0.4490
   10SAPS  H15R 1265   5.782   2.516   8.281  0.8165  0.3989 -0.1549
   10SAPS  C216 1266   5.858   2.308   8.304  0.6291  0.1867 -0.2042
   10SAPS  H16R 1267   5.886   2.323   8.410  2.0571 -0.1752 -0.4957
   10SAPS  H16S 1268   5.930   2.235   8.261  1.3842 -0.7654  2.5105
   10SAPS  C217 1269   5.722   2.233   8.320 -0.3606 -0.0061 -0.3007
   10SAPS  H17R 1270   5.744   2.130   8.353 -0.8123  0.2290  0.7878
   10SAPS  H17S 1271   5.660   2.226   8.228 -0.9285 -0.4555  0.1069
   10SAPS  C218 1272   5.627   2.295   8.426 -0.4618 -0.6969 -0.0912
   10SAPS  H18R 1273   5.537   2.230   8.432 -0.5871 -0.3828  2.0509
   10SAPS  H18S 1274   5.596   2.397   8.396 -0.2317 -0.1391  1.5110
   10SAPS  C219 1275   5.680   2.301   8.569  0.1166  0.3856 -0.8058
   10SAPS  H19R 1276   5.590   2.325   8.629 -0.1421 -0.2512 -0.9319
   10SAPS  H19S 1277   5.759   2.374   8.597  0.6823 -0.7631  0.7571
   10SAPS  C220 1278   5.727   2.165   8.618 -0.4554  0.1997 -0.5873
   10SAPS  H20R 1279   5.659   2.080   8.597 -0.1361  0.1124 -1.2742
   10SAPS  H20S 1280   5.757   2.163   8.725 -1.3933  0.1669 -0.3168
   10SAPS  H20T 1281   5.813   2.128   8.559  0.2250  1.3600 -0.3469
   10SAPS   C33 1282   6.280   2.930   7.129 -0.6260 -0.4359  0.0864
   10SAPS   H3X 1283   6.197   3.004   7.128 -1.9015 -1.7167  2.1620
   10SAPS   H3Y 1284   6.365   2.985   7.083 -0.6117  1.9424  2.7028
   10SAPS   C34 1285   6.327   2.894   7.275 -0.7675  0.4851  0.8269
   10SAPS   H4X 1286   6.401   2.971   7.307 -1.2919  0.6615  1.6417
   10SAPS   H4Y 1287   6.392   2.804   7.269 -0.6256  0.6127  0.3742
   10SAPS   C35 1288   6.213   2.894   7.376  0.5355 -0.4348  1.1649
   10SAPS   H5X 1289   6.151   2.803   7.356  1.7429 -0.8449 -1.0497
   10SAPS   H5Y 1290   6.147   2.983   7.373  0.7838 -0.2623  0.7288
   10SAPS   C36 1291   6.260   2.870   7.521  0.1792 -0.4718 -0.1850
   10SAPS   H6X 1292   6.331   2.942   7.568 -1.2084  1.0997 -0.4200
   10SAPS   H6Y 1293   6.323   2.779   7.507 -0.3533 -1.0530  1.0825
   10SAPS   C37 1294   6.133   2.861   7.610 -0.2739 -0.3246  0.6285
   10SAPS   H7X 1295   6.069   2.779   7.572  2.5533 -1.7184 -1.4791
   10SAPS   H7Y 1296   6.078   2.957   7.599 -0.5751 -0.6435 -0.8688
   10SAPS   C38 1297   6.161   2.848   7.752 -0.0878 -0.3442 -0.7109
   10SAPS   H8X 1298   6.241   2.918   7.785 -0.8966 -0.1533  0.9487
   10SAPS   H8Y 1299   6.190   2.744   7.778  1.0133  0.4529  1.5912
   10SAPS   C39 1300   6.042   2.886   7.835 -0.3572 -0.3458 -0.3342
   10SAPS   H9X 1301   5.953   2.836   7.791  0.1209 -1.0588 -0.5117
   10SAPS   H9Y 1302   6.029   2.997   7.837  2.3428  0.0267  0.8831
   10SAPS  C310 1303   6.052   2.844   7.985  0.5961 -0.0162 -0.5135
   10SAPS  H10X 1304   6.137   2.908   8.019  1.0568  0.0650 -1.7511
   10SAPS  H10Y 1305   6.068   2.734   7.993 -0.7457 -0.1651  0.2882
   10SAPS  C311 1306   5.922   2.878   8.063  0.0986  0.1017  0.4690
   10SAPS  H11X 1307   5.853   2.798   8.026 -0.1966 -1.4201  3.9225
   10SAPS  H11Y 1308   5.891   2.976   8.022  1.7580  0.6239  0.3896
   10SAPS  C312 1309   5.930   2.866   8.211 -0.4702  0.2155 -0.6153
   10SAPS  H12X 1310   6.005   2.940   8.246  0.4003  0.4791 -2.8641
   10SAPS  H12Y 1311   5.978   2.771   8.246 -0.5393  1.2877  2.8061
   10SAPS  C313 1312   5.796   2.889   8.283 -1.2251  0.0251  0.3133
   10SAPS  H13X 1313   5.729   2.808   8.249  0.0887 -1.1804  0.4849
   10SAPS  H13Y 1314   5.756   2.988   8.255  0.6568  1.2059  1.5499
   10SAPS  C314 1315   5.811   2.889   8.431  0.1852 -0.5056  0.6738
   10SAPS  H14X 1316   5.889   2.957   8.469 -0.5988 -0.0202  1.4471
   10SAPS  H14Y 1317   5.848   2.792   8.470 -0.8168 -0.2242  2.4282
   10SAPS  C315 1318   5.676   2.910   8.494 -0.0369 -0.1583 -0.3226
   10SAPS  H15X 1319   5.619   2.992   8.445 -1.2863  0.7481  2.4445
   10SAPS  H15Y 1320   5.689   2.946   8.598 -0.0645  1.8275 -0.9708
   10SAPS  C316 1321   5.588   2.779   8.493 -0.0119 -0.0819  0.1957
   10SAPS  H16X 1322   5.655   2.691   8.506  1.6802  1.1548  0.2263
   10SAPS  H16Y 1323   5.536   2.767   8.395 -1.6401 -1.9900  1.2442
   10SAPS  C317 1324   5.481   2.781   8.600  0.0255  0.6326  0.1950
   10SAPS  H17X 1325   5.415   2.867   8.576 -1.8315 -1.1441 -1.4453
   10SAPS  H17Y 1326   5.526   2.799   8.700  1.3075 -0.7701 -0.1089
   10SAPS  C318 1327   5.390   2.656   8.608  0.3608  0.6619  0.4381
   10SAPS  H18X 1328   5.282   2.672   8.629  0.7102  0.6050  2.4897
   10SAPS  H18Y 1329   5.421   2.580   8.682 -0.2444 -1.5997 -1.4964
   10SAPS  H18Z 1330   5.386   2.598   8.513 -0.4644  1.7838 -0.2388
   11SAPS     N 1331   6.246   6.510   5.816 -0.7198  0.0463 -0.2150
   11SAPS   HN1 1332   6.254   6.614   5.814 -0.2324  0.0008 -2.1774
   11SAPS   HN2 1333   6.189   6.492   5.902 -2.9086  2.5676 -0.9813
   11SAPS   HN3 1334   6.344   6.476   5.818 -0.9942 -1.0490 -2.3662
   11SAPS   C12 1335   6.168   6.468   5.689  0.2544  0.5483 -0.3254
   11SAPS  H12A 1336   6.074   6.521   5.697  0.5895  1.3069 -1.1520
   11SAPS   C13 1337   6.232   6.510   5.551  0.1350  0.0923 -0.6398
   11SAPS  O13A 1338   6.342   6.569   5.556  0.3991  0.2554 -0.6002
   11SAPS  O13B 1339   6.171   6.508   5.440  0.1011 -0.0557 -0.1915
   11SAPS   C11 1340   6.137   6.319   5.696 -0.0518  0.2072 -0.1053
   11SAPS  H11A 1341   6.225   6.252   5.699 -0.1709  0.0639  0.2565
   11SAPS  H11B 1342   6.078   6.304   5.603 -0.8282  0.4126  0.3425
   11SAPS     P 1343   5.941   6.184   5.792 -0.0124  0.2766 -0.3139
   11SAPS   O13 1344   5.814   6.245   5.757  0.1295  0.0068  0.1442
   11SAPS   O14 1345   5.987   6.074   5.709  0.1797 -0.0817  0.6677
   11SAPS   O12 1346   6.049   6.299   5.808  0.7941 -0.0160  0.2846
   11SAPS   O11 1347   5.939   6.145   5.946 -0.8259  0.2072  0.6250
   11SAPS    C1 1348   6.052   6.097   6.019  0.0267 -0.3902 -0.4202
   11SAPS    HA 1349   6.113   6.022   5.965  0.3154 -0.4215 -0.0523
   11SAPS    HB 1350   6.118   6.182   6.048 -1.4613  0.5184  0.4642
   11SAPS    C2 1351   6.008   6.023   6.147  0.8269  0.6053 -0.3421
   11SAPS    HS 1352   5.977   5.923   6.111 -2.9367  0.7897  1.8558
   11SAPS   O21 1353   5.902   6.101   6.201 -0.3033  0.1512 -1.0218
   11SAPS   C21 1354   5.779   6.057   6.168  0.3985 -0.2030 -1.1719
   11SAPS   O22 1355   5.751   5.955   6.113 -0.0123 -0.2436  0.3715
   11SAPS   C22 1356   5.673   6.145   6.247 -1.1236 -0.1779  0.1690
   11SAPS   H2R 1357   5.696   6.252   6.227 -1.1654 -0.6104 -2.5250
   11SAPS   H2S 1358   5.577   6.113   6.202 -1.0763  0.8143 -0.6687
   11SAPS    C3 1359   6.125   6.002   6.246  0.0265 -0.0583 -1.1572
   11SAPS    HX 1360   6.197   6.085   6.227  1.3809 -0.4084  1.8760
   11SAPS    HY 1361   6.186   5.912   6.223  1.9886  0.5516  1.2003
   11SAPS   O31 1362   6.096   6.009   6.386  0.5100  0.5329 -0.2776
   11SAPS   C31 1363   6.023   5.900   6.426 -0.2862  1.0621 -0.7970
   11SAPS   O32 1364   5.975   5.813   6.351  0.1922  0.0433 -0.0537
   11SAPS   C32 1365   6.021   5.882   6.572 -0.1519 -0.1587  0.2222
   11SAPS   H2X 1366   5.948   5.954   6.614 -1.3356 -1.7100  0.9239
   11SAPS   H2Y 1367   6.117   5.911   6.619 -0.2518  2.5976 -1.0540
   11SAPS   C23 1368   5.673   6.121   6.396  0.3374 -0.0356 -0.1848
   11SAPS   H3R 1369   5.742   6.187   6.452 -0.4706  0.4253  0.2835
   11SAPS   H3S 1370   5.721   6.022   6.411  0.4299  0.1209  0.6160
   11SAPS   C24 1371   5.526   6.121   6.452 -0.0171 -0.3665 -0.2449
   11SAPS   H4R 1372   5.527   6.089   6.558  1.9481 -0.0222 -0.1270
   11SAPS   H4S 1373   5.468   6.052   6.387  0.4289  1.1676 -2.3993
   11SAPS   C25 1374   5.470   6.263   6.427 -1.1802  0.1406 -0.5276
   11SAPS   H5R 1375   5.409   6.270   6.336 -1.6766 -3.5173 -0.5998
   11SAPS   C26 1376   5.460   6.358   6.527 -0.1030 -0.6527 -0.0325
   11SAPS   H6R 1377   5.419   6.457   6.502 -1.2469 -1.3717 -1.1517
   11SAPS   C27 1378   5.499   6.342   6.675 -0.1322  0.0123 -0.4341
   11SAPS   H7R 1379   5.547   6.438   6.702 -1.9608  0.6261  0.8905
   11SAPS   H7S 1380   5.568   6.259   6.699  0.3953  1.0249  1.8450
   11SAPS   C28 1381   5.380   6.328   6.764 -0.3486  0.4194 -0.0071
   11SAPS   H8R 1382   5.289   6.282   6.722 -0.1565 -0.6075  0.6709
   11SAPS   C29 1383   5.391   6.342   6.897  0.4604  0.0905  0.4188
   11SAPS   H9R 1384   5.309   6.310   6.964  1.5561  0.2211  1.8636
   11SAPS  C210 1385   5.510   6.395   6.969  0.2905  0.4868  0.3421
   11SAPS  H10R 1386   5.539   6.499   6.943 -1.3947  0.7303 -0.6988
   11SAPS  H10S 1387   5.582   6.318   6.935  0.2521  0.0375  1.2426
   11SAPS  C211 1388   5.498   6.377   7.119 -0.0819  0.0923 -0.1815
   11SAPS  H11R 1389   5.463   6.275   7.141 -2.1425  0.3524 -1.9377
   11SAPS  C212 1390   5.530   6.469   7.215  0.6639 -0.0177 -0.1419
   11SAPS  H12R 1391   5.518   6.450   7.322  5.2111  1.3965  0.8648
   11SAPS  C213 1392   5.575   6.617   7.182 -0.2289  0.4771 -0.2174
   11SAPS  H13R 1393   5.531   6.691   7.251  0.4202  2.2022 -1.5754
   11SAPS  H13S 1394   5.522   6.652   7.091  2.8763 -0.6903 -2.6545
   11SAPS  C214 1395   5.722   6.641   7.169 -0.7487  0.4178  0.1251
   11SAPS  H14R 1396   5.786   6.552   7.168  1.4184  1.8945 -0.4663
   11SAPS  C215 1397   5.797   6.752   7.164  0.3290  0.4370 -0.4294
   11SAPS  H15R 1398   5.905   6.733   7.156  0.4680  0.1308  1.5540
   11SAPS  C216 1399   5.749   6.893   7.152 -0.5678  0.0856  0.1603
   11SAPS  H16R 1400   5.769   6.959   7.239 -3.2391  1.6894 -0.3284
   11SAPS  H16S 1401   5.638   6.890   7.155 -0.5258 -1.7697  1.0436
   11SAPS  C217 1402   5.801   6.949   7.023 -0.1731 -0.1853 -0.0907
   11SAPS  H17R 1403   5.909   6.969   7.010 -0.1317 -0.1993  0.2300
   11SAPS  H17S 1404   5.754   7.048   7.039 -0.5456 -0.4366  0.4399
   11SAPS  C218 1405   5.750   6.877   6.898  0.4772  0.5946 -0.1009
   11SAPS  H18R 1406   5.641   6.860   6.913  0.5224 -0.3297 -0.7486
   11SAPS  H18S 1407   5.802   6.780   6.882  2.4439  1.6614 -0.5232
   11SAPS  C219 1408   5.758   6.958   6.765  0.9829 -0.5701 -0.0837
   11SAPS  H19R 1409   5.690   7.045   6.767  0.0114 -1.3168  0.0404
   11SAPS  H19S 1410   5.723   6.891   6.684 -2.9228  0.0762  0.8891
   11SAPS  C220 1411   5.890   7.017   6.732 -0.2133 -0.5070  0.2985
   11SAPS  H20R 1412   5.963   6.941   6.695 -1.4182 -0.4546 -2.4243
   11SAPS  H20S 1413   5.933   7.069   6.820 -1.0681 -2.1011  1.7036
   11SAPS  H20T 1414   5.876   7.080   6.642 -1.0681 -1.3073 -0.1413
   11SAPS   C33 1415   5.967   5.748   6.634 -0.6740 -0.0523  0.5546
   11SAPS   H3X 1416   6.052   5.678   6.622 -2.0174 -1.3092 -2.7355
   11SAPS   H3Y 1417   5.880   5.708   6.578 -1.8940  3.5515 -0.4206
   11SAPS   C34 1418   5.956   5.743   6.787  0.1107  0.5119  0.2050
   11SAPS   H4X 1419   5.964   5.838   6.843  0.5000  0.2493  0.6057
   11SAPS   H4Y 1420   6.037   5.689   6.841  0.3162  1.2701  0.6697
   11SAPS   C35 1421   5.819   5.673   6.822  0.5225 -0.3166 -0.4592
   11SAPS   H5X 1422   5.809   5.581   6.761 -1.0926  0.3041 -1.2013
   11SAPS   H5Y 1423   5.732   5.732   6.784  0.1492  0.7387  1.8615
   11SAPS   C36 1424   5.796   5.645   6.971 -0.2253 -0.4091 -0.0153
   11SAPS   H6X 1425   5.880   5.578   7.000 -1.6153 -1.7281  1.1638
   11SAPS   H6Y 1426   5.704   5.585   6.990 -2.5687  2.8584 -0.1969
   11SAPS   C37 1427   5.790   5.759   7.073  0.1521 -0.3389  0.2920
   11SAPS   H7X 1428   5.716   5.840   7.056  0.2363 -0.3480 -0.1303
   11SAPS   H7Y 1429   5.893   5.799   7.068  0.3433 -0.8141  0.3559
   11SAPS   C38 1430   5.771   5.706   7.214 -0.3273 -0.2071  0.3724
   11SAPS   H8X 1431   5.815   5.605   7.212 -1.2947 -0.6521  0.8156
   11SAPS   H8Y 1432   5.661   5.697   7.228 -0.4500  2.5491  1.9380
   11SAPS   C39 1433   5.821   5.789   7.327 -0.5743  0.3742  0.5164
   11SAPS   H9X 1434   5.760   5.881   7.338  0.9854  1.5204 -0.0796
   11SAPS   H9Y 1435   5.928   5.818   7.312  0.2997 -2.3976  0.8116
   11SAPS  C310 1436   5.807   5.713   7.462 -0.1256 -0.5762 -0.7813
   11SAPS  H10X 1437   5.868   5.620   7.465 -0.6988 -0.9345  0.8094
   11SAPS  H10Y 1438   5.704   5.676   7.482 -0.9103  2.1301  0.6330
   11SAPS  C311 1439   5.846   5.813   7.577  0.3308  0.2336 -0.9278
   11SAPS  H11X 1440   5.803   5.915   7.564 -1.0618  0.3836  3.3965
   11SAPS  H11Y 1441   5.957   5.814   7.585  0.1930 -0.6687  3.1247
   11SAPS  C312 1442   5.807   5.758   7.716  0.0216 -0.5409  0.0198
   11SAPS  H12X 1443   5.847   5.658   7.741 -2.0138 -0.8798  2.3987
   11SAPS  H12Y 1444   5.696   5.754   7.709 -0.0191  1.0788 -0.7860
   11SAPS  C313 1445   5.821   5.863   7.835 -0.1098  0.0109 -0.0920
   11SAPS  H13X 1446   5.786   5.962   7.800  0.5418  1.1908  2.3717
   11SAPS  H13Y 1447   5.924   5.865   7.875 -0.3604  2.0456  0.5673
   11SAPS  C314 1448   5.718   5.834   7.949  0.0591 -0.0744 -0.2094
   11SAPS  H14X 1449   5.737   5.740   8.004 -0.5884  0.0755  0.2748
   11SAPS  H14Y 1450   5.624   5.827   7.891  0.0002 -0.4484 -0.0689
   11SAPS  C315 1451   5.690   5.945   8.054  0.5882 -0.2483  0.1414
   11SAPS  H15X 1452   5.610   5.903   8.118 -1.8409  0.7317 -2.1176
   11SAPS  H15Y 1453   5.657   6.040   8.007  1.4680 -1.0729 -2.2943
   11SAPS  C316 1454   5.825   5.959   8.116 -0.0408 -0.1269  0.3973
   11SAPS  H16X 1455   5.899   6.018   8.058  2.2208 -0.6792  2.5317
   11SAPS  H16Y 1456   5.870   5.859   8.130  0.2025 -0.0189  0.3974
   11SAPS  C317 1457   5.813   6.029   8.257 -0.6753 -0.0983 -0.0150
   11SAPS  H17X 1458   5.745   6.116   8.244 -1.6472 -1.1349 -2.6704
   11SAPS  H17Y 1459   5.917   6.057   8.287  0.0551 -2.6744  0.1195
   11SAPS  C318 1460   5.765   5.931   8.365 -0.2498  0.7070  0.5083
   11SAPS  H18X 1461   5.805   5.830   8.339 -1.0876  0.4190  0.3223
   11SAPS  H18Y 1462   5.655   5.917   8.368 -0.2397  0.5456  0.1927
   11SAPS  H18Z 1463   5.785   5.964   8.469 -1.6684  0.4498  0.8742
   12SAPS     N 1464   6.726   6.502   6.147 -0.6003 -0.1255  0.7611
   12SAPS   HN1 1465   6.764   6.434   6.216 -1.9148 -1.4791  0.2130
   12SAPS   HN2 1466   6.806   6.543   6.094 -2.4109 -0.2790 -2.3282
   12SAPS   HN3 1467   6.675   6.583   6.188  0.9842  2.0873 -1.3354
   12SAPS   C12 1468   6.636   6.423   6.042 -0.1085  0.4304  0.2989
   12SAPS  H12A 1469   6.567   6.356   6.093  2.0386 -0.3574  2.3749
   12SAPS   C13 1470   6.553   6.504   5.944 -0.2582  0.6013 -0.3094
   12SAPS  O13A 1471   6.585   6.626   5.918  0.2364 -0.2294 -0.7576
   12SAPS  O13B 1472   6.491   6.443   5.852  0.4143 -0.0697  0.0211
   12SAPS   C11 1473   6.731   6.330   5.962 -0.0550 -0.1140  0.0093
   12SAPS  H11A 1474   6.773   6.392   5.880 -2.0258  0.4255 -0.6481
   12SAPS  H11B 1475   6.670   6.248   5.920 -1.1638  0.1501  1.0328
   12SAPS     P 1476   6.956   6.181   5.999 -0.0443 -0.0816 -0.0074
   12SAPS   O13 1477   6.906   6.071   5.914  0.3374  0.8492 -0.4886
   12SAPS   O14 1478   7.063   6.265   5.940 -0.2842  0.7398 -0.0748
   12SAPS   O12 1479   6.841   6.278   6.042  0.3927  0.1426  0.5455
   12SAPS   O11 1480   7.019   6.129   6.126  0.4321 -0.8533 -0.4859
   12SAPS    C1 1481   6.936   6.046   6.210 -0.5663  0.0679  0.4954
   12SAPS    HA 1482   6.863   5.984   6.154 -0.1249  0.3218 -0.3764
   12SAPS    HB 1483   7.002   5.980   6.269  1.0348  1.8638  0.8231
   12SAPS    C2 1484   6.848   6.126   6.307  0.7362  0.1225  0.4786
   12SAPS    HS 1485   6.780   6.196   6.254 -0.0230  0.5277  1.9357
   12SAPS   O21 1486   6.930   6.183   6.405 -0.2624 -0.7295  0.4020
   12SAPS   C21 1487   6.913   6.322   6.419 -0.3362  0.7590 -0.2125
   12SAPS   O22 1488   6.825   6.384   6.364 -0.3450  0.5178 -0.2038
   12SAPS   C22 1489   7.008   6.377   6.522 -0.1087 -0.4301 -0.6408
   12SAPS   H2R 1490   7.003   6.315   6.614  1.1843  0.0538 -0.2087
   12SAPS   H2S 1491   7.111   6.365   6.481 -1.4138 -1.6197 -3.9795
   12SAPS    C3 1492   6.769   6.021   6.376 -0.1845 -0.4472 -1.5172
   12SAPS    HX 1493   6.850   5.961   6.423  2.2740  3.0192 -0.9801
   12SAPS    HY 1494   6.713   5.953   6.308 -1.3531 -2.2955  1.1063
   12SAPS   O31 1495   6.686   6.070   6.485  0.0121  0.3899  0.4426
   12SAPS   C31 1496   6.575   6.130   6.444 -0.5147  0.2507  0.2311
   12SAPS   O32 1497   6.544   6.144   6.328 -0.0788 -0.4207 -0.5022
   12SAPS   C32 1498   6.492   6.161   6.565 -0.3188  0.4137 -0.3944
   12SAPS   H2X 1499   6.549   6.128   6.655  2.7277 -2.0470 -2.9857
   12SAPS   H2Y 1500   6.399   6.100   6.564 -1.3609  1.8969  0.6951
   12SAPS   C23 1501   6.978   6.527   6.543  0.1903 -0.0755  0.1000
   12SAPS   H3R 1502   6.874   6.543   6.579 -1.3850 -0.0199 -3.9475
   12SAPS   H3S 1503   6.970   6.574   6.443 -0.7540 -0.9385 -0.2443
   12SAPS   C24 1504   7.080   6.591   6.624 -0.3882 -0.3229 -0.0076
   12SAPS   H4R 1505   7.065   6.700   6.637  0.0083 -0.4364  1.5750
   12SAPS   H4S 1506   7.177   6.570   6.574 -0.4925  0.5769 -0.5989
   12SAPS   C25 1507   7.102   6.540   6.764 -0.2469 -0.4248  0.2741
   12SAPS   H5R 1508   7.010   6.545   6.825  0.0897  1.1236  0.6999
   12SAPS   C26 1509   7.213   6.505   6.823  0.2480  0.8779 -0.2239
   12SAPS   H6R 1510   7.210   6.466   6.926  3.4541 -1.1968 -0.7702
   12SAPS   C27 1511   7.344   6.498   6.759  0.1937 -0.6529  0.0686
   12SAPS   H7R 1512   7.380   6.591   6.710 -2.2515 -1.7938 -4.3888
   12SAPS   H7S 1513   7.343   6.417   6.683  0.7875 -2.4342  1.8840
   12SAPS   C28 1514   7.457   6.470   6.857  0.6210  0.8593  0.1382
   12SAPS   H8R 1515   7.483   6.365   6.875  3.1707  1.8928  3.4687
   12SAPS   C29 1516   7.517   6.556   6.940 -0.4659  0.3342  0.1658
   12SAPS   H9R 1517   7.597   6.511   7.000 -0.8630  1.2088  1.4011
   12SAPS  C210 1518   7.509   6.703   6.951  0.6721  0.4276 -0.4495
   12SAPS  H10R 1519   7.499   6.728   7.058  0.5231 -1.3665 -0.0080
   12SAPS  H10S 1520   7.416   6.744   6.906 -2.0860 -3.3599  1.2508
   12SAPS  C211 1521   7.631   6.768   6.892  0.2325  0.3649 -0.4798
   12SAPS  H11R 1522   7.650   6.726   6.792 -2.1505 -3.4277  0.4475
   12SAPS  C212 1523   7.724   6.842   6.951  0.2541 -0.5159 -0.2658
   12SAPS  H12R 1524   7.815   6.875   6.898  0.4281 -0.7835 -0.1395
   12SAPS  C213 1525   7.719   6.887   7.096 -0.1684 -0.3060  0.2560
   12SAPS  H13R 1526   7.770   6.808   7.156  0.2733  0.7611  1.3371
   12SAPS  H13S 1527   7.612   6.907   7.120 -0.0280 -0.9686  1.5423
   12SAPS  C214 1528   7.802   7.018   7.102  0.7990 -0.0727 -0.1274
   12SAPS  H14R 1529   7.789   7.088   7.018  2.0155  0.7750  0.3729
   12SAPS  C215 1530   7.876   7.059   7.210 -0.1806  0.2741  0.0296
   12SAPS  H15R 1531   7.946   7.140   7.185 -0.0484  0.1357 -0.0504
   12SAPS  C216 1532   7.886   6.979   7.339  0.5214  0.0358 -0.4358
   12SAPS  H16R 1533   7.812   6.898   7.354  0.9635 -0.0700  1.3577
   12SAPS  H16S 1534   7.845   7.053   7.411  0.2071  1.3011 -1.8476
   12SAPS  C217 1535   8.026   6.924   7.379  0.9048 -0.3654 -0.1428
   12SAPS  H17R 1536   8.056   6.873   7.285 -4.1788 -0.5340 -2.0059
   12SAPS  H17S 1537   8.009   6.848   7.458 -2.2770  1.9096  1.5658
   12SAPS  C218 1538   8.127   7.030   7.440  0.0544  0.0428 -0.3360
   12SAPS  H18R 1539   8.067   7.079   7.521 -1.8038 -0.8981 -1.0931
   12SAPS  H18S 1540   8.160   7.112   7.373 -0.4003  0.6417  0.1552
   12SAPS  C219 1541   8.247   6.957   7.507 -0.2603 -0.7137 -0.3032
   12SAPS  H19R 1542   8.254   6.864   7.446 -2.2247 -1.3029  0.2981
   12SAPS  H19S 1543   8.230   6.920   7.610  0.7160 -3.0959 -0.9076
   12SAPS  C220 1544   8.379   7.031   7.491  0.0173  0.4443  0.3431
   12SAPS  H20R 1545   8.463   6.970   7.530 -0.5709 -0.7917 -0.2396
   12SAPS  H20S 1546   8.390   7.127   7.545  2.8016  0.1837  0.3727
   12SAPS  H20T 1547   8.391   7.054   7.383  1.7549 -0.4889  0.3035
   12SAPS   C33 1548   6.455   6.313   6.566  0.5118 -0.5047  0.2138
   12SAPS   H3X 1549   6.367   6.322   6.633  0.7671 -0.3350  0.5326
   12SAPS   H3Y 1550   6.423   6.349   6.466 -2.6526 -1.5920  0.7228
   12SAPS   C34 1551   6.576   6.392   6.614 -0.6676 -0.1105 -0.6591
   12SAPS   H4X 1552   6.547   6.499   6.620  0.3500  0.1261  0.3847
   12SAPS   H4Y 1553   6.664   6.378   6.547  0.0149  0.3565  0.1302
   12SAPS   C35 1554   6.627   6.363   6.760  0.4911  0.2186 -0.0295
   12SAPS   H5X 1555   6.705   6.284   6.762  0.2833 -0.2555 -3.6524
   12SAPS   H5Y 1556   6.538   6.335   6.821  0.2617  0.5943 -0.1885
   12SAPS   C36 1557   6.678   6.490   6.840  0.7332  0.6672  0.7076
   12SAPS   H6X 1558   6.604   6.573   6.838  0.7162  0.6614  1.0276
   12SAPS   H6Y 1559   6.766   6.539   6.793  1.9166 -0.2169  1.9196
   12SAPS   C37 1560   6.739   6.451   6.980  0.0177 -0.3621  0.1916
   12SAPS   H7X 1561   6.811   6.366   6.977  0.0536 -0.3155 -0.6185
   12SAPS   H7Y 1562   6.652   6.411   7.036  0.0399 -1.2555 -0.3862
   12SAPS   C38 1563   6.789   6.570   7.054  0.0790 -0.1326 -0.9805
   12SAPS   H8X 1564   6.708   6.645   7.057  1.0787  0.9405  0.7440
   12SAPS   H8Y 1565   6.866   6.617   6.989  0.2119  1.1305  0.0557
   12SAPS   C39 1566   6.859   6.538   7.189 -0.3652 -0.0147  0.2380
   12SAPS   H9X 1567   6.912   6.633   7.214 -0.5413  0.6447 -1.7514
   12SAPS   H9Y 1568   6.942   6.467   7.170 -0.0521  0.5726 -0.6364
   12SAPS  C310 1569   6.761   6.510   7.300  0.5856  0.2100  0.0583
   12SAPS  H10X 1570   6.717   6.411   7.273  2.5615 -0.8956  0.6599
   12SAPS  H10Y 1571   6.674   6.578   7.301 -0.1043 -0.6299 -0.8706
   12SAPS  C311 1572   6.829   6.482   7.433  0.8389 -0.3164 -0.1621
   12SAPS  H11X 1573   6.916   6.414   7.414  1.5066  0.1605  1.0696
   12SAPS  H11Y 1574   6.760   6.447   7.512  0.0418  2.1798  0.3329
   12SAPS  C312 1575   6.884   6.613   7.487 -0.7491  0.1938 -0.7667
   12SAPS  H12X 1576   6.799   6.682   7.508 -1.5867 -0.8518 -0.6425
   12SAPS  H12Y 1577   6.958   6.661   7.420  2.0327 -0.1615  1.8243
   12SAPS  C313 1578   6.969   6.601   7.621  0.0648 -0.3171  0.7894
   12SAPS  H13X 1579   7.027   6.506   7.619  0.3972 -0.1027  0.0379
   12SAPS  H13Y 1580   6.891   6.599   7.700 -2.4323  0.9657 -1.4869
   12SAPS  C314 1581   7.048   6.723   7.646 -0.3746 -0.2745 -1.1146
   12SAPS  H14X 1582   6.974   6.803   7.666 -2.6746 -2.5332 -0.0354
   12SAPS  H14Y 1583   7.108   6.747   7.556 -1.4537 -2.3624 -2.4824
   12SAPS  C315 1584   7.139   6.723   7.774  0.2468 -0.4956 -0.4668
   12SAPS  H15X 1585   7.075   6.674   7.851 -0.4409 -1.2007 -1.4494
   12SAPS  H15Y 1586   7.152   6.826   7.813  0.7907 -1.2319  1.4482
   12SAPS  C316 1587   7.274   6.644   7.776  0.5593 -0.4940  0.7467
   12SAPS  H16X 1588   7.337   6.694   7.699  0.2771  1.6235  1.7974
   12SAPS  H16Y 1589   7.261   6.535   7.759 -1.5459 -0.4551  1.7358
   12SAPS  C317 1590   7.360   6.663   7.896 -0.1232  0.2997 -0.0731
   12SAPS  H17X 1591   7.306   6.614   7.980 -0.6589 -1.3473 -1.3222
   12SAPS  H17Y 1592   7.378   6.768   7.928 -2.1003  0.1149  1.9146
   12SAPS  C318 1593   7.493   6.604   7.882 -0.7593 -0.1565  0.0483
   12SAPS  H18X 1594   7.494   6.495   7.865  2.9173 -0.1199 -0.7895
   12SAPS  H18Y 1595   7.555   6.614   7.973 -2.3221 -0.0754  1.1565
   12SAPS  H18Z 1596   7.551   6.653   7.801 -0.9937 -0.1857 -0.1395
   13SAPS     N 1597   6.431   4.907   6.341 -0.0037  0.2102  0.2786
   13SAPS   HN1 1598   6.368   4.850   6.401 -1.0557  0.2661 -0.7335
   13SAPS   HN2 1599   6.523   4.901   6.389  0.0268 -0.8239  0.1095
   13SAPS   HN3 1600   6.410   5.007   6.318  0.4684  0.0554 -0.9252
   13SAPS   C12 1601   6.459   4.837   6.211  0.3260 -0.3263  0.0019
   13SAPS  H12A 1602   6.363   4.823   6.162  0.2264  0.0649  0.0857
   13SAPS   C13 1603   6.539   4.916   6.105 -0.3645 -0.3408 -0.0344
   13SAPS  O13A 1604   6.580   5.037   6.123 -0.4015  0.1355  0.0700
   13SAPS  O13B 1605   6.557   4.853   5.998  0.2620  0.1263 -0.1396
   13SAPS   C11 1606   6.531   4.701   6.247 -0.3469  0.0042  0.3734
   13SAPS  H11A 1607   6.635   4.721   6.281  0.1588  0.4411 -1.3469
   13SAPS  H11B 1608   6.550   4.647   6.152  2.1383  0.9031  0.2919
   13SAPS     P 1609   6.504   4.476   6.379 -0.1428  0.5547 -0.0143
   13SAPS   O13 1610   6.395   4.388   6.331  0.0245 -0.2063  0.3181
   13SAPS   O14 1611   6.638   4.453   6.328 -0.1452  0.5920 -0.1015
   13SAPS   O12 1612   6.460   4.625   6.347  0.7683 -0.2068  0.1940
   13SAPS   O11 1613   6.495   4.493   6.538 -0.2525  0.3996  0.8570
   13SAPS    C1 1614   6.609   4.544   6.605 -0.6758  0.0018  0.5985
   13SAPS    HA 1615   6.694   4.472   6.606 -1.4581 -0.9423  0.4779
   13SAPS    HB 1616   6.651   4.634   6.555  0.3916  1.0913  3.2660
   13SAPS    C2 1617   6.585   4.584   6.749  0.3204 -0.8832 -0.7358
   13SAPS    HS 1618   6.678   4.605   6.806 -1.2094 -2.3806  2.5381
   13SAPS   O21 1619   6.518   4.471   6.815 -0.4996  0.3523  0.5322
   13SAPS   C21 1620   6.605   4.382   6.868 -0.1710  0.4315 -0.7718
   13SAPS   O22 1621   6.726   4.383   6.851  0.1880  0.5624  0.2784
   13SAPS   C22 1622   6.523   4.286   6.954  0.3997  0.7302  0.0514
   13SAPS   H2R 1623   6.413   4.300   6.943 -0.0227 -1.5725  0.8272
   13SAPS   H2S 1624   6.538   4.183   6.916  0.4623 -0.0119  1.9404
   13SAPS    C3 1625   6.501   4.717   6.769  0.4761 -0.2363  0.0402
   13SAPS    HX 1626   6.405   4.702   6.716  0.6033  2.1778 -1.0255
   13SAPS    HY 1627   6.559   4.799   6.719  0.0330 -1.4305 -2.6337
   13SAPS   O31 1628   6.467   4.750   6.908  0.1532 -0.2653  0.3476
   13SAPS   C31 1629   6.533   4.847   6.967 -0.4292  0.5340  0.7605
   13SAPS   O32 1630   6.622   4.914   6.916 -0.0055  0.8196  0.6635
   13SAPS   C32 1631   6.453   4.886   7.098 -0.2758  0.2208 -0.6558
   13SAPS   H2X 1632   6.407   4.793   7.138  0.0545 -0.0039 -0.7945
   13SAPS   H2Y 1633   6.367   4.946   7.061  0.4606 -0.4580 -3.7064
   13SAPS   C23 1634   6.569   4.285   7.097  1.1665 -0.0054 -0.1700
   13SAPS   H3R 1635   6.675   4.263   7.118  0.8576 -0.6364  0.8223
   13SAPS   H3S 1636   6.527   4.195   7.146 -0.8050  0.5504 -0.7442
   13SAPS   C24 1637   6.515   4.408   7.173 -0.0818 -0.4452  0.2906
   13SAPS   H4R 1638   6.498   4.377   7.278 -0.9415  1.5455  0.7924
   13SAPS   H4S 1639   6.419   4.444   7.132 -0.8133 -2.8020 -0.2286
   13SAPS   C25 1640   6.611   4.525   7.176  0.4664 -0.4359 -0.0725
   13SAPS   H5R 1641   6.655   4.551   7.078  2.3218 -1.9924  0.2796
   13SAPS   C26 1642   6.660   4.595   7.282 -0.6610 -0.5963 -0.5313
   13SAPS   H6R 1643   6.744   4.664   7.260  0.9131 -2.6427 -1.3278
   13SAPS   C27 1644   6.626   4.565   7.430  0.0403 -0.1131 -0.4070
   13SAPS   H7R 1645   6.557   4.478   7.443 -0.5146  0.2940 -0.5653
   13SAPS   H7S 1646   6.567   4.648   7.474  0.6894 -0.7519  1.8401
   13SAPS   C28 1647   6.761   4.550   7.509 -0.3384 -0.9456  0.3324
   13SAPS   H8R 1648   6.842   4.493   7.461  1.4383 -0.6691  2.8236
   13SAPS   C29 1649   6.792   4.609   7.630 -0.2009 -0.0777 -0.2219
   13SAPS   H9R 1650   6.886   4.575   7.677 -0.1245 -0.2889 -0.5244
   13SAPS  C210 1651   6.704   4.687   7.725 -0.0962  0.7955 -0.5479
   13SAPS  H10R 1652   6.631   4.750   7.670 -0.0158  0.6048 -0.8799
   13SAPS  H10S 1653   6.759   4.751   7.797 -0.7058  1.2681 -0.4997
   13SAPS  C211 1654   6.621   4.583   7.809 -0.7975  0.3907 -0.7377
   13SAPS  H11R 1655   6.609   4.481   7.769  1.3786 -0.5707  0.7841
   13SAPS  C212 1656   6.581   4.603   7.935 -0.1154  0.1623 -0.6504
   13SAPS  H12R 1657   6.521   4.529   7.990  0.7588  1.6667  2.5828
   13SAPS  C213 1658   6.603   4.723   8.033 -0.2996  0.0478  0.1033
   13SAPS  H13R 1659   6.507   4.777   8.050 -1.0766 -1.4660  0.7716
   13SAPS  H13S 1660   6.672   4.796   7.986  0.8047 -1.0060  0.0413
   13SAPS  C214 1661   6.659   4.689   8.167 -0.1393  0.0605  0.0635
   13SAPS  H14R 1662   6.723   4.601   8.156 -0.8307 -0.9058  2.8855
   13SAPS  C215 1663   6.633   4.736   8.285  0.0661 -0.1857 -0.2259
   13SAPS  H15R 1664   6.695   4.694   8.366  1.6627  0.4994 -1.0563
   13SAPS  C216 1665   6.537   4.854   8.331  0.3849  0.1062  0.4611
   13SAPS  H16R 1666   6.430   4.831   8.349  0.0309  1.6167  0.4535
   13SAPS  H16S 1667   6.522   4.925   8.247 -0.4319  1.1831  1.4807
   13SAPS  C217 1668   6.590   4.928   8.455  0.6717  0.1079 -0.2975
   13SAPS  H17R 1669   6.584   4.859   8.542 -3.5553 -0.1658 -0.5804
   13SAPS  H17S 1670   6.517   5.007   8.482  0.8728 -0.1083  0.9406
   13SAPS  C218 1671   6.728   4.987   8.444  0.0653 -0.5107 -0.7274
   13SAPS  H18R 1672   6.719   5.055   8.357 -0.2001 -0.3776 -0.5967
   13SAPS  H18S 1673   6.805   4.911   8.415 -0.0799 -1.2189  0.6591
   13SAPS  C219 1674   6.762   5.062   8.572 -0.0784 -0.1115  0.2804
   13SAPS  H19R 1675   6.777   4.980   8.645 -1.4957  0.1150  0.8727
   13SAPS  H19S 1676   6.678   5.126   8.606 -0.0413 -0.8391  1.8409
   13SAPS  C220 1677   6.893   5.146   8.556 -1.1316 -0.2195  0.1280
   13SAPS  H20R 1678   6.873   5.229   8.484  0.7970  0.3785  0.2156
   13SAPS  H20S 1679   6.981   5.086   8.525 -2.6305 -2.4731  0.0226
   13SAPS  H20T 1680   6.912   5.194   8.654 -0.3681 -1.5956  0.6756
   13SAPS   C33 1681   6.540   4.966   7.202 -0.1123  0.8519 -0.4543
   13SAPS   H3X 1682   6.545   5.072   7.168 -1.7972  1.1548  0.1072
   13SAPS   H3Y 1683   6.638   4.915   7.210 -0.3286  0.6216  1.0544
   13SAPS   C34 1684   6.487   4.968   7.352  0.4246 -0.3561 -0.4298
   13SAPS   H4X 1685   6.491   4.868   7.400 -0.3693 -0.4374 -0.5184
   13SAPS   H4Y 1686   6.379   4.995   7.348  0.2524 -0.9259  0.2307
   13SAPS   C35 1687   6.570   5.059   7.437 -0.0173  0.6304  0.0487
   13SAPS   H5X 1688   6.563   5.160   7.392 -1.3747  1.2350  1.5187
   13SAPS   H5Y 1689   6.677   5.029   7.433  0.3921  2.0930 -0.5109
   13SAPS   C36 1690   6.511   5.061   7.575 -0.3187  0.3107 -0.6554
   13SAPS   H6X 1691   6.493   4.955   7.603  0.8358  0.8383  2.5292
   13SAPS   H6Y 1692   6.412   5.111   7.569 -2.4959 -3.3590  1.0210
   13SAPS   C37 1693   6.583   5.132   7.687 -0.0936 -0.0999  0.4816
   13SAPS   H7X 1694   6.629   5.227   7.652 -0.2210 -0.1008  0.3111
   13SAPS   H7Y 1695   6.663   5.068   7.731 -0.4279 -2.8140 -2.5191
   13SAPS   C38 1696   6.486   5.169   7.803 -0.0382 -0.6360 -0.5348
   13SAPS   H8X 1697   6.433   5.071   7.811  0.5873 -1.4569 -4.2891
   13SAPS   H8Y 1698   6.409   5.240   7.766 -0.8209 -1.1483  0.0789
   13SAPS   C39 1699   6.543   5.209   7.930  0.5512 -1.0758 -0.4878
   13SAPS   H9X 1700   6.576   5.315   7.922  0.1387 -1.0001 -1.2380
   13SAPS   H9Y 1701   6.632   5.148   7.958  1.4677  0.9579  1.3839
   13SAPS  C310 1702   6.455   5.197   8.057 -0.1519 -0.0712  0.1521
   13SAPS  H10X 1703   6.441   5.094   8.096  0.5359  0.7362  2.7430
   13SAPS  H10Y 1704   6.356   5.242   8.033  0.7626  0.9645 -1.8630
   13SAPS  C311 1705   6.516   5.269   8.179  0.7748 -0.6934  0.0962
   13SAPS  H11X 1706   6.522   5.375   8.146 -1.3102 -1.2501 -2.3965
   13SAPS  H11Y 1707   6.618   5.231   8.202  0.2756 -2.4015 -0.3696
   13SAPS  C312 1708   6.432   5.277   8.306  0.0346  0.0372 -0.1354
   13SAPS  H12X 1709   6.410   5.175   8.345 -3.2412 -0.4823 -2.8492
   13SAPS  H12Y 1710   6.331   5.318   8.284  0.1815 -0.0865 -1.0958
   13SAPS  C313 1711   6.503   5.366   8.413 -0.2024  0.1749 -0.8192
   13SAPS  H13X 1712   6.531   5.467   8.377 -2.3303  0.3994 -2.0236
   13SAPS  H13Y 1713   6.591   5.302   8.435  1.0186  1.9504 -0.2514
   13SAPS  C314 1714   6.431   5.379   8.552 -0.4070 -0.3195 -0.2698
   13SAPS  H14X 1715   6.410   5.276   8.587  0.0411 -0.7123 -1.1269
   13SAPS  H14Y 1716   6.334   5.432   8.544 -0.9874 -1.3426 -0.1099
   13SAPS  C315 1717   6.523   5.452   8.650 -0.6420 -0.7869  0.2680
   13SAPS  H15X 1718   6.627   5.427   8.622 -0.3668  0.5915  0.0299
   13SAPS  H15Y 1719   6.495   5.423   8.754 -1.8860  2.7539  1.0480
   13SAPS  C316 1720   6.516   5.601   8.671  0.6450 -0.3405 -0.0536
   13SAPS  H16X 1721   6.409   5.629   8.680  0.8302  1.7387 -3.0288
   13SAPS  H16Y 1722   6.540   5.657   8.579  0.3376 -1.9266 -1.1409
   13SAPS  C317 1723   6.608   5.666   8.777  0.1295 -0.0796 -0.7206
   13SAPS  H17X 1724   6.709   5.622   8.765  0.1453 -0.5821  0.9677
   13SAPS  H17Y 1725   6.587   5.628   8.880 -1.9180  3.3580  0.3128
   13SAPS  C318 1726   6.600   5.818   8.777  0.3190  0.0380  0.0740
   13SAPS  H18X 1727   6.639   5.853   8.679 -1.5344  0.3599 -0.5833
   13SAPS  H18Y 1728   6.652   5.867   8.863  0.9748  0.6387 -0.6459
   13SAPS  H18Z 1729   6.495   5.853   8.777  0.5897  0.9363 -1.1382
   14SAPS     N 1730   5.557   6.118   5.756 -0.2783  0.4864 -0.0400
   14SAPS   HN1 1731   5.520   6.169   5.839 -0.8949 -1.8379  1.2125
   14SAPS   HN2 1732   5.585   6.022   5.785  1.2093  1.5519  2.3534
   14SAPS   HN3 1733   5.639   6.175   5.726 -0.4312  0.6234 -0.1949
   14SAPS   C12 1734   5.459   6.121   5.644  0.0767  0.5716 -0.1804
   14SAPS  H12A 1735   5.390   6.191   5.686  2.0364  1.4014  1.8719
   14SAPS   C13 1736   5.529   6.163   5.517 -0.2038  0.2750  0.0244
   14SAPS  O13A 1737   5.656   6.174   5.510  0.5618  0.0617 -0.8712
   14SAPS  O13B 1738   5.460   6.196   5.413 -0.8040  0.1756 -0.5229
   14SAPS   C11 1739   5.391   5.991   5.626 -0.2010  0.4172  0.6798
   14SAPS  H11A 1740   5.461   5.916   5.583 -0.8347  0.1253  0.1396
   14SAPS  H11B 1741   5.310   6.000   5.551  0.8799 -0.7220 -0.6666
   14SAPS     P 1742   5.199   5.976   5.824 -0.3672 -0.1657  0.2980
   14SAPS   O13 1743   5.166   6.112   5.783  0.5320 -1.0453  0.2255
   14SAPS   O14 1744   5.108   5.863   5.795  0.1238 -0.3684 -0.5094
   14SAPS   O12 1745   5.338   5.942   5.754  0.5734  0.6238 -0.0614
   14SAPS   O11 1746   5.226   5.983   5.984 -0.2273  0.1269 -0.1145
   14SAPS    C1 1747   5.333   5.894   6.028 -0.0973 -0.1670  0.5887
   14SAPS    HA 1748   5.345   5.801   5.969  0.6814 -1.3675  2.5100
   14SAPS    HB 1749   5.426   5.954   6.020 -1.0725  1.2658 -0.4268
   14SAPS    C2 1750   5.305   5.858   6.177 -0.0866  0.0716  0.8592
   14SAPS    HS 1751   5.231   5.777   6.163 -0.0926  0.0566  0.9766
   14SAPS   O21 1752   5.259   5.965   6.262  0.3351  0.1552  0.0077
   14SAPS   C21 1753   5.155   5.942   6.343  0.1634 -0.0157  0.1465
   14SAPS   O22 1754   5.098   5.833   6.358  0.2990 -0.6679  0.1699
   14SAPS   C22 1755   5.120   6.071   6.420  0.1234 -0.5858 -0.2039
   14SAPS   H2R 1756   5.197   6.091   6.497  0.2682  0.1095 -0.5197
   14SAPS   H2S 1757   5.118   6.155   6.347 -1.7591 -1.6619 -1.4932
   14SAPS    C3 1758   5.438   5.792   6.229  0.9791  0.0785  0.4038
   14SAPS    HX 1759   5.490   5.882   6.270  1.1159  1.2452 -2.1351
   14SAPS    HY 1760   5.495   5.750   6.144 -0.6588 -0.9017 -0.2452
   14SAPS   O31 1761   5.406   5.695   6.337  0.2456  0.1345 -0.5672
   14SAPS   C31 1762   5.483   5.596   6.341 -0.4292 -0.6511 -0.6146
   14SAPS   O32 1763   5.589   5.580   6.278 -0.1584  0.3356 -0.3367
   14SAPS   C32 1764   5.445   5.500   6.458 -0.1197 -0.3955 -0.0470
   14SAPS   H2X 1765   5.423   5.398   6.419  0.3591  0.2375 -2.1106
   14SAPS   H2Y 1766   5.353   5.537   6.507  0.1992  0.2861  0.0525
   14SAPS   C23 1767   4.979   6.075   6.484  0.2792  0.6870 -0.6047
   14SAPS   H3R 1768   4.910   6.051   6.400  0.9479  0.6702 -1.1586
   14SAPS   H3S 1769   4.953   6.176   6.521 -3.7351 -0.4228  0.1216
   14SAPS   C24 1770   4.953   5.972   6.600 -0.3929  0.4040  0.4875
   14SAPS   H4R 1771   4.973   5.867   6.570  0.4312  0.5461  0.4972
   14SAPS   H4S 1772   4.844   5.975   6.620 -0.1283 -0.4887  2.2716
   14SAPS   C25 1773   5.040   6.016   6.718  0.5078 -0.3240 -0.7503
   14SAPS   H5R 1774   5.005   6.107   6.769  2.0503 -0.1377  0.0354
   14SAPS   C26 1775   5.156   5.953   6.755  1.1597 -0.0413 -0.3424
   14SAPS   H6R 1776   5.215   6.008   6.829 -1.0411  0.9681  0.7375
   14SAPS   C27 1777   5.215   5.839   6.684  0.3111  1.3711 -0.4144
   14SAPS   H7R 1778   5.165   5.816   6.587  2.2973 -0.3602 -1.1024
   14SAPS   H7S 1779   5.183   5.749   6.741 -0.1993  1.2332 -0.9031
   14SAPS   C28 1780   5.367   5.836   6.670  0.7033  1.6125 -0.5445
   14SAPS   H8R 1781   5.415   5.827   6.572 -0.7970  0.3032 -1.1946
   14SAPS   C29 1782   5.442   5.823   6.779 -0.4838  0.3174  0.2859
   14SAPS   H9R 1783   5.551   5.817   6.761 -0.5234 -0.2167  0.2083
   14SAPS  C210 1784   5.401   5.805   6.929 -0.1382 -0.5523  0.3682
   14SAPS  H10R 1785   5.480   5.738   6.969  0.8903 -1.4195 -2.8033
   14SAPS  H10S 1786   5.305   5.749   6.941 -0.2886 -0.4456 -0.2951
   14SAPS  C211 1787   5.403   5.943   6.988 -0.3853 -0.1801  0.5365
   14SAPS  H11R 1788   5.424   6.033   6.928 -1.3974  1.1224  2.0545
   14SAPS  C212 1789   5.407   5.960   7.120 -0.2448  0.0283  0.4146
   14SAPS  H12R 1790   5.400   6.059   7.166 -1.3329 -1.1157  2.8949
   14SAPS  C213 1791   5.395   5.854   7.233  0.5479  0.5464  0.4640
   14SAPS  H13R 1792   5.503   5.838   7.255  0.5349 -2.8923 -1.2627
   14SAPS  H13S 1793   5.360   5.754   7.199 -0.1775  1.1046 -0.4471
   14SAPS  C214 1794   5.311   5.903   7.346 -0.0304 -0.2454 -0.7437
   14SAPS  H14R 1795   5.204   5.879   7.333  0.5568 -2.4622 -1.8958
   14SAPS  C215 1796   5.361   5.975   7.455 -0.1042 -0.7430  0.4170
   14SAPS  H15R 1797   5.294   6.004   7.537  0.4222  1.1034  0.2456
   14SAPS  C216 1798   5.508   6.009   7.478  0.6230  0.1953  0.1586
   14SAPS  H16R 1799   5.559   6.023   7.380  1.7198  0.6846  0.7848
   14SAPS  H16S 1800   5.559   5.931   7.539 -0.8222 -0.8463  0.0752
   14SAPS  C217 1801   5.537   6.147   7.554  0.6888  0.6382 -0.3866
   14SAPS  H17R 1802   5.469   6.229   7.523 -2.0599 -0.7098  1.6256
   14SAPS  H17S 1803   5.640   6.176   7.523  0.5277  0.2780 -1.2927
   14SAPS  C218 1804   5.512   6.133   7.705 -0.1573 -0.0195 -0.5752
   14SAPS  H18R 1805   5.534   6.030   7.739  2.6764  0.6954  0.0353
   14SAPS  H18S 1806   5.408   6.156   7.739  0.0049 -0.6522  0.3900
   14SAPS  C219 1807   5.605   6.226   7.781  0.7339 -0.2115  0.6853
   14SAPS  H19R 1808   5.708   6.187   7.767  0.9001 -0.0093  1.3363
   14SAPS  H19S 1809   5.578   6.212   7.888 -2.3113  0.0922  0.0487
   14SAPS  C220 1810   5.566   6.371   7.741  0.1716  0.8215 -0.4636
   14SAPS  H20R 1811   5.462   6.394   7.774  0.7705  0.2986  1.9189
   14SAPS  H20S 1812   5.589   6.401   7.636 -1.9890 -1.4065 -1.6824
   14SAPS  H20T 1813   5.634   6.433   7.803  0.1508  2.0026 -1.5776
   14SAPS   C33 1814   5.564   5.512   6.564 -0.1266  0.2333  0.4436
   14SAPS   H3X 1815   5.578   5.616   6.602  3.8733 -0.0771  0.2397
   14SAPS   H3Y 1816   5.664   5.490   6.521  0.2969  3.9948 -0.8495
   14SAPS   C34 1817   5.555   5.410   6.676 -0.1502  0.0584  1.1808
   14SAPS   H4X 1818   5.650   5.423   6.733  0.9256  2.2499 -0.9316
   14SAPS   H4Y 1819   5.552   5.302   6.651 -1.2925  0.6307 -1.5796
   14SAPS   C35 1820   5.440   5.441   6.774  0.4105 -0.0462  0.1312
   14SAPS   H5X 1821   5.336   5.427   6.737 -0.6489  2.5108  1.8022
   14SAPS   H5Y 1822   5.453   5.550   6.791 -1.9757  0.6022 -1.5904
   14SAPS   C36 1823   5.442   5.361   6.900  0.5227  0.4892  0.0548
   14SAPS   H6X 1824   5.548   5.356   6.934  1.5009  4.3291 -1.8341
   14SAPS   H6Y 1825   5.409   5.256   6.888  1.1338  0.2503  0.3684
   14SAPS   C37 1826   5.375   5.438   7.017  0.0179 -0.2898 -0.0512
   14SAPS   H7X 1827   5.264   5.441   7.022 -0.0294 -0.6508 -0.8147
   14SAPS   H7Y 1828   5.398   5.546   7.006  0.8237 -0.3087  1.1711
   14SAPS   C38 1829   5.432   5.388   7.154 -0.3477 -0.1197 -0.5167
   14SAPS   H8X 1830   5.541   5.409   7.144  0.2807 -2.1651  1.2767
   14SAPS   H8Y 1831   5.408   5.281   7.166 -0.4836 -0.1945 -1.4478
   14SAPS   C39 1832   5.388   5.467   7.278  0.2480  0.0421 -0.2894
   14SAPS   H9X 1833   5.278   5.452   7.285  0.5508 -1.5144  3.4335
   14SAPS   H9Y 1834   5.413   5.575   7.266  0.2649  0.2058  1.1179
   14SAPS  C310 1835   5.436   5.419   7.408 -0.2701  0.5032 -1.1475
   14SAPS  H10X 1836   5.546   5.400   7.405 -0.2637  0.5843 -1.4654
   14SAPS  H10Y 1837   5.381   5.324   7.428 -1.7439  1.8797  1.9684
   14SAPS  C311 1838   5.414   5.515   7.530 -0.5948  0.5163  0.4818
   14SAPS  H11X 1839   5.303   5.523   7.532 -0.7949 -1.4987 -0.5438
   14SAPS  H11Y 1840   5.473   5.608   7.516  0.3286  0.3187  2.6243
   14SAPS  C312 1841   5.447   5.460   7.671 -0.3972 -0.3017 -0.2748
   14SAPS  H12X 1842   5.558   5.449   7.671 -0.3563 -0.3844 -2.6031
   14SAPS  H12Y 1843   5.388   5.368   7.687 -0.6083  0.2295  2.5158
   14SAPS  C313 1844   5.410   5.549   7.788  0.0334 -0.2662  0.3656
   14SAPS  H13X 1845   5.301   5.567   7.771  0.4840  1.1453 -1.3027
   14SAPS  H13Y 1846   5.465   5.643   7.766  1.2367 -1.2490 -0.9559
   14SAPS  C314 1847   5.439   5.480   7.922 -0.5737  0.0638 -0.0253
   14SAPS  H14X 1848   5.545   5.467   7.951 -0.1713 -1.0183 -1.8348
   14SAPS  H14Y 1849   5.382   5.385   7.922  1.3728 -1.1556  0.2794
   14SAPS  C315 1850   5.379   5.573   8.035  0.3337  0.0962 -0.4403
   14SAPS  H15X 1851   5.277   5.587   7.994  0.1654 -0.5909 -0.2793
   14SAPS  H15Y 1852   5.434   5.669   8.028 -1.8513  1.4578  0.0069
   14SAPS  C316 1853   5.388   5.512   8.169  0.0716 -0.3132 -0.0633
   14SAPS  H16X 1854   5.490   5.487   8.204 -0.6020 -3.1120  0.1189
   14SAPS  H16Y 1855   5.339   5.412   8.172  0.2629 -0.4335 -0.7462
   14SAPS  C317 1856   5.318   5.601   8.271 -0.1139  0.5341  0.6274
   14SAPS  H17X 1857   5.210   5.602   8.244  0.0793  0.6385 -0.1813
   14SAPS  H17Y 1858   5.370   5.698   8.260  1.1174 -0.2645 -1.2046
   14SAPS  C318 1859   5.345   5.558   8.409 -0.8981 -0.1068 -0.3900
   14SAPS  H18X 1860   5.287   5.468   8.437  0.0020 -0.6001 -0.0443
   14SAPS  H18Y 1861   5.331   5.637   8.486  1.2829 -0.3706  0.3525
   14SAPS  H18Z 1862   5.454   5.537   8.417 -0.6141  1.4011 -0.0119
   15SAPS     N 1863   0.230   5.309   5.775  0.4056 -0.4487  0.3004
   15SAPS   HN1 1864   0.277   5.222   5.807 -0.6794 -0.5340  1.7760
   15SAPS   HN2 1865   0.258   5.321   5.676  0.1876 -3.2387 -0.1924
   15SAPS   HN3 1866   0.282   5.366   5.844  0.7083 -0.3016 -0.0474
   15SAPS   C12 1867   0.085   5.309   5.796 -0.1076 -0.2770  0.3813
   15SAPS  H12A 1868   0.045   5.385   5.730  0.5809 -0.0313  0.2402
   15SAPS   C13 1869   0.007   5.176   5.770  0.8189 -0.0045 -0.1519
   15SAPS  O13A 1870   0.064   5.067   5.739 -0.2603  0.0942 -0.2346
   15SAPS  O13B 1871  -0.118   5.167   5.790  0.2640  0.0629  0.2074
   15SAPS   C11 1872   0.045   5.349   5.941  0.3492  0.8801 -0.2630
   15SAPS  H11A 1873   0.116   5.288   6.001  0.5342 -1.3921 -2.6035
   15SAPS  H11B 1874  -0.060   5.324   5.968  0.3178 -0.2692 -1.3180
   15SAPS     P 1875  -0.050   5.571   6.032 -0.2061 -0.0820  0.3078
   15SAPS   O13 1876  -0.153   5.602   5.932 -0.0314 -0.4139  0.0410
   15SAPS   O14 1877  -0.092   5.493   6.150  0.3007 -0.0862 -0.1667
   15SAPS   O12 1878   0.072   5.490   5.964  0.2233  0.2409  0.1121
   15SAPS   O11 1879   0.030   5.703   6.082  0.4802 -0.5985  0.1964
   15SAPS    C1 1880   0.163   5.692   6.126  0.1746 -0.5328 -0.5170
   15SAPS    HA 1881   0.227   5.649   6.046 -0.5356  0.2480 -1.5315
   15SAPS    HB 1882   0.196   5.795   6.152 -2.5107 -0.2123  2.1750
   15SAPS    C2 1883   0.191   5.620   6.266 -0.3657  0.4874  0.1275
   15SAPS    HS 1884   0.183   5.511   6.246  2.1049  0.0983  0.8688
   15SAPS   O21 1885   0.092   5.671   6.359 -0.0838 -0.1588  0.3008
   15SAPS   C21 1886   0.072   5.597   6.469 -0.3732 -0.7239  0.4151
   15SAPS   O22 1887   0.091   5.481   6.480 -0.5770  0.5427 -0.3360
   15SAPS   C22 1888   0.012   5.684   6.585 -0.0799  0.4350 -0.0957
   15SAPS   H2R 1889   0.028   5.613   6.669 -0.9295 -0.2052 -0.4561
   15SAPS   H2S 1890   0.074   5.775   6.597 -0.3377  0.6472 -0.3652
   15SAPS    C3 1891   0.336   5.644   6.320 -0.2114  0.5626  0.3885
   15SAPS    HX 1892   0.411   5.607   6.248 -0.1963 -1.2687  1.2865
   15SAPS    HY 1893   0.338   5.595   6.420 -1.7446 -0.1652  0.0920
   15SAPS   O31 1894   0.359   5.788   6.329 -0.3619 -0.3057 -0.8449
   15SAPS   C31 1895   0.361   5.835   6.458 -0.1067  0.1633 -0.6227
   15SAPS   O32 1896   0.318   5.781   6.559  0.3303 -0.0662  0.4465
   15SAPS   C32 1897   0.409   5.976   6.463 -0.2899 -0.7677  0.4418
   15SAPS   H2X 1898   0.332   6.042   6.417  0.8209  0.1606 -0.1384
   15SAPS   H2Y 1899   0.502   5.989   6.403 -0.9026  1.3499 -0.1362
   15SAPS   C23 1900  -0.139   5.736   6.564 -0.5087  0.2586  0.3734
   15SAPS   H3R 1901  -0.191   5.638   6.563  1.2487 -0.7305  0.0200
   15SAPS   H3S 1902  -0.156   5.789   6.468 -3.6396 -0.9302  0.1885
   15SAPS   C24 1903  -0.186   5.832   6.679 -0.8099 -0.2977  0.8233
   15SAPS   H4R 1904  -0.282   5.879   6.649  1.0239  2.0557 -1.9006
   15SAPS   H4S 1905  -0.116   5.917   6.694 -0.1071 -0.2910 -1.9298
   15SAPS   C25 1906  -0.193   5.758   6.811 -1.1119  0.6191  1.1646
   15SAPS   H5R 1907  -0.095   5.733   6.853 -0.3524  3.0130  0.9480
   15SAPS   C26 1908  -0.306   5.739   6.875  0.3475  0.4715  0.2828
   15SAPS   H6R 1909  -0.292   5.703   6.978  2.0100 -1.4212 -0.5156
   15SAPS   C27 1910  -0.446   5.779   6.834  0.2436 -0.4121 -0.2771
   15SAPS   H7R 1911  -0.514   5.718   6.898  1.1748  1.2334  2.4537
   15SAPS   H7S 1912  -0.474   5.740   6.734  1.1839 -1.4148 -0.1736
   15SAPS   C28 1913  -0.472   5.925   6.869 -0.0556 -0.2557 -0.2612
   15SAPS   H8R 1914  -0.459   5.999   6.789  1.1300 -1.1034 -0.8888
   15SAPS   C29 1915  -0.523   5.976   6.984  0.2237  0.2998 -0.7718
   15SAPS   H9R 1916  -0.533   6.086   6.991  1.0271  0.4043 -1.0670
   15SAPS  C210 1917  -0.556   5.902   7.111  0.3648  0.3266 -0.8183
   15SAPS  H10R 1918  -0.467   5.838   7.132  1.1507  1.5471 -0.3024
   15SAPS  H10S 1919  -0.637   5.829   7.089  1.1125 -0.8487  0.2231
   15SAPS  C211 1920  -0.588   5.989   7.231 -0.4377 -0.2740 -0.1409
   15SAPS  H11R 1921  -0.644   6.081   7.206  1.5368  0.9164 -0.4271
   15SAPS  C212 1922  -0.537   5.976   7.357 -0.3259 -0.2062 -0.1119
   15SAPS  H12R 1923  -0.577   6.032   7.443 -1.9385 -2.3620  0.6063
   15SAPS  C213 1924  -0.449   5.869   7.409 -0.1441  0.1635 -0.4061
   15SAPS  H13R 1925  -0.377   5.908   7.484  1.5753 -3.4762  0.0539
   15SAPS  H13S 1926  -0.385   5.826   7.329 -1.5603  0.3035 -1.6397
   15SAPS  C214 1927  -0.530   5.756   7.470 -0.4533 -0.1225  0.0559
   15SAPS  H14R 1928  -0.559   5.674   7.402 -2.1088 -0.1869  0.8023
   15SAPS  C215 1929  -0.574   5.751   7.600 -0.0994  0.1627  0.1537
   15SAPS  H15R 1930  -0.639   5.664   7.613  0.5679 -0.6858 -1.7945
   15SAPS  C216 1931  -0.566   5.860   7.712  0.7657 -0.9051  0.2113
   15SAPS  H16R 1932  -0.668   5.869   7.756  0.4545  1.3092 -0.8087
   15SAPS  H16S 1933  -0.544   5.966   7.688  0.7542 -0.9192  0.1363
   15SAPS  C217 1934  -0.482   5.822   7.828  0.4420  0.1395 -0.2683
   15SAPS  H17R 1935  -0.375   5.797   7.812  0.2839 -0.1107 -1.0024
   15SAPS  H17S 1936  -0.535   5.727   7.849 -0.1207  0.1500 -1.5254
   15SAPS  C218 1937  -0.492   5.925   7.934 -0.8860 -0.1804  0.2316
   15SAPS  H18R 1938  -0.592   5.960   7.966  0.8400  5.6199  0.5347
   15SAPS  H18S 1939  -0.423   6.008   7.907  1.0862 -1.6238  0.6353
   15SAPS  C219 1940  -0.442   5.869   8.070 -0.4741 -0.2345 -0.4509
   15SAPS  H19R 1941  -0.462   5.938   8.155 -5.9702 -2.1827  0.2448
   15SAPS  H19S 1942  -0.333   5.849   8.059 -0.4408  0.4789 -1.4759
   15SAPS  C220 1943  -0.507   5.730   8.106 -0.4899 -0.4083  0.1806
   15SAPS  H20R 1944  -0.618   5.728   8.102 -0.4760  0.5162 -1.2041
   15SAPS  H20S 1945  -0.464   5.685   8.198 -2.0767 -0.0624  1.1241
   15SAPS  H20T 1946  -0.478   5.657   8.027 -0.5565  0.3041 -0.5169
   15SAPS   C33 1947   0.441   6.038   6.601 -0.7164 -0.7795  0.3318
   15SAPS   H3X 1948   0.484   6.137   6.579 -1.0790 -1.3275 -3.4497
   15SAPS   H3Y 1949   0.506   5.979   6.670  2.7206  2.5237  0.1842
   15SAPS   C34 1950   0.312   6.056   6.686 -0.0285 -0.5287  0.7004
   15SAPS   H4X 1951   0.269   5.956   6.706 -1.3832  0.1052  1.0580
   15SAPS   H4Y 1952   0.230   6.106   6.630 -0.2296 -2.0192 -0.3887
   15SAPS   C35 1953   0.347   6.115   6.828 -0.1531 -0.0051 -0.5300
   15SAPS   H5X 1954   0.385   6.219   6.819  0.3943 -0.2418 -1.0334
   15SAPS   H5Y 1955   0.421   6.047   6.877  0.9344  0.8745 -0.9142
   15SAPS   C36 1956   0.224   6.132   6.908 -0.0026  0.4153 -0.0048
   15SAPS   H6X 1957   0.159   6.215   6.873  1.2352  0.9148 -1.2072
   15SAPS   H6Y 1958   0.270   6.165   7.003  0.1708  0.0866  0.0243
   15SAPS   C37 1959   0.136   6.016   6.940 -0.1836  0.0123  0.6699
   15SAPS   H7X 1960   0.193   5.947   7.005  1.6028  1.0084  0.2243
   15SAPS   H7Y 1961   0.116   5.965   6.843  0.0018 -2.3200  1.8117
   15SAPS   C38 1962  -0.000   6.051   7.005  0.1750  0.1864 -0.2762
   15SAPS   H8X 1963  -0.067   5.964   6.991  0.4925 -0.0286 -0.4620
   15SAPS   H8Y 1964  -0.059   6.132   6.956 -1.0698  1.0826  2.4904
   15SAPS   C39 1965   0.022   6.085   7.148 -0.1946  0.0430 -0.2616
   15SAPS   H9X 1966   0.090   6.171   7.164  0.5650 -0.4384 -0.8397
   15SAPS   H9Y 1967   0.064   5.999   7.205 -0.7033  1.9593  3.2725
   15SAPS  C310 1968  -0.105   6.117   7.219 -0.5346 -0.5256  0.1107
   15SAPS  H10X 1969  -0.181   6.037   7.207 -0.4699 -0.6354  0.4481
   15SAPS  H10Y 1970  -0.138   6.213   7.174 -0.2212 -0.0737  0.8318
   15SAPS  C311 1971  -0.086   6.146   7.372 -0.6239 -0.1405  0.8524
   15SAPS  H11X 1972  -0.179   6.201   7.398 -0.8958  2.2482 -3.9431
   15SAPS  H11Y 1973   0.007   6.204   7.392 -0.5656 -0.1018  0.4783
   15SAPS  C312 1974  -0.080   6.016   7.446 -0.0003  0.8931  0.0989
   15SAPS  H12X 1975   0.018   5.967   7.424  0.7877  2.5205 -0.1311
   15SAPS  H12Y 1976  -0.158   5.944   7.413 -0.2994  0.4547  1.6586
   15SAPS  C313 1977  -0.085   6.045   7.594 -0.2077  0.1970  0.1614
   15SAPS  H13X 1978  -0.083   5.947   7.646  0.3711 -0.2368 -0.6503
   15SAPS  H13Y 1979  -0.182   6.094   7.618  0.0732  0.3351  1.0568
   15SAPS  C314 1980   0.041   6.121   7.645 -0.0593 -0.3827  0.3675
   15SAPS  H14X 1981   0.054   6.213   7.585 -1.9814  0.5760  1.3278
   15SAPS  H14Y 1982   0.136   6.069   7.620 -0.0376  1.1905 -3.4039
   15SAPS  C315 1983   0.045   6.166   7.796  0.0346  0.3009  0.1409
   15SAPS  H15X 1984   0.065   6.074   7.855  0.9444  0.1348 -0.4037
   15SAPS  H15Y 1985  -0.058   6.196   7.825 -0.3099 -1.6134  1.0170
   15SAPS  C316 1986   0.152   6.276   7.814  0.1438  0.5261  0.3068
   15SAPS  H16X 1987   0.112   6.347   7.739 -3.6060 -0.7695  0.8615
   15SAPS  H16Y 1988   0.249   6.238   7.775  0.4599  2.5287 -0.9915
   15SAPS  C317 1989   0.158   6.349   7.946 -0.1035  0.2575 -0.8502
   15SAPS  H17X 1990   0.055   6.353   7.990 -0.3722 -2.0976 -1.1461
   15SAPS  H17Y 1991   0.214   6.444   7.935  0.2936  0.0366 -0.7504
   15SAPS  C318 1992   0.243   6.267   8.047 -0.0481 -0.2175  0.0137
   15SAPS  H18X 1993   0.274   6.339   8.125  0.3134 -0.8468  0.4637
   15SAPS  H18Y 1994   0.331   6.218   7.999  0.7772 -0.2805  1.5340
   15SAPS  H18Z 1995   0.181   6.190   8.097  1.9488 -0.6275  2.0236
   16SAPS     N 1996   2.316   5.987   6.274 -0.2754 -0.0738  0.1559
   16SAPS   HN1 1997   2.384   6.047   6.325  1.9118 -0.7389 -1.8392
   16SAPS   HN2 1998   2.285   5.902   6.324  0.2088 -2.1455 -2.8277
   16SAPS   HN3 1999   2.372   5.947   6.196  0.7177 -0.6623  1.1506
   16SAPS   C12 2000   2.193   6.053   6.202 -0.1153  1.1763  0.3192
   16SAPS  H12A 2001   2.124   6.089   6.277 -1.3929  2.0113 -1.2046
   16SAPS   C13 2002   2.225   6.169   6.103 -0.2124  0.0782  0.1011
   16SAPS  O13A 2003   2.346   6.199   6.091  0.4325 -0.2824  0.0196
   16SAPS  O13B 2004   2.135   6.236   6.042 -0.6438  0.3341 -0.3849
   16SAPS   C11 2005   2.115   5.944   6.117 -0.4042  0.0306  0.1704
   16SAPS  H11A 2006   2.191   5.911   6.043  0.3088  1.4234  0.2473
   16SAPS  H11B 2007   2.038   6.002   6.060 -0.4846 -1.2594 -1.0863
   16SAPS     P 2008   2.123   5.692   6.197  0.2131  0.2002 -0.0516
   16SAPS   O13 2009   2.148   5.648   6.058  0.0207 -0.0523  0.0140
   16SAPS   O14 2010   2.238   5.710   6.289 -0.1415 -0.0908 -0.6516
   16SAPS   O12 2011   2.055   5.834   6.189  0.7725 -0.2476  0.3752
   16SAPS   O11 2012   2.017   5.595   6.259  0.3394 -0.1575  0.4202
   16SAPS    C1 2013   1.905   5.636   6.334  0.1109  0.3915 -0.0552
   16SAPS    HA 2014   1.832   5.692   6.272 -1.4168  1.2999  2.3673
   16SAPS    HB 2015   1.853   5.539   6.353  2.5790 -0.7302  1.5963
   16SAPS    C2 2016   1.936   5.713   6.469  0.1765  0.8955  0.6963
   16SAPS    HS 2017   1.987   5.811   6.455 -0.6631  1.0279 -1.9770
   16SAPS   O21 2018   2.031   5.621   6.537 -0.4157  0.3623 -0.7648
   16SAPS   C21 2019   2.105   5.665   6.634  0.5032  0.4756  0.5537
   16SAPS   O22 2020   2.106   5.784   6.661 -0.1184 -0.1440 -0.1970
   16SAPS   C22 2021   2.188   5.560   6.699 -0.0386 -0.6214 -0.2901
   16SAPS   H2R 2022   2.114   5.487   6.739  2.1490 -1.4846  2.4706
   16SAPS   H2S 2023   2.258   5.514   6.626  3.1106  1.6753  1.0508
   16SAPS    C3 2024   1.797   5.723   6.541  0.6104 -0.1331 -0.5368
   16SAPS    HX 2025   1.736   5.631   6.532  0.9411 -0.4674  0.4509
   16SAPS    HY 2026   1.737   5.798   6.485 -1.3695  0.9282  2.6874
   16SAPS   O31 2027   1.807   5.751   6.685  0.3675  0.1501 -0.8186
   16SAPS   C31 2028   1.828   5.876   6.700  0.1352  0.1892  0.0787
   16SAPS   O32 2029   1.804   5.965   6.620  0.1250 -0.1488  0.0063
   16SAPS   C32 2030   1.883   5.902   6.849  0.2826 -0.5711  0.3697
   16SAPS   H2X 2031   1.972   5.967   6.843  0.0251  0.2337  3.5308
   16SAPS   H2Y 2032   1.917   5.800   6.877 -0.6749 -1.2487 -0.8243
   16SAPS   C23 2033   2.274   5.603   6.821  0.2270 -0.0305  0.0153
   16SAPS   H3R 2034   2.334   5.690   6.789  1.8021 -2.0796 -3.1584
   16SAPS   H3S 2035   2.351   5.522   6.820  1.3156  0.9538 -2.0870
   16SAPS   C24 2036   2.198   5.623   6.954 -0.2661 -1.0502 -0.3801
   16SAPS   H4R 2037   2.110   5.690   6.945  0.7841  0.5998  1.1565
   16SAPS   H4S 2038   2.273   5.677   7.014  2.2254 -1.6275 -2.7545
   16SAPS   C25 2039   2.151   5.497   7.022  0.1307  0.5991 -0.0770
   16SAPS   H5R 2040   2.078   5.441   6.961  0.7259 -0.0910 -0.1733
   16SAPS   C26 2041   2.180   5.458   7.147  0.2285  0.3385  0.2892
   16SAPS   H6R 2042   2.138   5.363   7.184 -0.1436  0.9884  1.5685
   16SAPS   C27 2043   2.275   5.528   7.238  0.2540 -0.8907 -0.2429
   16SAPS   H7R 2044   2.357   5.576   7.180 -0.4660 -0.5205 -0.9710
   16SAPS   H7S 2045   2.326   5.450   7.298  2.4903  0.4367 -0.2851
   16SAPS   C28 2046   2.194   5.626   7.325 -0.2449 -0.1739 -0.0297
   16SAPS   H8R 2047   2.164   5.724   7.284  0.8139  1.1724  2.2311
   16SAPS   C29 2048   2.166   5.615   7.456 -0.9489 -0.0326 -0.9990
   16SAPS   H9R 2049   2.100   5.696   7.491 -0.0323  0.7009 -0.9617
   16SAPS  C210 2050   2.197   5.504   7.556 -1.0565 -0.1566  0.3491
   16SAPS  H10R 2051   2.228   5.412   7.503  1.7760  1.9827 -1.9854
   16SAPS  H10S 2052   2.101   5.466   7.596 -0.6304 -1.9099 -0.2417
   16SAPS  C211 2053   2.301   5.555   7.656 -0.1248  0.8437  0.6155
   16SAPS  H11R 2054   2.401   5.517   7.629  0.2077  1.4988  0.9160
   16SAPS  C212 2055   2.275   5.634   7.759  0.6662 -0.1998  0.0964
   16SAPS  H12R 2056   2.355   5.675   7.821 -0.5708 -0.6013  2.0326
   16SAPS  C213 2057   2.145   5.697   7.794  0.7007 -0.3767 -0.0525
   16SAPS  H13R 2058   2.119   5.654   7.893  0.0513  1.1581  0.4827
   16SAPS  H13S 2059   2.064   5.677   7.721  0.8263  0.0649 -0.3170
   16SAPS  C214 2060   2.145   5.842   7.829 -0.6054  0.5425 -0.1503
   16SAPS  H14R 2061   2.236   5.898   7.802 -0.7518  0.0475 -1.7898
   16SAPS  C215 2062   2.050   5.909   7.901  0.2583 -0.0202  0.4918
   16SAPS  H15R 2063   2.054   6.018   7.915 -0.5238  0.3347 -1.7143
   16SAPS  C216 2064   1.923   5.850   7.968  0.4763 -0.0851  0.8250
   16SAPS  H16R 2065   1.902   5.882   8.073 -0.4594  1.9342  0.0614
   16SAPS  H16S 2066   1.943   5.743   7.992 -1.2450 -0.3160  1.3757
   16SAPS  C217 2067   1.807   5.872   7.876  0.2256  0.5320 -0.2061
   16SAPS  H17R 2068   1.753   5.778   7.901  3.2985 -1.1393  0.7158
   16SAPS  H17S 2069   1.835   5.861   7.769  0.6218  0.0051 -0.0524
   16SAPS  C218 2070   1.715   5.988   7.892  0.3918  0.0087  0.3741
   16SAPS  H18R 2071   1.651   6.009   7.805 -0.6945 -1.0315  0.8979
   16SAPS  H18S 2072   1.774   6.081   7.903 -0.4125  1.0647 -3.1650
   16SAPS  C219 2073   1.624   5.984   8.014  0.7237  0.8540 -0.3237
   16SAPS  H19R 2074   1.685   5.978   8.106  0.3877 -2.7383 -0.2043
   16SAPS  H19S 2075   1.565   5.890   8.019 -0.4157  1.6210  1.5070
   16SAPS  C220 2076   1.524   6.097   8.024  0.1574 -0.2407 -0.0960
   16SAPS  H20R 2077   1.487   6.101   8.129  1.9014  1.2282  0.5115
   16SAPS  H20S 2078   1.436   6.077   7.959 -0.2790 -2.1172  0.9957
   16SAPS  H20T 2079   1.570   6.197   8.009  0.2934 -0.1715  0.7158
   16SAPS   C33 2080   1.781   5.964   6.951 -0.1138 -0.2523  0.1270
   16SAPS   H3X 2081   1.701   5.886   6.956 -0.2183 -0.2504 -1.2959
   16SAPS   H3Y 2082   1.738   6.059   6.915 -1.8236 -0.5547  1.2170
   16SAPS   C34 2083   1.842   5.970   7.094  0.6236  0.0121 -0.1045
   16SAPS   H4X 2084   1.930   6.038   7.083  2.0737 -1.9958 -1.7010
   16SAPS   H4Y 2085   1.885   5.874   7.129 -0.8639  0.1721  2.3797
   16SAPS   C35 2086   1.754   6.046   7.199 -0.3063 -0.2529  0.6361
   16SAPS   H5X 2087   1.674   5.970   7.210 -0.0382 -0.8280 -1.1393
   16SAPS   H5Y 2088   1.717   6.142   7.157 -0.5699 -1.2361 -1.4698
   16SAPS   C36 2089   1.824   6.063   7.339 -0.0308  0.2368 -0.1161
   16SAPS   H6X 2090   1.927   6.101   7.322 -0.5406  2.6202  1.7128
   16SAPS   H6Y 2091   1.815   5.957   7.372 -2.2987  0.1312 -0.8917
   16SAPS   C37 2092   1.749   6.162   7.422  0.3112  0.8056  0.2096
   16SAPS   H7X 2093   1.642   6.134   7.419  1.2447 -3.3381  0.1278
   16SAPS   H7Y 2094   1.765   6.260   7.373 -0.2908  1.8010  1.9258
   16SAPS   C38 2095   1.795   6.179   7.566  0.4366 -0.2164  0.0857
   16SAPS   H8X 2096   1.798   6.092   7.635 -2.0868  0.4912  1.2276
   16SAPS   H8Y 2097   1.720   6.242   7.619  0.0468  0.6561 -1.4581
   16SAPS   C39 2098   1.934   6.251   7.565 -0.2159 -0.2084 -0.2118
   16SAPS   H9X 2099   1.922   6.311   7.657  0.4912 -2.9644  1.7916
   16SAPS   H9Y 2100   1.959   6.317   7.479  1.6635 -0.6959 -0.0781
   16SAPS  C310 2101   2.055   6.149   7.590 -0.4699  1.1677  0.2310
   16SAPS  H10X 2102   2.070   6.086   7.500 -0.0854  1.3425  0.1703
   16SAPS  H10Y 2103   2.039   6.081   7.676 -1.5103 -0.4607 -1.1907
   16SAPS  C311 2104   2.180   6.224   7.622  0.3006  0.5564  0.5678
   16SAPS  H11X 2105   2.197   6.318   7.565  0.2593  0.2985  0.1315
   16SAPS  H11Y 2106   2.266   6.157   7.600 -0.8489 -0.4279 -1.0280
   16SAPS  C312 2107   2.196   6.273   7.762 -0.0418  0.0811 -0.4725
   16SAPS  H12X 2108   2.179   6.184   7.826 -1.7482  0.8302  0.1928
   16SAPS  H12Y 2109   2.119   6.346   7.796  0.9210 -0.1685  2.5475
   16SAPS  C313 2110   2.340   6.339   7.792  0.4242 -0.3235  0.2738
   16SAPS  H13X 2111   2.335   6.445   7.760  0.5270 -0.4225 -0.0794
   16SAPS  H13Y 2112   2.407   6.275   7.731 -2.1388 -2.1581 -0.7832
   16SAPS  C314 2113   2.377   6.334   7.940  0.4252 -0.5308 -0.6257
   16SAPS  H14X 2114   2.379   6.230   7.980 -1.7995  0.9267  3.9252
   16SAPS  H14Y 2115   2.289   6.380   7.991  1.1532  0.5313 -0.2886
   16SAPS  C315 2116   2.507   6.413   7.977 -0.1537  0.1921  0.8876
   16SAPS  H15X 2117   2.503   6.516   7.935  0.0052  0.4800  1.5684
   16SAPS  H15Y 2118   2.575   6.363   7.905 -1.5591  0.0884 -0.4445
   16SAPS  C316 2119   2.540   6.412   8.123 -0.4042 -0.3012  0.8886
   16SAPS  H16X 2120   2.526   6.305   8.149  2.7633 -0.3923  2.8664
   16SAPS  H16Y 2121   2.471   6.481   8.175 -2.1566 -1.2803 -0.0598
   16SAPS  C317 2122   2.690   6.431   8.162 -0.1250 -0.0113  0.7996
   16SAPS  H17X 2123   2.746   6.343   8.123  1.9118  0.4118  2.5622
   16SAPS  H17Y 2124   2.689   6.423   8.273  1.2146 -2.5756  0.7132
   16SAPS  C318 2125   2.745   6.564   8.122  0.7646 -0.3549  0.2362
   16SAPS  H18X 2126   2.846   6.582   8.164  0.2294 -0.6012  1.6962
   16SAPS  H18Y 2127   2.678   6.651   8.141  1.6751  0.8288 -1.6519
   16SAPS  H18Z 2128   2.753   6.571   8.011 -0.6154 -1.1277  0.0619
   17SAPC     N 2129   2.241   0.290  10.929 -0.3162 -0.0744 -0.6472
   17SAPC   C12 2130   2.267   0.373  10.806 -0.3346 -0.0201  0.3998
   17SAPC  H12A 2131   2.322   0.314  10.735 -0.9993 -1.0187  0.7046
   17SAPC  H12B 2132   2.334   0.455  10.827 -0.3765 -0.0055  0.4774
   17SAPC   C13 2133   2.170   0.365  11.040  1.4111 -0.5920 -0.5867
   17SAPC  H13A 2134   2.152   0.306  11.129 -3.2919  2.0549  0.5289
   17SAPC  H13B 2135   2.223   0.454  11.070  0.5831  0.3512 -1.8509
   17SAPC  H13C 2136   2.075   0.394  10.999  1.4531 -1.4953 -1.3644
   17SAPC   C14 2137   2.144   0.175  10.898 -0.4920  0.1735 -0.1465
   17SAPC  H14A 2138   2.170   0.122  10.808 -1.9356  2.2893 -1.8957
   17SAPC  H14B 2139   2.129   0.108  10.981 -1.5190  1.7130  0.9660
   17SAPC  H14C 2140   2.044   0.213  10.887  0.1019  1.7885 -0.2403
   17SAPC   C15 2141   2.371   0.242  10.983 -0.1426  0.1572 -0.0992
   17SAPC  H15A 2142   2.441   0.324  10.989 -0.3115  0.4434 -1.7324
   17SAPC  H15B 2143   2.347   0.180  11.068 -1.8825  0.6814 -0.1837
   17SAPC  H15C 2144   2.425   0.178  10.914  1.0677  0.5059  0.4844
   17SAPC   C11 2145   2.144   0.438  10.737 -0.3916 -0.2224 -0.4000
   17SAPC  H11A 2146   2.182   0.522  10.676  0.8503 -0.9855 -0.7072
   17SAPC  H11B 2147   2.069   0.476  10.810  0.5062 -1.0154  0.9840
   17SAPC     P 2148   2.144   0.271  10.535  0.1791 -0.3492 -0.0755
   17SAPC   O13 2149   2.252   0.183  10.582  0.3367 -0.1364  0.6100
   17SAPC   O14 2150   2.034   0.203  10.460 -0.0110  0.1404 -0.0851
   17SAPC   O12 2151   2.078   0.343  10.655  0.3483  0.5880 -0.6892
   17SAPC   O11 2152   2.205   0.383  10.438 -0.1175 -0.2824 -0.2054
   17SAPC    C1 2153   2.149   0.513  10.406 -0.3650  0.0373 -0.2700
   17SAPC    HA 2154   2.108   0.560  10.498  0.1017 -1.4628  0.7470
   17SAPC    HB 2155   2.232   0.578  10.370  0.1880 -0.5950 -0.1528
   17SAPC    C2 2156   2.056   0.501  10.280  0.4503 -0.4736 -1.3224
   17SAPC    HS 2157   2.001   0.408  10.306  0.5453  0.1702  1.4758
   17SAPC   O21 2158   2.134   0.483  10.159 -0.5043  0.2723 -0.5852
   17SAPC   C21 2159   2.091   0.404  10.066  0.1041 -0.4219  0.2770
   17SAPC   O22 2160   1.981   0.347  10.072 -0.3612 -0.0050  0.1540
   17SAPC   C22 2161   2.194   0.383   9.959  0.2685  0.5804 -0.4028
   17SAPC   H2R 2162   2.277   0.324  10.003 -1.5565 -2.9383 -1.2846
   17SAPC   H2S 2163   2.143   0.318   9.885 -2.1325 -0.7721  2.2548
   17SAPC    C3 2164   1.964   0.627  10.273 -0.2944  0.4339 -0.2923
   17SAPC    HX 2165   2.013   0.718  10.234 -2.1258  0.9639 -1.4620
   17SAPC    HY 2166   1.934   0.657  10.375  1.4205  0.0054  0.3819
   17SAPC   O31 2167   1.852   0.592  10.190 -0.3861  0.1255  0.5446
   17SAPC   C31 2168   1.852   0.634  10.065  0.1231 -0.2501 -0.3254
   17SAPC   O32 2169   1.930   0.709  10.013 -0.0325  0.5937  0.2917
   17SAPC   C32 2170   1.734   0.570   9.989  0.1660  0.9070 -0.4061
   17SAPC   H2X 2171   1.652   0.562  10.063 -0.5761  2.0604 -1.0842
   17SAPC   H2Y 2172   1.764   0.469   9.951  1.1395  1.3348 -0.8165
   17SAPC   C23 2173   2.249   0.515   9.894 -0.1612 -0.6119  0.4360
   17SAPC   H3R 2174   2.341   0.484   9.840 -0.2369 -1.4351  0.7706
   17SAPC   H3S 2175   2.282   0.592   9.967 -2.2730  0.2731  0.5293
   17SAPC   C24 2176   2.140   0.565   9.788 -0.1748  0.4186 -0.8597
   17SAPC   H4R 2177   2.042   0.585   9.837  0.4632  0.9834  0.2425
   17SAPC   H4S 2178   2.131   0.493   9.705  0.0789  1.2076 -1.5852
   17SAPC   C25 2179   2.189   0.690   9.729 -0.0687  0.3100  0.2574
   17SAPC   H5R 2180   2.161   0.773   9.796  1.4018  2.4195 -1.5568
   17SAPC   C26 2181   2.274   0.713   9.625 -0.3916  0.0015 -0.3517
   17SAPC   H6R 2182   2.297   0.815   9.592  2.7006  0.4090  2.5197
   17SAPC   C27 2183   2.335   0.606   9.544  0.1022 -0.0468 -0.1670
   17SAPC   H7R 2184   2.302   0.504   9.573 -0.5865  0.2610  0.1536
   17SAPC   H7S 2185   2.443   0.607   9.571 -0.3275  0.1801  1.6921
   17SAPC   C28 2186   2.314   0.616   9.400 -0.6241  0.3793  0.5018
   17SAPC   H8R 2187   2.208   0.604   9.373 -0.7087  3.3626 -0.9680
   17SAPC   C29 2188   2.405   0.652   9.310  0.2417  0.4570  0.3898
   17SAPC   H9R 2189   2.360   0.653   9.209  0.3943 -2.0119  0.2196
   17SAPC  C210 2190   2.556   0.673   9.316 -0.0652 -0.4323  0.5582
   17SAPC  H10R 2191   2.589   0.600   9.393 -3.8870 -2.7709  0.1907
   17SAPC  H10S 2192   2.584   0.779   9.337  1.4085 -0.8773  0.9704
   17SAPC  C211 2193   2.621   0.621   9.187  0.2143 -0.0671 -0.0327
   17SAPC  H11R 2194   2.656   0.517   9.189  2.1130  0.5665  1.5364
   17SAPC  C212 2195   2.638   0.697   9.072  0.7134 -0.6728  0.5666
   17SAPC  H12R 2196   2.681   0.641   8.987 -0.1516 -1.7221  0.7911
   17SAPC  C213 2197   2.589   0.836   9.047  0.4469  1.1957  0.4383
   17SAPC  H13R 2198   2.574   0.887   9.145  0.2745  1.9004  0.0522
   17SAPC  H13S 2199   2.497   0.815   8.988  0.8741  0.3175  0.0764
   17SAPC  C214 2200   2.678   0.932   8.968  0.4983  0.1102  0.8761
   17SAPC  H14R 2201   2.717   1.024   9.014  2.3770 -0.6577  0.9033
   17SAPC  C215 2202   2.702   0.913   8.835  0.1554  0.1416  0.0758
   17SAPC  H15R 2203   2.768   0.985   8.783 -0.4810  0.9904  0.4100
   17SAPC  C216 2204   2.657   0.794   8.748  0.0498 -0.6294 -0.3103
   17SAPC  H16R 2205   2.614   0.709   8.804 -0.5236 -1.1766 -1.5385
   17SAPC  H16S 2206   2.746   0.766   8.689 -0.4536  0.2559 -1.5349
   17SAPC  C217 2207   2.551   0.847   8.651 -0.5103  1.0425  0.1083
   17SAPC  H17R 2208   2.478   0.916   8.699  0.0509  2.4975 -1.0514
   17SAPC  H17S 2209   2.497   0.759   8.612 -0.4080  1.0950 -0.1573
   17SAPC  C218 2210   2.607   0.926   8.535 -0.2974  0.1084 -0.2521
   17SAPC  H18R 2211   2.698   0.879   8.492 -0.6317 -1.2878  0.4997
   17SAPC  H18S 2212   2.639   1.025   8.575 -1.5190  1.3156 -2.0884
   17SAPC  C219 2213   2.500   0.942   8.422 -0.4074  0.1366 -0.4985
   17SAPC  H19R 2214   2.436   1.027   8.455 -1.6661  0.2579 -3.0485
   17SAPC  H19S 2215   2.440   0.849   8.411  0.0993  0.0274 -2.7771
   17SAPC  C220 2216   2.551   0.992   8.289  0.2525  0.5413  0.4635
   17SAPC  H20R 2217   2.568   1.101   8.294 -0.2625  0.9721 -3.5626
   17SAPC  H20S 2218   2.476   0.992   8.207 -0.4643  1.4974  1.1006
   17SAPC  H20T 2219   2.640   0.939   8.250  0.0458 -0.4380  1.2975
   17SAPC   C33 2220   1.669   0.658   9.873  0.1663 -0.6521  0.2125
   17SAPC   H3X 2221   1.658   0.762   9.910  0.1845 -0.7431  0.4768
   17SAPC   H3Y 2222   1.565   0.623   9.854 -0.3132  1.0320 -0.3954
   17SAPC   C34 2223   1.746   0.652   9.741  0.4637  0.4824 -0.3876
   17SAPC   H4X 2224   1.787   0.551   9.718 -0.2241  0.2452 -0.6011
   17SAPC   H4Y 2225   1.828   0.726   9.742 -0.3840  1.4532  1.5612
   17SAPC   C35 2226   1.658   0.706   9.622  0.4007  0.4273  0.0515
   17SAPC   H5X 2227   1.634   0.813   9.636 -1.9289 -0.1116  0.6961
   17SAPC   H5Y 2228   1.566   0.642   9.619  1.7580 -1.5971 -2.5302
   17SAPC   C36 2229   1.734   0.686   9.489  0.0335  0.4706  0.2437
   17SAPC   H6X 2230   1.663   0.690   9.404  2.1689 -0.0162 -1.6519
   17SAPC   H6Y 2231   1.766   0.580   9.491  0.1563  0.5082  1.3383
   17SAPC   C37 2232   1.860   0.766   9.448 -0.4227  0.1889 -0.2606
   17SAPC   H7X 2233   1.934   0.753   9.530  0.6817  1.3531 -1.0351
   17SAPC   H7Y 2234   1.844   0.876   9.436 -1.5052  0.0716 -0.0040
   17SAPC   C38 2235   1.905   0.715   9.311 -0.4815 -0.7180 -0.8973
   17SAPC   H8X 2236   1.832   0.756   9.238  0.8406  1.3927 -1.1173
   17SAPC   H8Y 2237   1.912   0.604   9.312  1.7960 -0.6559  2.1433
   17SAPC   C39 2238   2.034   0.780   9.267  0.0678  0.7249  0.6709
   17SAPC   H9X 2239   2.113   0.790   9.344 -0.3696  2.3016  0.9417
   17SAPC   H9Y 2240   2.011   0.881   9.226  1.8524  0.4895 -1.0322
   17SAPC  C310 2241   2.089   0.709   9.145 -0.1146 -0.3979  0.1288
   17SAPC  H10X 2242   2.114   0.603   9.165  0.8945 -0.1592  0.1797
   17SAPC  H10Y 2243   2.182   0.762   9.117  0.0506 -1.1920 -0.8886
   17SAPC  C311 2244   1.991   0.709   9.026  0.0142  0.0272 -0.3555
   17SAPC  H11X 2245   1.961   0.815   9.012 -2.8218 -0.5830  0.5563
   17SAPC  H11Y 2246   1.902   0.647   9.046 -1.0377  0.7677 -2.4380
   17SAPC  C312 2247   2.057   0.660   8.896  0.5466  0.2646  0.0325
   17SAPC  H12X 2248   1.986   0.582   8.860 -1.9760  2.3495  0.2625
   17SAPC  H12Y 2249   2.160   0.621   8.911  0.9576  1.2344 -0.2101
   17SAPC  C313 2250   2.069   0.776   8.786  0.4297 -0.0156 -1.0243
   17SAPC  H13X 2251   2.140   0.856   8.816 -0.8879  0.4029  1.1932
   17SAPC  H13Y 2252   1.966   0.818   8.790 -0.2013 -1.3023  4.3325
   17SAPC  C314 2253   2.110   0.708   8.655 -0.7113 -0.2162 -0.2288
   17SAPC  H14X 2254   2.043   0.623   8.631 -0.8907 -1.1231  3.0641
   17SAPC  H14Y 2255   2.203   0.649   8.666 -0.2021  0.2472 -1.7788
   17SAPC  C315 2256   2.120   0.812   8.542 -0.6089  0.2511 -0.8759
   17SAPC  H15X 2257   2.192   0.887   8.579 -0.9795  1.3145 -2.2013
   17SAPC  H15Y 2258   2.019   0.859   8.543 -1.0366 -0.4606  2.6489
   17SAPC  C316 2259   2.159   0.756   8.411  0.9013 -0.1731 -0.3120
   17SAPC  H16X 2260   2.117   0.656   8.385 -1.0781  0.3188  0.7847
   17SAPC  H16Y 2261   2.267   0.731   8.417  0.2216 -4.5505 -2.0609
   17SAPC  C317 2262   2.131   0.857   8.305  0.2861  0.0778 -0.1787
   17SAPC  H17X 2263   2.189   0.856   8.210  2.3693  0.6193  1.0242
   17SAPC  H17Y 2264   2.150   0.956   8.350 -2.2341  0.5835 -0.0600
   17SAPC  C318 2265   1.988   0.857   8.258  0.6682 -0.3334  0.1270
   17SAPC  H18X 2266   1.974   0.765   8.197  1.3393 -0.1906 -0.2434
   17SAPC  H18Y 2267   1.917   0.861   8.344  0.4698  0.8781 -0.0791
   17SAPC  H18Z 2268   1.978   0.941   8.186  0.3135  0.4425  1.0476
   18SAPC     N 2269   2.072   5.354  10.744 -0.3075  0.5447 -0.5042
   18SAPC   C12 2270   2.053   5.301  10.601 -0.3990 -1.0244 -0.8582
   18SAPC  H12A 2271   2.118   5.359  10.538  0.9623  0.7808  1.9800
   18SAPC  H12B 2272   1.950   5.329  10.580  0.1521  2.6143  0.5206
   18SAPC   C13 2273   2.198   5.306  10.812  0.3649 -0.4973  0.0870
   18SAPC  H13A 2274   2.201   5.338  10.915 -0.3732 -0.5069  0.1202
   18SAPC  H13B 2275   2.197   5.198  10.808  2.9778 -0.5830  0.4536
   18SAPC  H13C 2276   2.284   5.335  10.754 -0.5785 -2.1009 -2.3104
   18SAPC   C14 2277   2.073   5.499  10.747 -0.1766  0.0608 -0.2392
   18SAPC  H14A 2278   2.083   5.523  10.852  0.5928 -0.3100 -0.2228
   18SAPC  H14B 2279   2.160   5.528  10.692 -0.0245  0.8804  0.4080
   18SAPC  H14C 2280   1.981   5.541  10.707  0.4477  0.6755 -1.0622
   18SAPC   C15 2281   1.954   5.296  10.821  0.2445 -0.4839  0.4479
   18SAPC  H15A 2282   1.940   5.194  10.787  1.2213 -0.3598 -0.3623
   18SAPC  H15B 2283   1.971   5.309  10.927 -3.4454 -2.2576  1.4387
   18SAPC  H15C 2284   1.863   5.347  10.793  0.0002 -1.2401 -0.1675
   18SAPC   C11 2285   2.081   5.157  10.577 -0.5017 -0.4805  0.4261
   18SAPC  H11A 2286   2.189   5.130  10.574 -0.4635 -0.2569 -0.6486
   18SAPC  H11B 2287   2.049   5.139  10.472 -0.1075 -1.8121  0.5145
   18SAPC     P 2288   2.038   4.939  10.728 -0.0815 -0.0928 -0.2553
   18SAPC   O13 2289   2.079   4.981  10.861 -0.3284  0.1045 -0.2131
   18SAPC   O14 2290   1.937   4.833  10.714 -0.5249 -0.0372 -0.1669
   18SAPC   O12 2291   1.993   5.075  10.656  0.1328  0.2511  0.6926
   18SAPC   O11 2292   2.166   4.905  10.648 -0.8776 -0.1916  0.0476
   18SAPC    C1 2293   2.190   4.762  10.604 -0.2490  0.3689  0.4260
   18SAPC    HA 2294   2.275   4.718  10.661  1.0480 -0.0514 -1.7262
   18SAPC    HB 2295   2.105   4.696  10.632  0.7464 -1.5809 -0.9639
   18SAPC    C2 2296   2.223   4.757  10.448 -0.0390  0.4110 -0.6392
   18SAPC    HS 2297   2.296   4.836  10.421  1.2843 -0.7773 -0.6611
   18SAPC   O21 2298   2.096   4.758  10.378  0.0211  0.5232  0.9497
   18SAPC   C21 2299   2.069   4.868  10.315  0.8490  0.5372 -0.2641
   18SAPC   O22 2300   2.150   4.952  10.279  0.9380 -0.2889  0.4445
   18SAPC   C22 2301   1.910   4.883  10.294  0.1289  0.1770 -0.8657
   18SAPC   H2R 2302   1.858   4.841  10.383  1.6397  0.0903  0.0076
   18SAPC   H2S 2303   1.902   4.994  10.299 -0.2171  0.1427 -0.6226
   18SAPC    C3 2304   2.275   4.621  10.415  0.5694  0.3101  0.1645
   18SAPC    HX 2305   2.202   4.541  10.437  1.1110  0.1824  1.6288
   18SAPC    HY 2306   2.355   4.581  10.482 -0.0536 -0.9283  0.1801
   18SAPC   O31 2307   2.323   4.624  10.275  0.6878 -0.1392  0.3170
   18SAPC   C31 2308   2.247   4.559  10.191  0.5036  0.4508  0.4275
   18SAPC   O32 2309   2.165   4.470  10.220 -0.2857 -0.1739 -0.2183
   18SAPC   C32 2310   2.266   4.610  10.052 -0.4559  0.1007 -0.1559
   18SAPC   H2X 2311   2.361   4.667  10.046  0.5617 -1.2175  2.0288
   18SAPC   H2Y 2312   2.184   4.670  10.007  1.1007  0.6580 -2.4050
   18SAPC   C23 2313   1.846   4.826  10.162 -0.2915 -0.0571  1.0062
   18SAPC   H3R 2314   1.752   4.770  10.180  1.1141 -3.3879 -0.9834
   18SAPC   H3S 2315   1.917   4.753  10.118  0.2886 -0.2507  2.2078
   18SAPC   C24 2316   1.807   4.934  10.058  0.3246  0.0854  0.3832
   18SAPC   H4R 2317   1.740   5.013  10.098 -2.1513 -1.2547 -0.8958
   18SAPC   H4S 2318   1.753   4.864   9.991  1.9367 -0.7545 -0.0922
   18SAPC   C25 2319   1.918   4.995   9.977 -0.0070  0.5518  0.3272
   18SAPC   H5R 2320   2.001   5.049  10.026  0.7662 -0.2234 -0.0876
   18SAPC   C26 2321   1.934   4.994   9.847  0.1108  0.0737  0.8588
   18SAPC   H6R 2322   2.013   5.058   9.806 -0.7319 -0.5781 -2.0569
   18SAPC   C27 2323   1.861   4.917   9.743 -0.2402 -0.2786  0.3565
   18SAPC   H7R 2324   1.782   4.852   9.786  0.4007 -1.1022  0.2921
   18SAPC   H7S 2325   1.942   4.854   9.702 -0.3990 -0.3046  0.0752
   18SAPC   C28 2326   1.795   4.993   9.626  0.0369 -0.5008 -0.0726
   18SAPC   H8R 2327   1.783   5.101   9.645  1.1052  0.0255 -2.1110
   18SAPC   C29 2328   1.744   4.935   9.515 -0.5074  0.3403  0.1000
   18SAPC   H9R 2329   1.697   4.991   9.433  1.5916  0.8374 -0.8405
   18SAPC  C210 2330   1.749   4.787   9.488  0.5981  0.4157 -0.6179
   18SAPC  H10R 2331   1.649   4.739   9.499  0.6195  0.5546  0.2460
   18SAPC  H10S 2332   1.819   4.737   9.559  1.2438 -2.6355 -3.1855
   18SAPC  C211 2333   1.789   4.739   9.347 -0.3975 -0.0356 -0.5320
   18SAPC  H11R 2334   1.896   4.718   9.334 -0.4586 -1.7265  1.1994
   18SAPC  C212 2335   1.708   4.733   9.236  0.1622 -0.0748  0.0959
   18SAPC  H12R 2336   1.745   4.713   9.135 -0.8617  0.7270 -0.4611
   18SAPC  C213 2337   1.564   4.782   9.219 -0.1431  0.0855  0.0913
   18SAPC  H13R 2338   1.511   4.787   9.316 -1.8959 -1.6525 -0.7034
   18SAPC  H13S 2339   1.511   4.703   9.162  1.1871 -1.4932  0.9509
   18SAPC  C214 2340   1.565   4.917   9.152  0.5249 -0.0880  0.3950
   18SAPC  H14R 2341   1.658   4.975   9.158  0.3295  0.1782  0.8766
   18SAPC  C215 2342   1.463   4.974   9.091 -0.8289  0.0024  0.2822
   18SAPC  H15R 2343   1.477   5.077   9.054 -1.1649 -0.2624 -0.5907
   18SAPC  C216 2344   1.328   4.909   9.070  0.0556  0.1760  0.6638
   18SAPC  H16R 2345   1.246   4.970   9.112 -1.1772  1.0286 -2.6738
   18SAPC  H16S 2346   1.319   4.809   9.118  0.0384 -1.6604 -2.7758
   18SAPC  C217 2347   1.298   4.870   8.921  0.2120  0.8526  0.1122
   18SAPC  H17R 2348   1.369   4.789   8.892 -1.0634 -0.2019 -0.1493
   18SAPC  H17S 2349   1.324   4.964   8.867  1.3427 -0.9027 -2.6127
   18SAPC  C218 2350   1.151   4.829   8.913  0.6220 -0.3856  0.4767
   18SAPC  H18R 2351   1.088   4.916   8.939  2.0748  0.6573  0.6834
   18SAPC  H18S 2352   1.139   4.753   8.993 -1.7450 -0.4979  0.0616
   18SAPC  C219 2353   1.114   4.785   8.774 -0.0040  0.2539 -0.3137
   18SAPC  H19R 2354   1.167   4.841   8.694  0.8210 -2.3858 -1.7530
   18SAPC  H19S 2355   1.005   4.801   8.755 -0.6006 -1.8835  0.9371
   18SAPC  C220 2356   1.140   4.637   8.745  0.0429 -0.1607 -0.2570
   18SAPC  H20R 2357   1.104   4.559   8.816  0.8999 -0.7747 -0.4886
   18SAPC  H20S 2358   1.250   4.625   8.743  0.1229  0.5774 -1.3133
   18SAPC  H20T 2359   1.112   4.606   8.642  0.7513 -2.6919  0.2444
   18SAPC   C33 2360   2.282   4.488   9.953  0.3086  0.2338  1.0179
   18SAPC   H3X 2361   2.182   4.442   9.942  0.1275  0.6566  0.8803
   18SAPC   H3Y 2362   2.353   4.415   9.999  2.3092 -0.7485 -3.1527
   18SAPC   C34 2363   2.326   4.530   9.813 -0.2363 -0.1019  0.6059
   18SAPC   H4X 2364   2.380   4.446   9.765  2.0176 -0.4107  3.3848
   18SAPC   H4Y 2365   2.405   4.606   9.832 -0.6793  0.6008 -0.2678
   18SAPC   C35 2366   2.211   4.584   9.730  0.3982  0.4317  0.2758
   18SAPC   H5X 2367   2.178   4.685   9.763 -1.7600 -0.4962  1.1548
   18SAPC   H5Y 2368   2.132   4.507   9.743  0.5886  0.3620  1.1325
   18SAPC   C36 2369   2.246   4.567   9.583  0.3454  0.2346 -0.1825
   18SAPC   H6X 2370   2.290   4.466   9.565  0.6610  0.4311 -0.5280
   18SAPC   H6Y 2371   2.319   4.642   9.546  3.0382 -1.4373  1.3363
   18SAPC   C37 2372   2.126   4.588   9.490  0.3094  0.2592 -0.2215
   18SAPC   H7X 2373   2.083   4.689   9.509  3.1746  1.8717 -1.6419
   18SAPC   H7Y 2374   2.052   4.510   9.520  0.2789  0.6341  0.7094
   18SAPC   C38 2375   2.158   4.577   9.339  0.0866  0.0058 -0.6943
   18SAPC   H8X 2376   2.068   4.587   9.275  1.5693 -0.4331 -2.9519
   18SAPC   H8Y 2377   2.180   4.469   9.324 -2.6351 -0.4096 -2.3036
   18SAPC   C39 2378   2.255   4.687   9.279 -0.7187  0.8130 -0.8034
   18SAPC   H9X 2379   2.346   4.680   9.342 -1.6487  2.1579  0.7705
   18SAPC   H9Y 2380   2.214   4.788   9.301 -1.6751  0.2794 -0.0610
   18SAPC  C310 2381   2.284   4.667   9.129 -0.3356  0.1476 -0.6250
   18SAPC  H10X 2382   2.327   4.567   9.106 -1.3185 -0.4631  0.0470
   18SAPC  H10Y 2383   2.359   4.740   9.094  2.0651 -2.2234 -0.7077
   18SAPC  C311 2384   2.160   4.695   9.046 -0.2446 -0.4537  0.2167
   18SAPC  H11X 2385   2.065   4.680   9.102 -1.5298  3.0770 -0.7514
   18SAPC  H11Y 2386   2.148   4.631   8.956 -0.5524 -0.2229  0.0915
   18SAPC  C312 2387   2.147   4.833   8.980  0.1731 -0.5241 -0.3476
   18SAPC  H12X 2388   2.228   4.849   8.905  1.6222  2.6188  1.7216
   18SAPC  H12Y 2389   2.163   4.917   9.050 -2.5088  0.8549 -1.2697
   18SAPC  C313 2390   2.003   4.849   8.920  0.0604  0.1543  0.0487
   18SAPC  H13X 2391   1.998   4.943   8.860 -0.4879 -0.4938 -0.9497
   18SAPC  H13Y 2392   1.925   4.867   8.997  1.9190  1.9063  1.6383
   18SAPC  C314 2393   1.963   4.741   8.806  0.2167  0.1981 -1.0332
   18SAPC  H14X 2394   1.924   4.650   8.856  0.5275  0.3055 -0.5911
   18SAPC  H14Y 2395   2.056   4.711   8.753  0.2696 -0.2513 -0.6931
   18SAPC  C315 2396   1.853   4.786   8.710  0.6853  0.2422  0.3263
   18SAPC  H15X 2397   1.821   4.701   8.646 -1.1967  1.5375 -0.5356
   18SAPC  H15Y 2398   1.890   4.870   8.646 -1.2429  2.1734  1.5938
   18SAPC  C316 2399   1.730   4.830   8.791 -0.4700  0.1995  0.2437
   18SAPC  H16X 2400   1.756   4.912   8.860 -0.5668 -1.5096  2.4308
   18SAPC  H16Y 2401   1.712   4.739   8.852  0.0194 -0.5916 -0.7509
   18SAPC  C317 2402   1.612   4.858   8.695 -0.0922 -0.6911  0.2048
   18SAPC  H17X 2403   1.512   4.850   8.743 -0.2085  0.6289  0.2002
   18SAPC  H17Y 2404   1.611   4.787   8.609  2.1749 -1.1172  0.4510
   18SAPC  C318 2405   1.619   4.998   8.629  0.0822  0.2641 -0.8280
   18SAPC  H18X 2406   1.627   5.070   8.714 -0.9468 -0.9165  0.3123
   18SAPC  H18Y 2407   1.534   5.011   8.559 -1.4964 -1.9713  0.5257
   18SAPC  H18Z 2408   1.712   5.015   8.571  0.4285  1.7453  0.0932
   19SAPC     N 2409   3.114   1.692  10.927  0.3266  0.4083 -0.5219
   19SAPC   C12 2410   3.144   1.805  10.834 -0.3487 -0.2980 -0.5386
   19SAPC  H12A 2411   3.110   1.900  10.874  0.5875  0.7229 -2.0764
   19SAPC  H12B 2412   3.082   1.795  10.747 -1.7314 -1.1260  0.5090
   19SAPC   C13 2413   2.975   1.698  10.983  0.4376  0.5075 -0.0163
   19SAPC  H13A 2414   2.896   1.691  10.910 -1.1328 -0.0237  1.6497
   19SAPC  H13B 2415   2.961   1.625  11.061  1.8715 -0.5956 -0.7460
   19SAPC  H13C 2416   2.952   1.796  11.021 -1.9895  1.3789 -3.3124
   19SAPC   C14 2417   3.132   1.566  10.857 -0.4666 -0.0954  0.0467
   19SAPC  H14A 2418   3.052   1.538  10.790 -1.9616 -1.6160  2.3203
   19SAPC  H14B 2419   3.226   1.564  10.805 -0.2785  1.3345  0.2935
   19SAPC  H14C 2420   3.139   1.488  10.931  0.9047  2.5696  2.9696
   19SAPC   C15 2421   3.213   1.694  11.045  0.8018 -0.1603  0.9591
   19SAPC  H15A 2422   3.314   1.667  11.018  0.3554 -0.6507 -0.3348
   19SAPC  H15B 2423   3.216   1.794  11.086 -1.2610  0.9686 -1.3869
   19SAPC  H15C 2424   3.175   1.622  11.116 -1.1635  0.5104  0.6491
   19SAPC   C11 2425   3.285   1.820  10.775  0.3193  0.6544  0.3699
   19SAPC  H11A 2426   3.362   1.829  10.855  0.1506 -1.4179  0.8315
   19SAPC  H11B 2427   3.279   1.920  10.727  0.5661  0.4863 -0.0101
   19SAPC     P 2428   3.275   1.721  10.533  0.0593 -0.4423  0.6581
   19SAPC   O13 2429   3.375   1.806  10.464  0.2001  0.2763 -1.0448
   19SAPC   O14 2430   3.259   1.583  10.481  0.0864 -0.2498  0.2181
   19SAPC   O12 2431   3.316   1.712  10.686 -0.2337  0.2057 -0.0880
   19SAPC   O11 2432   3.137   1.798  10.535  0.0981  0.6641  0.1924
   19SAPC    C1 2433   3.019   1.725  10.529  0.6038 -0.3893 -0.2868
   19SAPC    HA 2434   3.031   1.619  10.561  2.1500 -0.4811 -1.0669
   19SAPC    HB 2435   2.945   1.767  10.601  0.7181 -0.1537 -0.3077
   19SAPC    C2 2436   2.935   1.732  10.400 -0.1413 -0.0485  0.7649
   19SAPC    HS 2437   2.833   1.692  10.420 -0.6935  0.4595 -0.9306
   19SAPC   O21 2438   3.000   1.658  10.288 -0.0353 -0.0813 -0.0626
   19SAPC   C21 2439   3.000   1.526  10.299  0.4901  0.0371  0.2259
   19SAPC   O22 2440   2.945   1.462  10.389  0.0263 -0.0030  0.3326
   19SAPC   C22 2441   3.085   1.468  10.182  0.2134  0.1205  0.2864
   19SAPC   H2R 2442   3.046   1.498  10.083  1.5853  1.5658  0.1439
   19SAPC   H2S 2443   3.187   1.509  10.197  0.7475 -1.3522  0.9029
   19SAPC    C3 2444   2.913   1.882  10.362 -0.1538 -0.2671  0.3454
   19SAPC    HX 2445   2.998   1.948  10.388 -0.8748  0.9003 -0.2064
   19SAPC    HY 2446   2.834   1.925  10.427  1.4540  0.2539  2.0572
   19SAPC   O31 2447   2.890   1.907  10.221  0.1320 -0.0468  0.4807
   19SAPC   C31 2448   2.774   1.879  10.167 -0.7874  0.3337 -0.5602
   19SAPC   O32 2449   2.677   1.828  10.221 -0.3570 -0.3381 -0.1565
   19SAPC   C32 2450   2.778   1.938  10.026 -0.7037  0.4417 -0.0451
   19SAPC   H2X 2451   2.880   1.953   9.985 -0.5317 -1.4638 -0.3941
   19SAPC   H2Y 2452   2.727   2.036  10.014 -1.8624  0.1768  2.1871
   19SAPC   C23 2453   3.104   1.313  10.179  0.2052 -0.0005  0.6626
   19SAPC   H3R 2454   3.010   1.273  10.135  1.7364 -2.4427 -0.6043
   19SAPC   H3S 2455   3.132   1.264  10.275  0.3498 -3.5821 -1.0084
   19SAPC   C24 2456   3.227   1.275  10.088  0.2696  0.2439  0.0668
   19SAPC   H4R 2457   3.310   1.339  10.123 -1.6273  1.8510  1.8498
   19SAPC   H4S 2458   3.207   1.319   9.988 -0.1875  0.3405  0.1994
   19SAPC   C25 2459   3.263   1.134  10.077  0.2045 -0.1268  0.1695
   19SAPC   H5R 2460   3.346   1.094  10.138  2.3022  0.1063 -2.3469
   19SAPC   C26 2461   3.188   1.050  10.004 -0.2060  1.2489 -0.6884
   19SAPC   H6R 2462   3.216   0.944   9.997 -2.5740  0.4124  1.0521
   19SAPC   C27 2463   3.067   1.078   9.915  0.1948 -0.5705 -0.0357
   19SAPC   H7R 2464   3.032   1.181   9.894 -3.7293 -2.0084 -1.4843
   19SAPC   H7S 2465   2.973   1.041   9.961 -0.1157  1.3691  1.0274
   19SAPC   C28 2466   3.077   1.003   9.779  0.6072 -0.2022 -0.2044
   19SAPC   H8R 2467   3.052   0.896   9.774 -1.8479  0.3301 -0.9085
   19SAPC   C29 2468   3.137   1.067   9.676  0.2211 -0.3512 -0.0950
   19SAPC   H9R 2469   3.143   1.022   9.575  0.9883 -1.6999  0.5281
   19SAPC  C210 2470   3.199   1.205   9.666 -0.5677 -0.1025  0.2122
   19SAPC  H10R 2471   3.144   1.285   9.721 -1.5806 -1.0908  0.6694
   19SAPC  H10S 2472   3.194   1.238   9.560 -1.6032  4.0502  1.3436
   19SAPC  C211 2473   3.341   1.215   9.722  0.4760 -0.4188 -1.2580
   19SAPC  H11R 2474   3.348   1.243   9.828 -1.1979 -2.8894 -0.3927
   19SAPC  C212 2475   3.456   1.197   9.661 -0.1402  0.5242  0.3455
   19SAPC  H12R 2476   3.544   1.217   9.724 -1.8858  1.1586  2.7248
   19SAPC  C213 2477   3.487   1.162   9.512 -0.2158 -0.0794  0.2477
   19SAPC  H13R 2478   3.473   1.053   9.499  0.8761 -0.1529 -0.5171
   19SAPC  H13S 2479   3.595   1.183   9.494 -0.5631  0.4587 -1.3311
   19SAPC  C214 2480   3.422   1.248   9.405  0.1057  0.1022  0.7795
   19SAPC  H14R 2481   3.388   1.349   9.433 -0.0219  0.6372 -1.1995
   19SAPC  C215 2482   3.388   1.206   9.280 -0.8078  0.5272 -0.3089
   19SAPC  H15R 2483   3.325   1.268   9.215 -1.9312 -1.0999 -0.8214
   19SAPC  C216 2484   3.405   1.058   9.238 -0.6087  0.1971 -0.2522
   19SAPC  H16R 2485   3.315   1.021   9.186 -0.3007 -0.1029 -0.5692
   19SAPC  H16S 2486   3.430   0.990   9.322 -1.7865  1.3025  1.0438
   19SAPC  C217 2487   3.517   1.056   9.131 -0.0336  0.0365  0.0190
   19SAPC  H17R 2488   3.614   1.085   9.176 -0.4285  0.5641  0.5303
   19SAPC  H17S 2489   3.492   1.120   9.044 -1.8189 -1.8861 -1.0007
   19SAPC  C218 2490   3.534   0.912   9.074  0.0260  0.0302  0.3402
   19SAPC  H18R 2491   3.447   0.855   9.034  1.1443 -1.1353 -0.5124
   19SAPC  H18S 2492   3.565   0.852   9.162  2.0471  1.9904  1.0451
   19SAPC  C219 2493   3.647   0.907   8.974 -0.2245 -0.4300  0.5841
   19SAPC  H19R 2494   3.722   0.982   9.006 -0.5568 -0.3993  1.3259
   19SAPC  H19S 2495   3.608   0.941   8.876 -0.2550  1.3951  1.1959
   19SAPC  C220 2496   3.718   0.775   8.949  0.4021 -0.0395 -0.2956
   19SAPC  H20R 2497   3.768   0.732   9.039  2.4220 -0.9096 -1.7662
   19SAPC  H20S 2498   3.801   0.794   8.877 -1.0778 -2.8833 -2.9711
   19SAPC  H20T 2499   3.648   0.705   8.900 -0.7153 -0.4325  1.7329
   19SAPC   C33 2500   2.702   1.838   9.937 -0.6071 -0.4134  0.2526
   19SAPC   H3X 2501   2.681   1.888   9.840  1.4203  0.1832  0.0687
   19SAPC   H3Y 2502   2.602   1.814   9.980 -1.5822  0.4950 -1.4104
   19SAPC   C34 2503   2.780   1.712   9.912 -0.2214  0.1149  0.1267
   19SAPC   H4X 2504   2.705   1.648   9.861  1.2975 -0.1796 -1.8674
   19SAPC   H4Y 2505   2.824   1.656   9.997  0.8826 -1.0222 -1.1570
   19SAPC   C35 2506   2.890   1.732   9.804  0.3468 -0.6423  0.3441
   19SAPC   H5X 2507   2.962   1.648   9.810  1.3564  0.1541 -0.3669
   19SAPC   H5Y 2508   2.944   1.825   9.829 -0.9593  0.4555 -0.7599
   19SAPC   C36 2509   2.831   1.738   9.664 -0.0304  0.1865  0.3675
   19SAPC   H6X 2510   2.729   1.693   9.663 -0.9694  2.1755  1.4613
   19SAPC   H6Y 2511   2.881   1.670   9.591  0.0057 -0.7067  1.1950
   19SAPC   C37 2512   2.827   1.875   9.598 -0.4945  0.5805  0.1151
   19SAPC   H7X 2513   2.935   1.897   9.581  0.9802 -3.3144  2.9237
   19SAPC   H7Y 2514   2.783   1.945   9.673  1.3450 -1.1972  3.0700
   19SAPC   C38 2515   2.771   1.868   9.456  0.6376 -0.7300  0.2228
   19SAPC   H8X 2516   2.667   1.829   9.461  1.2212 -2.2589  1.9596
   19SAPC   H8Y 2517   2.834   1.794   9.401  1.0867  0.0075 -0.2682
   19SAPC   C39 2518   2.773   2.003   9.394  0.0095 -0.5915 -0.1936
   19SAPC   H9X 2519   2.877   2.031   9.363 -1.0648  1.1917 -2.5067
   19SAPC   H9Y 2520   2.725   2.074   9.464 -1.0498 -0.1417 -1.3394
   19SAPC  C310 2521   2.687   2.017   9.267 -0.0542 -0.2984 -0.1125
   19SAPC  H10X 2522   2.685   2.116   9.216 -0.1761 -0.4357 -0.3750
   19SAPC  H10Y 2523   2.584   2.006   9.307  0.3573 -0.3000  0.9832
   19SAPC  C311 2524   2.728   1.926   9.153  0.3259  0.5009  0.2504
   19SAPC  H11X 2525   2.658   1.947   9.069  0.8795  0.4765 -0.2202
   19SAPC  H11Y 2526   2.713   1.817   9.166  0.4137  0.4115 -0.3631
   19SAPC  C312 2527   2.866   1.967   9.097 -0.0086  0.1112  0.7235
   19SAPC  H12X 2528   2.944   1.931   9.168 -0.6120 -1.4562  0.6523
   19SAPC  H12Y 2529   2.869   2.075   9.074  1.5537  0.1124  0.8489
   19SAPC  C313 2530   2.903   1.899   8.965  0.1212  0.1390 -0.1808
   19SAPC  H13X 2531   2.882   1.790   8.965 -0.9682  0.3337  0.4869
   19SAPC  H13Y 2532   3.012   1.895   8.944 -0.0489  0.9276 -1.3183
   19SAPC  C314 2533   2.845   1.978   8.849 -0.0969  0.6345  0.2496
   19SAPC  H14X 2534   2.906   2.068   8.825 -0.4638  0.3398 -2.0142
   19SAPC  H14Y 2535   2.738   1.998   8.872 -0.1895 -1.0380  1.4851
   19SAPC  C315 2536   2.853   1.902   8.719  1.0728  0.3774  0.2545
   19SAPC  H15X 2537   2.786   1.816   8.737 -1.6697  1.9194 -1.8707
   19SAPC  H15Y 2538   2.955   1.871   8.686  1.0634  0.0919  0.4962
   19SAPC  C316 2539   2.771   1.975   8.606 -0.8214 -0.1767 -0.3474
   19SAPC  H16X 2540   2.818   2.075   8.595 -0.1271 -0.3148  1.1179
   19SAPC  H16Y 2541   2.670   1.998   8.646 -0.7497 -0.3950 -0.0361
   19SAPC  C317 2542   2.749   1.901   8.477  0.5908  0.0579  0.2993
   19SAPC  H17X 2543   2.848   1.868   8.438 -0.0218 -1.0966 -0.3347
   19SAPC  H17Y 2544   2.711   1.973   8.401  1.0369  0.3410  0.3449
   19SAPC  C318 2545   2.653   1.785   8.489 -0.2088 -0.9558  0.1076
   19SAPC  H18X 2546   2.708   1.689   8.501  0.0155 -0.8113  0.2351
   19SAPC  H18Y 2547   2.603   1.777   8.390  1.1127 -1.2770 -0.5667
   19SAPC  H18Z 2548   2.584   1.787   8.575 -1.5404 -2.4697 -0.8686
   20SAPC     N 2549   1.429   3.407  10.972 -0.1397  0.3081 -0.4686
   20SAPC   C12 2550   1.430   3.507  11.089 -0.0286 -0.5092  0.1751
   20SAPC  H12A 2551   1.470   3.461  11.178 -0.8091  0.4343  1.0280
   20SAPC  H12B 2552   1.332   3.544  11.111  1.2297  2.9672  0.4896
   20SAPC   C13 2553   1.566   3.380  10.913 -0.0162  0.0607 -0.5610
   20SAPC  H13A 2554   1.573   3.294  10.848  1.1244  0.1585 -0.5867
   20SAPC  H13B 2555   1.608   3.467  10.864  0.9428 -0.7479 -1.2117
   20SAPC  H13C 2556   1.636   3.353  10.991 -0.4453 -5.6905 -1.7520
   20SAPC   C14 2557   1.360   3.278  11.004  0.0547  0.4589  0.2708
   20SAPC  H14A 2558   1.425   3.221  11.068  1.0447  1.2467 -0.0133
   20SAPC  H14B 2559   1.273   3.292  11.067 -0.0186  0.8910  0.0803
   20SAPC  H14C 2560   1.328   3.228  10.914  2.6832  1.0349 -1.0834
   20SAPC   C15 2561   1.353   3.462  10.861  0.5458 -0.8368  0.1510
   20SAPC  H15A 2562   1.248   3.447  10.879  0.3097 -0.8753 -1.1505
   20SAPC  H15B 2563   1.381   3.566  10.852 -2.3681  0.0546  0.4294
   20SAPC  H15C 2564   1.370   3.403  10.772  2.1332 -3.7856  2.2470
   20SAPC   C11 2565   1.538   3.629  11.074  0.2428  0.0943 -0.5228
   20SAPC  H11A 2566   1.641   3.590  11.082 -0.3097 -1.3891 -0.1948
   20SAPC  H11B 2567   1.522   3.692  11.164 -0.2995  2.8831 -2.4525
   20SAPC     P 2568   1.425   3.814  10.916 -0.1391 -0.2267  0.3393
   20SAPC   O13 2569   1.330   3.765  10.808  0.1476 -0.0123 -0.2800
   20SAPC   O14 2570   1.361   3.861  11.043 -0.7886 -0.1612  0.1135
   20SAPC   O12 2571   1.526   3.695  10.950 -0.8194  0.2345 -0.3975
   20SAPC   O11 2572   1.528   3.923  10.855  0.2836 -0.0609 -0.2670
   20SAPC    C1 2573   1.640   3.886  10.776 -0.1440  0.6421  0.5594
   20SAPC    HA 2574   1.722   3.958  10.795 -1.5958  2.3383  0.6007
   20SAPC    HB 2575   1.685   3.789  10.809  0.1852  1.8011  3.8075
   20SAPC    C2 2576   1.602   3.892  10.631 -0.3451  1.1074  0.2790
   20SAPC    HS 2577   1.528   3.973  10.615  1.1279  2.3078 -0.7621
   20SAPC   O21 2578   1.560   3.756  10.595 -0.2329  0.4176 -0.6701
   20SAPC   C21 2579   1.464   3.753  10.505 -0.0573 -0.6713  1.2948
   20SAPC   O22 2580   1.395   3.848  10.472 -0.1915 -0.2086  0.5674
   20SAPC   C22 2581   1.453   3.616  10.433 -0.1658  1.2083 -0.0165
   20SAPC   H2R 2582   1.474   3.547  10.518  0.8726  1.6638  0.1179
   20SAPC   H2S 2583   1.347   3.605  10.402 -0.9214 -1.5936  2.9630
   20SAPC    C3 2584   1.724   3.928  10.543  0.3659 -0.2176 -0.1254
   20SAPC    HX 2585   1.808   3.859  10.564  0.5197  0.8172  3.0946
   20SAPC    HY 2586   1.755   4.031  10.570 -1.1131  0.2623 -0.1982
   20SAPC   O31 2587   1.687   3.920  10.401 -0.4719 -0.2686  0.4289
   20SAPC   C31 2588   1.618   4.025  10.360  0.2722 -0.7253 -0.1102
   20SAPC   O32 2589   1.588   4.123  10.431 -0.3206 -0.2953 -0.0104
   20SAPC   C32 2590   1.569   4.006  10.210  0.0579 -0.0268 -0.1916
   20SAPC   H2X 2591   1.554   4.108  10.168  0.9561  0.1753 -0.0392
   20SAPC   H2Y 2592   1.469   3.959  10.208  0.3385 -0.6242 -0.5143
   20SAPC   C23 2593   1.544   3.606  10.311  0.3015 -0.0613 -0.1499
   20SAPC   H3R 2594   1.650   3.616  10.340  0.5661 -2.8967  0.1667
   20SAPC   H3S 2595   1.521   3.691  10.244 -1.7138 -0.6540 -0.2769
   20SAPC   C24 2596   1.535   3.478  10.217  0.3527 -0.0053 -0.2807
   20SAPC   H4R 2597   1.571   3.398  10.285 -1.1483 -1.4572 -1.1360
   20SAPC   H4S 2598   1.609   3.499  10.136 -0.6772  0.4223 -1.1382
   20SAPC   C25 2599   1.399   3.433  10.162  0.2077 -0.4568  0.0508
   20SAPC   H5R 2600   1.312   3.411  10.226 -2.2782 -1.5551 -3.3896
   20SAPC   C26 2601   1.379   3.412  10.037  0.2623  0.1746  0.2632
   20SAPC   H6R 2602   1.284   3.365  10.008  0.1010  0.6320  0.0361
   20SAPC   C27 2603   1.484   3.427   9.928 -0.3943 -0.3478 -0.1201
   20SAPC   H7R 2604   1.576   3.369   9.952  1.1417  2.5337  1.5053
   20SAPC   H7S 2605   1.514   3.533   9.912  0.8894 -0.6390  0.2973
   20SAPC   C28 2606   1.448   3.369   9.791 -0.1591 -1.0115  0.3581
   20SAPC   H8R 2607   1.359   3.305   9.780  1.3475 -3.0996 -0.6421
   20SAPC   C29 2608   1.522   3.371   9.678  0.7386 -0.5469  0.3266
   20SAPC   H9R 2609   1.482   3.317   9.591  0.4816 -2.0230  1.3211
   20SAPC  C210 2610   1.652   3.442   9.668  0.1325  0.2141  1.0326
   20SAPC  H10R 2611   1.733   3.367   9.662 -2.5681 -2.7746 -0.4691
   20SAPC  H10S 2612   1.667   3.496   9.765 -1.8731 -1.4159  2.3374
   20SAPC  C211 2613   1.667   3.548   9.564  0.3772  1.1135  0.0128
   20SAPC  H11R 2614   1.667   3.649   9.607  2.3329 -0.2252  3.5614
   20SAPC  C212 2615   1.698   3.517   9.437 -0.4041  0.3541 -0.5786
   20SAPC  H12R 2616   1.684   3.600   9.366 -0.3013  0.1652 -0.8210
   20SAPC  C213 2617   1.727   3.382   9.379  0.4340 -0.0572  0.5061
   20SAPC  H13R 2618   1.765   3.310   9.453  2.2819 -2.9276 -2.9461
   20SAPC  H13S 2619   1.817   3.395   9.315 -0.9717  0.2612 -1.5239
   20SAPC  C214 2620   1.625   3.317   9.292 -0.5786  0.4631 -0.1563
   20SAPC  H14R 2621   1.570   3.234   9.337  1.4969 -0.8240  0.1272
   20SAPC  C215 2622   1.592   3.357   9.167  0.5072  0.0170  0.0100
   20SAPC  H15R 2623   1.505   3.307   9.121 -0.2788  2.0670 -0.8386
   20SAPC  C216 2624   1.650   3.474   9.087  0.1845 -0.6004 -0.4264
   20SAPC  H16R 2625   1.732   3.522   9.145 -0.3861  3.5505 -2.7037
   20SAPC  H16S 2626   1.570   3.549   9.070 -0.3585 -1.3486 -1.2631
   20SAPC  C217 2627   1.725   3.432   8.957 -0.1848  0.5868 -0.6091
   20SAPC  H17R 2628   1.814   3.374   8.990  0.8427  2.0114 -0.7414
   20SAPC  H17S 2629   1.768   3.522   8.908  0.0997  0.6845 -0.1852
   20SAPC  C218 2630   1.625   3.365   8.862  0.3506 -0.4355  0.8208
   20SAPC  H18R 2631   1.538   3.433   8.848 -0.3289 -1.4165  0.1577
   20SAPC  H18S 2632   1.586   3.274   8.912  0.1478 -0.7415  0.1291
   20SAPC  C219 2633   1.688   3.319   8.737  0.0308  0.6870  0.4353
   20SAPC  H19R 2634   1.767   3.245   8.758  0.3111  0.8724  0.0544
   20SAPC  H19S 2635   1.733   3.413   8.697 -0.7499  1.3581  1.0819
   20SAPC  C220 2636   1.583   3.272   8.632 -0.0451  0.2967  0.5661
   20SAPC  H20R 2637   1.499   3.345   8.631 -0.3186  0.1329 -3.2620
   20SAPC  H20S 2638   1.548   3.169   8.652 -0.4164  0.0673 -1.1054
   20SAPC  H20T 2639   1.631   3.275   8.531 -1.7848  2.4793 -0.2878
   20SAPC   C33 2640   1.658   3.934  10.117 -0.7758 -0.5528  0.3706
   20SAPC   H3X 2641   1.701   3.844  10.165  0.2394 -0.0307  0.4794
   20SAPC   H3Y 2642   1.750   3.991  10.091 -0.5271 -1.3206 -0.4734
   20SAPC   C34 2643   1.586   3.908   9.985 -0.3035 -0.2463 -1.4956
   20SAPC   H4X 2644   1.551   4.009   9.956 -0.7685 -0.0043 -0.1390
   20SAPC   H4Y 2645   1.498   3.841   9.996 -0.1154 -0.1880  0.9626
   20SAPC   C35 2646   1.681   3.854   9.883  0.0554  0.0596  0.5877
   20SAPC   H5X 2647   1.670   3.744   9.877  1.7998 -0.1365  0.5123
   20SAPC   H5Y 2648   1.788   3.874   9.905  0.6775 -3.1014  0.9166
   20SAPC   C36 2649   1.653   3.910   9.748 -0.2918  0.0169  0.1279
   20SAPC   H6X 2650   1.733   3.864   9.686 -0.5527 -1.6454  0.9677
   20SAPC   H6Y 2651   1.670   4.020   9.754  2.7764 -0.2568 -1.5903
   20SAPC   C37 2652   1.522   3.875   9.688 -0.4957  1.2531  0.1238
   20SAPC   H7X 2653   1.449   3.928   9.754  0.7429  0.5968  2.1158
   20SAPC   H7Y 2654   1.507   3.765   9.685  1.4127  0.9894 -1.3552
   20SAPC   C38 2655   1.522   3.926   9.540  0.5080 -0.6680 -0.5975
   20SAPC   H8X 2656   1.608   3.891   9.479  2.2357  1.7084  0.3298
   20SAPC   H8Y 2657   1.545   4.034   9.543  1.7608 -0.9210 -0.5801
   20SAPC   C39 2658   1.379   3.911   9.471 -0.4816 -0.2381 -0.0758
   20SAPC   H9X 2659   1.372   4.002   9.406  0.2786 -0.3984 -0.3895
   20SAPC   H9Y 2660   1.304   3.912   9.553 -1.0583 -1.8774 -0.5452
   20SAPC  C310 2661   1.353   3.791   9.382 -0.0642  0.3344 -0.4909
   20SAPC  H10X 2662   1.249   3.794   9.344 -1.4489 -2.2317  2.6670
   20SAPC  H10Y 2663   1.360   3.701   9.447 -1.3991 -0.3182 -1.2038
   20SAPC  C311 2664   1.444   3.753   9.261 -0.7809 -0.9852 -0.5348
   20SAPC  H11X 2665   1.442   3.645   9.235 -0.6628 -0.6711 -1.9145
   20SAPC  H11Y 2666   1.547   3.783   9.289 -1.3832  2.0375 -1.2410
   20SAPC  C312 2667   1.408   3.826   9.127  0.2961  0.5711 -0.2650
   20SAPC  H12X 2668   1.409   3.933   9.157 -1.2935  0.2676  1.0216
   20SAPC  H12Y 2669   1.303   3.810   9.096 -0.2853  0.2896  1.6812
   20SAPC  C313 2670   1.503   3.806   9.007  0.2504  0.2381  0.2389
   20SAPC  H13X 2671   1.476   3.719   8.943 -1.6689 -0.3765  1.8001
   20SAPC  H13Y 2672   1.609   3.796   9.040  1.6068  0.3043 -3.5860
   20SAPC  C314 2673   1.500   3.936   8.918 -0.5153 -0.5530 -0.2461
   20SAPC  H14X 2674   1.555   4.015   8.974 -1.2976  0.5240 -0.9612
   20SAPC  H14Y 2675   1.395   3.963   8.895 -0.7930 -1.1033  0.3155
   20SAPC  C315 2676   1.570   3.930   8.783 -0.8606  0.2440  0.3545
   20SAPC  H15X 2677   1.680   3.916   8.782 -0.8378  0.3772 -0.9864
   20SAPC  H15Y 2678   1.561   4.029   8.733 -0.2848  1.1253  1.9405
   20SAPC  C316 2679   1.522   3.822   8.691  0.2622 -0.1527  0.5701
   20SAPC  H16X 2680   1.412   3.831   8.676  0.4579  1.6298 -0.0681
   20SAPC  H16Y 2681   1.530   3.724   8.743 -2.6494  0.2933  2.0614
   20SAPC  C317 2682   1.601   3.818   8.557  0.4179  0.1240 -0.5369
   20SAPC  H17X 2683   1.702   3.781   8.585  0.3638 -0.7626 -1.4375
   20SAPC  H17Y 2684   1.597   3.914   8.502 -1.6771  1.4011  1.6832
   20SAPC  C318 2685   1.543   3.702   8.481 -1.0569  0.0786 -0.0937
   20SAPC  H18X 2686   1.612   3.674   8.400  0.2103 -0.2848  1.0710
   20SAPC  H18Y 2687   1.440   3.727   8.446 -1.6187  0.1511  1.4841
   20SAPC  H18Z 2688   1.536   3.607   8.539 -0.9191 -0.1799 -0.5008
   21SAPC     N 2689   6.537   4.907  11.127  0.5091 -0.3310 -0.3120
   21SAPC   C12 2690   6.448   4.976  11.028 -0.8508 -0.3967  0.3463
   21SAPC  H12A 2691   6.474   4.957  10.925 -0.2296  0.4905  0.3295
   21SAPC  H12B 2692   6.455   5.084  11.031 -2.3550 -0.2683  0.3091
   21SAPC   C13 2693   6.563   4.765  11.091  0.0622  0.0749  0.3933
   21SAPC  H13A 2694   6.639   4.716  11.151 -0.0309  0.5763  0.9253
   21SAPC  H13B 2695   6.472   4.708  11.092  0.2464 -0.2225  0.5294
   21SAPC  H13C 2696   6.596   4.761  10.988 -2.5382 -0.9008 -0.4812
   21SAPC   C14 2697   6.677   4.971  11.121  0.7323  0.0573 -0.1885
   21SAPC  H14A 2698   6.714   4.979  11.020  0.2233 -1.0865 -0.4814
   21SAPC  H14B 2699   6.671   5.072  11.159 -1.8337 -0.6180  1.4586
   21SAPC  H14C 2700   6.750   4.915  11.178 -1.5358 -2.2262  0.6402
   21SAPC   C15 2701   6.486   4.914  11.272  0.2176 -0.0954 -0.6453
   21SAPC  H15A 2702   6.477   5.018  11.300  1.4151 -0.2782  0.4952
   21SAPC  H15B 2703   6.394   4.859  11.285  1.4376 -2.1942 -0.4235
   21SAPC  H15C 2704   6.549   4.864  11.344  0.6949  0.0172 -0.9814
   21SAPC   C11 2705   6.301   4.951  11.030  0.2271 -0.0439  0.2278
   21SAPC  H11A 2706   6.266   5.009  10.942 -0.9768 -2.6417 -1.1160
   21SAPC  H11B 2707   6.253   4.987  11.124  1.9410 -0.5678  1.3560
   21SAPC     P 2708   6.191   4.747  10.904 -0.2146 -0.0739 -0.0226
   21SAPC   O13 2709   6.215   4.602  10.909 -0.4300 -0.3426 -0.5419
   21SAPC   O14 2710   6.049   4.793  10.930  0.2524  0.0866  0.6655
   21SAPC   O12 2711   6.283   4.814  11.013 -0.7672  0.2829 -0.1672
   21SAPC   O11 2712   6.240   4.818  10.769 -0.6360  0.3453 -0.3533
   21SAPC    C1 2713   6.166   4.870  10.660 -0.1639 -0.0638 -0.0763
   21SAPC    HA 2714   6.101   4.954  10.693  0.1072  1.2894 -2.7118
   21SAPC    HB 2715   6.225   4.915  10.578 -0.1938  1.0557  0.5023
   21SAPC    C2 2716   6.086   4.766  10.585 -0.0610 -0.3059  0.6500
   21SAPC    HS 2717   6.030   4.715  10.666  0.0231  0.2754  1.0786
   21SAPC   O21 2718   6.175   4.676  10.514  0.4193  0.0992  0.2751
   21SAPC   C21 2719   6.167   4.550  10.547  0.2902 -0.6353 -0.7242
   21SAPC   O22 2720   6.094   4.499  10.629  0.4502 -0.7804  0.0829
   21SAPC   C22 2721   6.257   4.456  10.461 -0.0383  0.1715  0.2706
   21SAPC   H2R 2722   6.338   4.418  10.526 -0.7915 -1.1390  0.4769
   21SAPC   H2S 2723   6.198   4.369  10.427 -0.8876  0.7944  0.1173
   21SAPC    C3 2724   5.986   4.843  10.486 -0.5220  0.2648 -0.0054
   21SAPC    HX 2725   5.935   4.923  10.543  2.1614  1.3974  0.9803
   21SAPC    HY 2726   5.904   4.783  10.441  0.5565 -0.0949 -1.6002
   21SAPC   O31 2727   6.070   4.902  10.376  0.1442  0.1765 -0.5878
   21SAPC   C31 2728   6.082   4.821  10.277  0.0997 -0.7844  0.0622
   21SAPC   O32 2729   6.017   4.718  10.260  0.2490  0.8898 -0.1124
   21SAPC   C32 2730   6.184   4.877  10.178  0.7282  0.0118  0.3267
   21SAPC   H2X 2731   6.285   4.889  10.223  0.2830  0.4117  1.2392
   21SAPC   H2Y 2732   6.150   4.978  10.144 -0.6419 -0.6259 -0.2760
   21SAPC   C23 2733   6.303   4.531  10.332 -0.9539 -0.4886 -0.6835
   21SAPC   H3R 2734   6.331   4.636  10.354  3.8964 -1.4301 -1.4174
   21SAPC   H3S 2735   6.218   4.528  10.260 -0.6712 -0.8236 -1.0019
   21SAPC   C24 2736   6.433   4.464  10.269 -0.0232 -0.0968 -0.3257
   21SAPC   H4R 2737   6.507   4.486  10.349 -1.0620  2.0466  0.1013
   21SAPC   H4S 2738   6.459   4.531  10.185 -1.4211 -0.1185 -0.7896
   21SAPC   C25 2739   6.427   4.315  10.248  0.7872  0.1710  0.3027
   21SAPC   H5R 2740   6.423   4.262  10.344  0.2890  3.9883  2.5702
   21SAPC   C26 2741   6.427   4.248  10.130  0.6210  0.1841  0.4671
   21SAPC   H6R 2742   6.417   4.139  10.132  1.1035  0.0883 -0.8929
   21SAPC   C27 2743   6.431   4.315   9.997  0.0767  0.2844  0.8339
   21SAPC   H7R 2744   6.450   4.232   9.925  0.2589  0.3256  0.8335
   21SAPC   H7S 2745   6.516   4.386   9.982 -0.4836  0.5760 -1.3862
   21SAPC   C28 2746   6.295   4.380   9.959  0.1654  0.0171  0.2811
   21SAPC   H8R 2747   6.240   4.416  10.048  0.1598 -1.1922  0.7903
   21SAPC   C29 2748   6.233   4.377   9.838  0.6696  0.3011  0.3374
   21SAPC   H9R 2749   6.133   4.418   9.822 -0.0960 -0.5123  2.7338
   21SAPC  C210 2750   6.301   4.316   9.721 -0.3740 -0.5341 -0.9350
   21SAPC  H10R 2751   6.318   4.207   9.735  2.3149 -0.1701 -0.8002
   21SAPC  H10S 2752   6.403   4.360   9.732 -0.7075 -0.3155  1.8164
   21SAPC  C211 2753   6.242   4.335   9.584  0.0439 -0.2624 -0.3757
   21SAPC  H11R 2754   6.136   4.362   9.575  0.4506  0.9298 -2.4283
   21SAPC  C212 2755   6.326   4.339   9.478  0.2212 -0.2104 -0.0823
   21SAPC  H12R 2756   6.287   4.370   9.380 -0.0709  1.9732  0.6536
   21SAPC  C213 2757   6.478   4.341   9.476  0.2996 -0.1558  0.3722
   21SAPC  H13R 2758   6.521   4.287   9.563 -2.5224 -0.1850  1.8529
   21SAPC  H13S 2759   6.516   4.446   9.468 -0.9851  0.3247  0.3688
   21SAPC  C214 2760   6.511   4.263   9.352  0.1487 -0.2430  0.0625
   21SAPC  H14R 2761   6.453   4.173   9.329  0.1864 -0.5769  1.1922
   21SAPC  C215 2762   6.613   4.283   9.268 -0.4070  0.0688 -0.5068
   21SAPC  H15R 2763   6.633   4.218   9.182  0.4250 -0.4751  0.0828
   21SAPC  C216 2764   6.718   4.392   9.285 -0.0025 -0.4898 -0.3575
   21SAPC  H16R 2765   6.812   4.348   9.327 -0.5619  0.3556  1.9745
   21SAPC  H16S 2766   6.684   4.475   9.350  0.6395  0.2414 -0.9330
   21SAPC  C217 2767   6.759   4.449   9.147  0.4308 -0.0786  0.5509
   21SAPC  H17R 2768   6.673   4.483   9.084 -0.7581 -0.3901  1.9561
   21SAPC  H17S 2769   6.809   4.371   9.085  3.0847  1.9006  0.0170
   21SAPC  C218 2770   6.845   4.576   9.154  0.3103 -0.2905 -0.3241
   21SAPC  H18R 2771   6.936   4.543   9.208  0.0228 -1.9768 -0.8323
   21SAPC  H18S 2772   6.801   4.652   9.223  2.4671  1.1026 -0.3866
   21SAPC  C219 2773   6.898   4.637   9.026 -0.0700  0.5947  0.2539
   21SAPC  H19R 2774   6.948   4.569   8.954 -1.9643 -0.4683 -0.1179
   21SAPC  H19S 2775   6.975   4.712   9.055  0.6380 -0.9439  2.7589
   21SAPC  C220 2776   6.788   4.699   8.947  0.1878 -0.3033  0.2110
   21SAPC  H20R 2777   6.740   4.637   8.868 -0.7592  1.2643 -0.4960
   21SAPC  H20S 2778   6.829   4.783   8.888  1.1023 -0.0245  1.2172
   21SAPC  H20T 2779   6.715   4.747   9.016  1.6360  2.3289  0.0261
   21SAPC   C33 2780   6.193   4.789  10.052  0.0825 -0.9214 -0.0730
   21SAPC   H3X 2781   6.094   4.784  10.001 -0.9939 -1.9647  1.9913
   21SAPC   H3Y 2782   6.223   4.688  10.085  1.0598 -0.4609  0.4867
   21SAPC   C34 2783   6.287   4.845   9.948  0.3227 -0.2162  0.1253
   21SAPC   H4X 2784   6.390   4.843   9.990  0.0716  4.0450  1.4299
   21SAPC   H4Y 2785   6.264   4.953   9.932 -1.2951 -0.6100 -0.3600
   21SAPC   C35 2786   6.274   4.761   9.822  0.0826 -0.0421 -0.4821
   21SAPC   H5X 2787   6.170   4.732   9.798 -0.0042 -0.7398  0.6524
   21SAPC   H5Y 2788   6.322   4.664   9.848 -2.3001 -0.7346  1.7410
   21SAPC   C36 2789   6.337   4.831   9.701 -0.7002  0.6597  0.1287
   21SAPC   H6X 2790   6.442   4.847   9.733 -0.3177 -1.1825 -0.1077
   21SAPC   H6Y 2791   6.287   4.928   9.678 -1.4575 -0.1046 -1.6242
   21SAPC   C37 2792   6.343   4.744   9.571 -0.2955  0.0370  0.5106
   21SAPC   H7X 2793   6.238   4.743   9.535  0.3099  1.8930 -1.5573
   21SAPC   H7Y 2794   6.366   4.640   9.604 -0.7555 -0.1040  0.4034
   21SAPC   C38 2795   6.419   4.808   9.453 -0.2900 -0.8522 -0.7562
   21SAPC   H8X 2796   6.520   4.824   9.497 -0.1944 -1.4139 -0.7697
   21SAPC   H8Y 2797   6.373   4.909   9.444  3.2867  1.0322  0.3487
   21SAPC   C39 2798   6.419   4.740   9.321 -0.3178  0.1169 -0.0670
   21SAPC   H9X 2799   6.318   4.744   9.274 -0.3095  0.2528 -0.0734
   21SAPC   H9Y 2800   6.458   4.636   9.322 -2.1490 -0.6362  2.2227
   21SAPC  C310 2801   6.506   4.820   9.220  0.3345  0.4864  0.1604
   21SAPC  H10X 2802   6.533   4.751   9.137 -1.7613 -0.0910 -0.0998
   21SAPC  H10Y 2803   6.600   4.856   9.266  0.6445  1.5194 -1.2179
   21SAPC  C311 2804   6.443   4.953   9.164 -0.4197  0.1366 -0.4624
   21SAPC  H11X 2805   6.536   4.989   9.117 -0.3988  1.7496  0.7191
   21SAPC  H11Y 2806   6.413   5.026   9.243  0.7197  2.4234 -2.0370
   21SAPC  C312 2807   6.348   4.938   9.050  0.3661  0.5679 -0.1527
   21SAPC  H12X 2808   6.273   4.858   9.066  0.7905  0.1707 -0.1063
   21SAPC  H12Y 2809   6.404   4.897   8.963 -0.3229  2.3559 -1.4827
   21SAPC  C313 2810   6.291   5.069   8.998  0.3328 -0.1907  0.2746
   21SAPC  H13X 2811   6.376   5.135   8.972 -0.3687 -0.0418 -1.7975
   21SAPC  H13Y 2812   6.220   5.108   9.075 -0.7957 -0.9889 -0.3483
   21SAPC  C314 2813   6.222   5.071   8.856 -0.2253 -0.6124  0.1621
   21SAPC  H14X 2814   6.130   5.007   8.859 -1.1371  0.6026 -0.8896
   21SAPC  H14Y 2815   6.288   5.032   8.776 -3.0415 -0.7403 -2.3057
   21SAPC  C315 2816   6.183   5.213   8.801  0.5322 -0.4602 -0.2041
   21SAPC  H15X 2817   6.135   5.210   8.701  1.2331  2.0375 -0.6763
   21SAPC  H15Y 2818   6.270   5.282   8.791 -1.2314  1.7267 -1.3803
   21SAPC  C316 2819   6.099   5.300   8.896  0.3524  0.1572 -0.1500
   21SAPC  H16X 2820   6.139   5.290   8.999  0.2651 -0.3207 -0.1600
   21SAPC  H16Y 2821   6.000   5.253   8.913  1.7707 -2.8376  0.5749
   21SAPC  C317 2822   6.086   5.442   8.843 -0.3788  1.7902 -1.5719
   21SAPC  H17X 2823   6.185   5.492   8.856  0.1669 -0.0425  2.6024
   21SAPC  H17Y 2824   6.021   5.500   8.911 -0.5655 -0.0439 -0.1427
   21SAPC  C318 2825   6.042   5.470   8.701 -0.1099 -0.3160  0.4261
   21SAPC  H18X 2826   6.038   5.581   8.692  1.1423 -0.2638  0.3022
   21SAPC  H18Y 2827   5.944   5.418   8.695  0.4485 -1.3160 -0.2615
   21SAPC  H18Z 2828   6.117   5.423   8.634 -1.0607 -2.2113  0.6365
   22SAPC     N 2829   0.816   5.071  10.911  0.4782 -0.2002 -0.3423
   22SAPC   C12 2830   0.807   5.205  10.988  0.4496 -0.3883 -0.5865
   22SAPC  H12A 2831   0.891   5.213  11.056 -1.3441 -0.4374  1.7504
   22SAPC  H12B 2832   0.726   5.187  11.058 -1.2676  0.8497 -2.1774
   22SAPC   C13 2833   0.930   5.082  10.814 -0.3620  0.3741 -1.0484
   22SAPC  H13A 2834   0.936   4.992  10.754  1.2518 -0.6735  0.5643
   22SAPC  H13B 2835   0.902   5.163  10.748  0.7978  0.3701 -1.5728
   22SAPC  H13C 2836   1.017   5.093  10.876 -0.3269 -0.9655 -0.8362
   22SAPC   C14 2837   0.844   4.953  11.005 -0.0729  0.0726 -0.2143
   22SAPC  H14A 2838   0.916   4.985  11.079 -1.2877 -0.1425  1.0948
   22SAPC  H14B 2839   0.760   4.917  11.061 -0.8981  0.4026 -1.2150
   22SAPC  H14C 2840   0.876   4.874  10.938  0.5094  0.2577 -0.1630
   22SAPC   C15 2841   0.692   5.050  10.837 -0.0690  0.2861 -0.6560
   22SAPC  H15A 2842   0.610   5.043  10.907 -0.0063 -1.0764 -0.6958
   22SAPC  H15B 2843   0.671   5.112  10.751 -0.2947 -0.9807 -1.5291
   22SAPC  H15C 2844   0.697   4.949  10.799 -0.8396  0.1014 -0.2957
   22SAPC   C11 2845   0.771   5.336  10.918  0.4460  0.0015 -0.1921
   22SAPC  H11A 2846   0.782   5.427  10.982 -1.8811  0.8928 -0.9681
   22SAPC  H11B 2847   0.663   5.338  10.893  0.2195 -1.5414  0.5529
   22SAPC     P 2848   0.983   5.433  10.797  0.0289  0.2561 -0.3678
   22SAPC   O13 2849   0.978   5.537  10.903  0.6154 -0.5036  0.1635
   22SAPC   O14 2850   1.096   5.336  10.810 -0.2727 -0.0067 -0.5153
   22SAPC   O12 2851   0.846   5.348  10.793  0.1632 -0.4742  1.0314
   22SAPC   O11 2852   1.000   5.494  10.655  0.0132 -0.1567  0.0899
   22SAPC    C1 2853   0.911   5.609  10.638 -0.0462  0.4804  0.4405
   22SAPC    HA 2854   0.804   5.582  10.650  0.0690  0.6425  2.1084
   22SAPC    HB 2855   0.946   5.690  10.705  3.0639 -0.3145 -0.0526
   22SAPC    C2 2856   0.897   5.663  10.491  0.2468  1.5805  0.3183
   22SAPC    HS 2857   0.813   5.735  10.494 -1.5067  0.1053 -4.2362
   22SAPC   O21 2858   0.881   5.559  10.386  0.3394 -0.3179  0.2002
   22SAPC   C21 2859   0.754   5.525  10.366 -0.1364 -0.4035 -0.4475
   22SAPC   O22 2860   0.655   5.563  10.433 -0.6275 -0.3418  0.1282
   22SAPC   C22 2861   0.758   5.430  10.249  0.2354 -0.2877  0.1515
   22SAPC   H2R 2862   0.836   5.457  10.174 -0.4221  1.1127 -0.0589
   22SAPC   H2S 2863   0.795   5.332  10.286  2.0056  0.8687  1.6284
   22SAPC    C3 2864   1.030   5.743  10.472  0.1887 -0.2126 -0.1546
   22SAPC    HX 2865   1.109   5.666  10.456  1.1962  0.6857  0.3820
   22SAPC    HY 2866   1.054   5.787  10.571  0.3608 -0.1702 -0.2155
   22SAPC   O31 2867   1.028   5.849  10.375 -0.3071 -0.1921  0.0418
   22SAPC   C31 2868   1.147   5.918  10.371 -0.4488 -0.1216  1.3194
   22SAPC   O32 2869   1.245   5.888  10.433 -0.0436  0.5562  0.3005
   22SAPC   C32 2870   1.142   6.017  10.258 -1.0984  0.2231 -0.2045
   22SAPC   H2X 2871   1.075   6.100  10.290 -1.3749 -0.4338  0.9566
   22SAPC   H2Y 2872   1.100   5.966  10.168  3.6034  0.4238 -2.8741
   22SAPC   C23 2873   0.620   5.420  10.178  0.0559  1.0845  0.0236
   22SAPC   H3R 2874   0.536   5.390  10.244  1.2128 -0.8847  0.6629
   22SAPC   H3S 2875   0.621   5.344  10.098 -2.1186  1.2661 -0.2379
   22SAPC   C24 2876   0.576   5.549  10.100  0.8863  0.0488  0.5969
   22SAPC   H4R 2877   0.554   5.624  10.179 -0.8260  0.5913 -0.3459
   22SAPC   H4S 2878   0.480   5.524  10.052  1.0942  2.1264 -1.0461
   22SAPC   C25 2879   0.681   5.585   9.998 -0.5941  0.7708  0.0426
   22SAPC   H5R 2880   0.723   5.499   9.945  1.3639  1.4832  0.3255
   22SAPC   C26 2881   0.746   5.700   9.966  0.0676 -0.3264 -0.7613
   22SAPC   H6R 2882   0.833   5.696   9.899  0.6826 -2.2529  0.1036
   22SAPC   C27 2883   0.729   5.834  10.022  0.3444 -0.5130  0.1263
   22SAPC   H7R 2884   0.619   5.842  10.035  0.3323  1.8264 -0.8546
   22SAPC   H7S 2885   0.739   5.907   9.938 -2.4594 -0.4409 -0.2475
   22SAPC   C28 2886   0.802   5.879  10.147 -0.0140  0.5625 -0.0451
   22SAPC   H8R 2887   0.853   5.800  10.205 -2.0001 -2.1068 -1.6636
   22SAPC   C29 2888   0.816   6.008  10.195  0.3554  0.3334  0.8825
   22SAPC   H9R 2889   0.859   6.031  10.293  0.1179  0.0292  1.0576
   22SAPC  C210 2890   0.752   6.136  10.132  0.1915 -0.1382  0.7809
   22SAPC  H10R 2891   0.667   6.183  10.186  0.5070  0.8272  0.4563
   22SAPC  H10S 2892   0.705   6.112  10.035  0.2270  1.2349  0.4090
   22SAPC  C211 2893   0.860   6.236  10.108 -0.1514 -0.0038 -0.5811
   22SAPC  H11R 2894   0.874   6.310  10.189  0.9626 -1.5366  0.6877
   22SAPC  C212 2895   0.950   6.229  10.003 -0.1887  0.1286 -0.5107
   22SAPC  H12R 2896   1.009   6.321   9.990 -2.4224  1.5382 -1.3796
   22SAPC  C213 2897   0.962   6.118   9.903 -0.1283  0.1403 -0.3239
   22SAPC  H13R 2898   0.868   6.066   9.877 -0.2971  0.8090 -1.0714
   22SAPC  H13S 2899   1.012   6.037   9.961  0.4628  1.7569  1.5623
   22SAPC  C214 2900   1.021   6.152   9.767  0.0710  0.2216 -0.3648
   22SAPC  H14R 2901   1.108   6.219   9.768 -0.3360  0.8615  2.7699
   22SAPC  C215 2902   0.972   6.107   9.652 -0.0518 -1.6254 -0.3887
   22SAPC  H15R 2903   1.027   6.136   9.561 -1.1023 -1.3163 -0.9409
   22SAPC  C216 2904   0.845   6.030   9.629  0.7633 -0.2046 -0.1435
   22SAPC  H16R 2905   0.811   6.042   9.524 -3.3232  2.0406  1.1948
   22SAPC  H16S 2906   0.756   6.061   9.689  1.1784 -1.4517  1.1608
   22SAPC  C217 2907   0.875   5.878   9.669  0.4445 -0.2556  0.4113
   22SAPC  H17R 2908   0.772   5.838   9.683  1.0305 -1.5554  1.1401
   22SAPC  H17S 2909   0.916   5.868   9.772  0.6461 -2.6889  0.1495
   22SAPC  C218 2910   0.947   5.791   9.576 -0.3873  0.1967  0.6410
   22SAPC  H18R 2911   0.968   5.693   9.624 -0.2526  0.2479  0.6869
   22SAPC  H18S 2912   1.048   5.835   9.556 -0.2601 -0.2307  0.3209
   22SAPC  C219 2913   0.872   5.754   9.441 -0.2175  0.0044 -0.2991
   22SAPC  H19R 2914   0.842   5.845   9.385  0.7213  1.6574  1.7284
   22SAPC  H19S 2915   0.774   5.718   9.477  0.5023 -1.1315  0.5881
   22SAPC  C220 2916   0.952   5.664   9.357  0.3110  0.8678  0.7818
   22SAPC  H20R 2917   0.998   5.587   9.423  1.6627 -0.7125 -1.8242
   22SAPC  H20S 2918   1.015   5.743   9.311 -0.5721  1.1876  0.0974
   22SAPC  H20T 2919   0.900   5.605   9.279  0.6424 -0.1705  1.3235
   22SAPC   C33 2920   1.290   6.055  10.224 -0.0167  0.4096 -0.2560
   22SAPC   H3X 2921   1.359   5.969  10.207 -2.0455 -1.1625 -1.1149
   22SAPC   H3Y 2922   1.330   6.115  10.309  2.5461 -1.4680 -0.0095
   22SAPC   C34 2923   1.290   6.137  10.090 -0.3486 -0.0422 -0.2704
   22SAPC   H4X 2924   1.231   6.231  10.098 -0.6617 -0.0809 -1.9259
   22SAPC   H4Y 2925   1.245   6.072  10.012  1.3917 -1.1333 -0.4085
   22SAPC   C35 2926   1.440   6.175  10.067  0.0746 -0.4908 -0.4674
   22SAPC   H5X 2927   1.511   6.097  10.102  1.2089  0.9183  0.5344
   22SAPC   H5Y 2928   1.457   6.268  10.126  1.3204  0.6979 -2.5972
   22SAPC   C36 2929   1.467   6.231   9.927  0.1376 -0.6550  0.3222
   22SAPC   H6X 2930   1.573   6.258   9.911 -0.2485 -0.2464 -1.8608
   22SAPC   H6Y 2931   1.402   6.320   9.916  0.1109 -0.8065 -0.8342
   22SAPC   C37 2932   1.438   6.137   9.813 -0.2811 -0.1661  0.2329
   22SAPC   H7X 2933   1.342   6.081   9.815  0.5474 -1.6557 -0.0391
   22SAPC   H7Y 2934   1.519   6.062   9.816 -0.7611 -0.6619  1.0718
   22SAPC   C38 2935   1.441   6.227   9.684 -0.0680  0.0858 -0.3931
   22SAPC   H8X 2936   1.542   6.274   9.678  0.3968 -0.5096  1.6712
   22SAPC   H8Y 2937   1.382   6.321   9.694 -1.4195 -0.5477 -2.0170
   22SAPC   C39 2938   1.401   6.154   9.559  0.3390  0.2657 -0.4426
   22SAPC   H9X 2939   1.299   6.113   9.573  0.2880 -0.4179 -2.5650
   22SAPC   H9Y 2940   1.466   6.069   9.528 -1.1426 -0.1520 -2.6464
   22SAPC  C310 2941   1.387   6.243   9.431 -0.1139  0.2150 -0.5756
   22SAPC  H10X 2942   1.477   6.308   9.435  0.6606 -0.8603 -0.0422
   22SAPC  H10Y 2943   1.290   6.296   9.445  0.3073  0.9225 -0.2611
   22SAPC  C311 2944   1.381   6.171   9.297  0.3365 -0.2255 -0.3410
   22SAPC  H11X 2945   1.454   6.087   9.301  3.4976  2.1869 -2.7061
   22SAPC  H11Y 2946   1.406   6.241   9.215 -2.2567  0.1164 -0.9242
   22SAPC  C312 2947   1.240   6.112   9.262  0.5414  0.0200  0.0961
   22SAPC  H12X 2948   1.212   6.047   9.348  1.3316 -2.2849 -1.2856
   22SAPC  H12Y 2949   1.249   6.048   9.171 -0.9359 -0.4448  0.2458
   22SAPC  C313 2950   1.129   6.213   9.240  0.0208 -0.4938 -0.0167
   22SAPC  H13X 2951   1.162   6.308   9.192 -1.3358  0.9544  1.7548
   22SAPC  H13Y 2952   1.093   6.250   9.339 -0.1003 -0.6672  0.0040
   22SAPC  C314 2953   1.015   6.160   9.150  0.4643  0.7887 -0.6681
   22SAPC  H14X 2954   0.930   6.232   9.153 -0.1096  0.1442 -1.1996
   22SAPC  H14Y 2955   0.985   6.063   9.195  1.4483  0.3118 -1.0201
   22SAPC  C315 2956   1.054   6.129   9.002  0.3874 -0.1219 -0.0520
   22SAPC  H15X 2957   0.966   6.082   8.953  0.0035  0.4096  0.1246
   22SAPC  H15Y 2958   1.144   6.063   9.004  1.0909  0.8097  2.1982
   22SAPC  C316 2959   1.076   6.261   8.926  0.1150  0.5559 -0.1980
   22SAPC  H16X 2960   1.168   6.304   8.973  0.2702 -0.0880  0.1054
   22SAPC  H16Y 2961   0.995   6.324   8.967  0.9009  0.4675  1.5770
   22SAPC  C317 2962   1.075   6.252   8.772 -0.4782 -0.8923 -0.6824
   22SAPC  H17X 2963   0.992   6.184   8.741 -0.8790 -0.4637 -0.5707
   22SAPC  H17Y 2964   1.164   6.204   8.726  0.9649 -0.9305  1.9587
   22SAPC  C318 2965   1.041   6.386   8.715  0.0985 -0.5898  0.0081
   22SAPC  H18X 2966   1.118   6.466   8.720 -1.3892  0.9091 -0.2664
   22SAPC  H18Y 2967   0.951   6.430   8.763 -1.0985  1.4894 -3.6887
   22SAPC  H18Z 2968   0.999   6.368   8.613  0.2391 -1.3901  0.0832
   23SAPC     N 2969   0.911   6.281  10.884  0.3470  0.1639  0.0681
   23SAPC   C12 2970   0.795   6.371  10.854  0.2912 -0.6049  0.7907
   23SAPC  H12A 2971   0.751   6.407  10.945 -1.0585  1.7476 -0.7034
   23SAPC  H12B 2972   0.712   6.312  10.817 -1.0081  0.1772  2.3382
   23SAPC   C13 2973   0.952   6.211  10.759  0.3961 -0.6277  0.1154
   23SAPC  H13A 2974   0.977   6.277  10.677  0.3153  0.6119  1.0655
   23SAPC  H13B 2975   1.029   6.141  10.787  0.0313 -1.4971 -0.9513
   23SAPC  H13C 2976   0.879   6.136  10.731  0.4874 -0.8324  0.4129
   23SAPC   C14 2977   1.031   6.340  10.948  0.1635  0.2850  0.6787
   23SAPC  H14A 2978   1.016   6.391  11.042 -0.0706 -1.8421  1.8723
   23SAPC  H14B 2979   1.119   6.278  10.957  0.3950  0.5491  0.2522
   23SAPC  H14C 2980   1.070   6.405  10.872 -0.7040 -1.3281 -1.2412
   23SAPC   C15 2981   0.863   6.173  10.977  0.2335 -0.3071 -0.0596
   23SAPC  H15A 2982   0.774   6.126  10.937 -1.4384  2.9570 -0.5606
   23SAPC  H15B 2983   0.937   6.095  10.987  2.0700  1.3976  0.5148
   23SAPC  H15C 2984   0.855   6.186  11.084 -0.0861 -2.2145  0.1722
   23SAPC   C11 2985   0.824   6.472  10.742  0.1853 -0.5035  0.0206
   23SAPC  H11A 2986   0.740   6.540  10.717 -0.5026 -1.3329 -0.0112
   23SAPC  H11B 2987   0.828   6.417  10.646  1.2210  1.6008 -1.2000
   23SAPC     P 2988   1.046   6.572  10.649  0.0478  0.4000  0.8617
   23SAPC   O13 2989   0.998   6.684  10.562  0.4118 -0.2261 -0.3345
   23SAPC   O14 2990   1.172   6.590  10.722  0.1783 -0.3303  0.3980
   23SAPC   O12 2991   0.933   6.557  10.759 -0.4285 -0.5705  0.2569
   23SAPC   O11 2992   1.047   6.440  10.559 -0.1972  0.0409 -0.4496
   23SAPC    C1 2993   1.171   6.387  10.512  0.7240 -0.3792 -0.1775
   23SAPC    HA 2994   1.242   6.376  10.596  0.8457 -0.8416 -0.3376
   23SAPC    HB 2995   1.148   6.290  10.464 -0.1819 -0.3463  0.1711
   23SAPC    C2 2996   1.243   6.484  10.405  0.4198  0.0980 -0.6499
   23SAPC    HS 2997   1.262   6.585  10.447 -0.4419 -0.2113  0.5355
   23SAPC   O21 2998   1.161   6.484  10.290  0.3701  0.4375 -0.1386
   23SAPC   C21 2999   1.169   6.591  10.220 -0.2489  0.3810 -0.0114
   23SAPC   O22 3000   1.235   6.688  10.244  0.2520 -0.0841  0.8308
   23SAPC   C22 3001   1.068   6.586  10.102 -0.1736  0.2798 -0.5208
   23SAPC   H2R 3002   1.000   6.499  10.112 -0.1464  0.3984  0.9073
   23SAPC   H2S 3003   1.002   6.674  10.117  0.7094  0.5322  2.5299
   23SAPC    C3 3004   1.380   6.413  10.372 -0.2437 -0.6388  0.0147
   23SAPC    HX 3005   1.338   6.314  10.342 -2.5247  0.0004  0.8538
   23SAPC    HY 3006   1.438   6.411  10.467 -1.1530  2.4001  0.7423
   23SAPC   O31 3007   1.459   6.475  10.270  0.0335  0.5675  0.4270
   23SAPC   C31 3008   1.526   6.584  10.294  0.0736 -0.1513 -0.0192
   23SAPC   O32 3009   1.522   6.650  10.397  0.2987  0.5240  0.5146
   23SAPC   C32 3010   1.598   6.628  10.160  0.6013  0.4279  0.2374
   23SAPC   H2X 3011   1.681   6.554  10.151  0.2486 -0.0996  1.1927
   23SAPC   H2Y 3012   1.644   6.730  10.161  1.0275  0.2411 -0.2032
   23SAPC   C23 3013   1.133   6.579   9.965  0.6122  0.1072 -0.6929
   23SAPC   H3R 3014   1.200   6.491   9.964  2.8158  1.6845  0.0882
   23SAPC   H3S 3015   1.197   6.669   9.953  2.4758 -1.1899 -0.9656
   23SAPC   C24 3016   1.040   6.544   9.839  0.3830  0.0550 -0.9620
   23SAPC   H4R 3017   0.952   6.480   9.863  1.9080 -1.7325  0.1708
   23SAPC   H4S 3018   1.095   6.479   9.769 -1.3608 -2.3517 -0.2324
   23SAPC   C25 3019   0.997   6.664   9.767 -0.2052  0.2058  0.6523
   23SAPC   H5R 3020   1.023   6.763   9.806  0.9612  0.2390 -0.1726
   23SAPC   C26 3021   0.926   6.667   9.653  0.2932 -0.5451 -0.0013
   23SAPC   H6R 3022   0.919   6.763   9.601  2.1728 -0.5715 -0.3637
   23SAPC   C27 3023   0.904   6.533   9.574 -0.2505 -0.6240  0.0645
   23SAPC   H7R 3024   0.835   6.567   9.494  1.4204  2.0519 -0.3910
   23SAPC   H7S 3025   0.847   6.455   9.629  1.2513 -1.0183  1.1257
   23SAPC   C28 3026   1.030   6.482   9.504 -0.7556 -0.4078 -0.6064
   23SAPC   H8R 3027   1.073   6.393   9.553 -2.0041 -0.0155  1.3383
   23SAPC   C29 3028   1.090   6.529   9.388 -0.4202 -0.2735 -0.2337
   23SAPC   H9R 3029   1.183   6.475   9.363 -0.0186  0.4837 -0.3785
   23SAPC  C210 3030   1.044   6.645   9.304 -0.1327  0.3931  0.1801
   23SAPC  H10R 3031   1.111   6.733   9.294 -0.8414  0.7078 -2.7437
   23SAPC  H10S 3032   0.945   6.678   9.341 -0.7165 -0.7352 -0.3264
   23SAPC  C211 3033   1.014   6.591   9.166  0.2745  1.1099 -0.3212
   23SAPC  H11R 3034   0.925   6.527   9.159  0.7423  0.3261  0.7189
   23SAPC  C212 3035   1.084   6.607   9.056 -0.3430 -0.5197 -0.5973
   23SAPC  H12R 3036   1.044   6.565   8.963  0.8205 -0.3111 -1.2046
   23SAPC  C213 3037   1.224   6.674   9.051  0.5404  0.6886  0.2792
   23SAPC  H13R 3038   1.285   6.648   9.140 -0.0331 -1.7393  0.0366
   23SAPC  H13S 3039   1.219   6.785   9.045 -2.5883  0.5939 -0.8116
   23SAPC  C214 3040   1.296   6.611   8.938 -0.3549 -0.0863  0.3989
   23SAPC  H14R 3041   1.336   6.511   8.956 -0.8530 -0.4501 -0.4897
   23SAPC  C215 3042   1.308   6.678   8.823  0.0312  0.3304  0.6373
   23SAPC  H15R 3043   1.348   6.623   8.737  1.1497  1.0004  0.7165
   23SAPC  C216 3044   1.260   6.811   8.787  0.4315 -0.6603  0.0782
   23SAPC  H16R 3045   1.269   6.876   8.876  0.5035 -0.0160 -0.3960
   23SAPC  H16S 3046   1.151   6.799   8.770  0.7690 -1.7896 -1.5252
   23SAPC  C217 3047   1.322   6.872   8.660 -0.4837 -0.0994 -0.5883
   23SAPC  H17R 3048   1.432   6.879   8.668 -0.4937  1.4480 -1.3983
   23SAPC  H17S 3049   1.294   6.979   8.648 -0.2506  0.0299 -0.0227
   23SAPC  C218 3050   1.274   6.801   8.528  0.4722 -0.3545 -0.6975
   23SAPC  H18R 3051   1.164   6.811   8.535  0.5248 -0.4220  0.5250
   23SAPC  H18S 3052   1.293   6.692   8.527  2.3227 -0.0729 -0.1409
   23SAPC  C219 3053   1.319   6.863   8.394  0.5245  0.7249 -0.0543
   23SAPC  H19R 3054   1.424   6.834   8.371  0.7676 -0.3397  2.1525
   23SAPC  H19S 3055   1.315   6.972   8.417  1.1269  0.4907  1.2734
   23SAPC  C220 3056   1.220   6.817   8.285 -0.2181  0.2322 -0.4649
   23SAPC  H20R 3057   1.189   6.711   8.296 -0.8709  0.6791  3.1626
   23SAPC  H20S 3058   1.263   6.826   8.183 -0.6966 -2.7292 -1.0102
   23SAPC  H20T 3059   1.125   6.874   8.289 -0.4935 -0.3041  1.2337
   23SAPC   C33 3060   1.519   6.615  10.029  0.1969 -0.7595  0.2176
   23SAPC   H3X 3061   1.443   6.695  10.022  0.5143 -0.4145  0.6701
   23SAPC   H3Y 3062   1.454   6.525  10.029 -2.8852  1.2824 -1.8837
   23SAPC   C34 3063   1.605   6.610   9.902 -0.1920 -1.2443 -0.1166
   23SAPC   H4X 3064   1.667   6.518   9.903 -0.8640 -1.7053  0.7118
   23SAPC   H4Y 3065   1.681   6.691   9.901 -0.1206 -1.2538 -3.1238
   23SAPC   C35 3066   1.524   6.620   9.774 -0.0328  0.1481  0.3914
   23SAPC   H5X 3067   1.478   6.721   9.770 -0.4160  0.0193  1.3240
   23SAPC   H5Y 3068   1.447   6.539   9.781  1.5643 -1.4383  0.4553
   23SAPC   C36 3069   1.608   6.605   9.645 -0.0701  0.0833 -0.9399
   23SAPC   H6X 3070   1.631   6.497   9.630  1.1461  0.2992 -0.7489
   23SAPC   H6Y 3071   1.704   6.656   9.667  1.1404 -2.1972 -0.5782
   23SAPC   C37 3072   1.548   6.662   9.510 -0.2906 -0.4780 -0.6414
   23SAPC   H7X 3073   1.525   6.770   9.524 -0.2894 -0.4103 -1.1621
   23SAPC   H7Y 3074   1.451   6.608   9.504 -1.4715  0.8045  3.6087
   23SAPC   C38 3075   1.640   6.660   9.392 -0.5913  0.8339 -0.4995
   23SAPC   H8X 3076   1.641   6.556   9.352 -0.9722  1.4005 -2.0799
   23SAPC   H8Y 3077   1.741   6.685   9.432 -0.0729 -1.6257 -0.1361
   23SAPC   C39 3078   1.602   6.766   9.280 -0.7342 -0.2228 -0.5900
   23SAPC   H9X 3079   1.633   6.868   9.313  0.6589 -1.6593  2.9019
   23SAPC   H9Y 3080   1.493   6.753   9.262 -0.7640 -0.8787  0.0357
   23SAPC  C310 3081   1.672   6.741   9.142 -0.5520  0.0441 -0.5200
   23SAPC  H10X 3082   1.661   6.633   9.117 -4.2876  0.2334 -0.1972
   23SAPC  H10Y 3083   1.780   6.762   9.156 -0.4378 -1.2036  0.6245
   23SAPC  C311 3084   1.629   6.830   9.031  0.5578  0.2070 -0.3045
   23SAPC  H11X 3085   1.637   6.938   9.053  0.0468  0.4276 -1.1730
   23SAPC  H11Y 3086   1.521   6.807   9.025  0.1825  0.4340  3.3956
   23SAPC  C312 3087   1.707   6.823   8.902  0.0629 -0.5568 -1.1368
   23SAPC  H12X 3088   1.805   6.787   8.940 -0.4188  0.1054  0.8305
   23SAPC  H12Y 3089   1.709   6.924   8.857  0.8997 -0.7700 -1.5962
   23SAPC  C313 3090   1.657   6.727   8.801  0.5472  0.2372  0.3023
   23SAPC  H13X 3091   1.551   6.745   8.774  0.5348 -0.5723 -0.2046
   23SAPC  H13Y 3092   1.665   6.628   8.850  0.6614  1.0288  1.9490
   23SAPC  C314 3093   1.751   6.715   8.676 -1.0338  0.3002 -1.2862
   23SAPC  H14X 3094   1.739   6.620   8.620  0.4566 -0.2261 -0.7774
   23SAPC  H14Y 3095   1.856   6.695   8.708 -1.1818  2.9094  1.2963
   23SAPC  C315 3096   1.735   6.833   8.580  0.0994  0.8323 -0.2969
   23SAPC  H15X 3097   1.789   6.921   8.621 -1.1928  2.0972 -1.2041
   23SAPC  H15Y 3098   1.627   6.846   8.557 -0.3047  1.1487  1.5619
   23SAPC  C316 3099   1.814   6.801   8.454 -0.1231 -0.2737  1.2381
   23SAPC  H16X 3100   1.799   6.696   8.421  2.1181 -0.1883 -0.3118
   23SAPC  H16Y 3101   1.922   6.796   8.481 -0.3931 -1.3958  2.2152
   23SAPC  C317 3102   1.787   6.915   8.359 -0.1253  0.0549  0.9948
   23SAPC  H17X 3103   1.861   6.995   8.382  0.2322 -0.1659  0.6325
   23SAPC  H17Y 3104   1.684   6.951   8.377 -0.5038  0.3529 -1.4650
   23SAPC  C318 3105   1.816   6.884   8.210 -0.3796  0.0658  0.0106
   23SAPC  H18X 3106   1.760   6.788   8.203  2.5202 -2.1480  3.6425
   23SAPC  H18Y 3107   1.923   6.853   8.208 -0.9311 -1.9572 -0.5798
   23SAPC  H18Z 3108   1.787   6.972   8.149  0.6397 -0.6051 -1.5122
   24SAPC     N 3109   0.516   3.029  11.094 -0.1354  0.2525 -0.2729
   24SAPC   C12 3110   0.469   3.091  10.965 -0.5180  0.1459  0.7244
   24SAPC  H12A 3111   0.437   3.193  10.983 -1.0245  0.2336 -0.5406
   24SAPC  H12B 3112   0.380   3.039  10.934  0.9417 -0.5858 -2.6739
   24SAPC   C13 3113   0.402   3.036  11.195 -0.1697 -0.1328  0.4730
   24SAPC  H13A 3114   0.312   2.994  11.152  0.0971 -0.1926 -0.0342
   24SAPC  H13B 3115   0.431   2.974  11.278  3.0155 -0.4858 -0.7389
   24SAPC  H13C 3116   0.386   3.139  11.221 -0.2442 -0.1831  0.6250
   24SAPC   C14 3117   0.539   2.879  11.084 -0.1832 -0.1401  0.0944
   24SAPC  H14A 3118   0.444   2.832  11.063  0.5466 -2.2773  1.2360
   24SAPC  H14B 3119   0.607   2.845  11.007  1.0903  4.6488 -1.2307
   24SAPC  H14C 3120   0.585   2.834  11.171  0.5334  0.3550 -0.0176
   24SAPC   C15 3121   0.636   3.095  11.146  1.0753  0.2374  0.1570
   24SAPC  H15A 3122   0.714   3.093  11.071 -0.3943  1.1961 -1.4609
   24SAPC  H15B 3123   0.610   3.199  11.154  1.8966  0.5862 -1.4421
   24SAPC  H15C 3124   0.673   3.064  11.243 -0.0489 -0.6287  0.3301
   24SAPC   C11 3125   0.574   3.092  10.847 -0.1988 -0.5357 -1.6544
   24SAPC  H11A 3126   0.525   3.130  10.755  1.0075  1.3270 -1.5663
   24SAPC  H11B 3127   0.605   2.987  10.828  1.3747 -0.2704 -0.7269
   24SAPC     P 3128   0.713   3.311  10.822  0.1805  0.4462  0.0016
   24SAPC   O13 3129   0.591   3.374  10.869  0.0581 -0.2952  0.5291
   24SAPC   O14 3130   0.839   3.362  10.887 -0.6083  0.2977  0.1789
   24SAPC   O12 3131   0.696   3.162  10.868 -0.3076  0.2190 -0.0963
   24SAPC   O11 3132   0.727   3.302  10.665 -0.6744 -0.1630  0.0526
   24SAPC    C1 3133   0.783   3.181  10.599 -0.5327  0.0027  0.5774
   24SAPC    HA 3134   0.844   3.117  10.667 -2.2084 -2.7293 -0.3333
   24SAPC    HB 3135   0.693   3.120  10.575  0.5220 -1.8611  1.1349
   24SAPC    C2 3136   0.862   3.204  10.468 -0.0414 -0.1920 -0.4574
   24SAPC    HS 3137   0.934   3.283  10.498 -1.5397  0.0657  2.8373
   24SAPC   O21 3138   0.774   3.244  10.362 -0.8181 -0.0351 -0.9711
   24SAPC   C21 3139   0.820   3.335  10.281 -0.4610  0.3502  0.3784
   24SAPC   O22 3140   0.920   3.398  10.295 -0.2558 -0.1065  0.1969
   24SAPC   C22 3141   0.721   3.343  10.162 -0.2040  0.2472  0.2784
   24SAPC   H2R 3142   0.694   3.245  10.116  0.3472  0.2615 -0.0815
   24SAPC   H2S 3143   0.635   3.390  10.215 -0.0242  0.4522  0.3888
   24SAPC    C3 3144   0.944   3.081  10.424  0.0200  0.0094  0.0939
   24SAPC    HX 3145   0.870   2.999  10.412 -0.3443 -0.0819  2.5525
   24SAPC    HY 3146   1.012   3.043  10.503 -1.6931  1.7579  2.5397
   24SAPC   O31 3147   1.015   3.108  10.311  0.2551  0.4600 -0.0479
   24SAPC   C31 3148   1.090   3.015  10.261 -0.5851  0.2884 -0.7135
   24SAPC   O32 3149   1.103   2.909  10.317 -0.0381  0.1949 -0.0257
   24SAPC   C32 3150   1.159   3.069  10.133 -0.4375  0.3488  0.0642
   24SAPC   H2X 3151   1.262   3.097  10.163 -0.6941 -0.9847  2.4220
   24SAPC   H2Y 3152   1.112   3.166  10.104  1.3700  1.1766 -0.2092
   24SAPC   C23 3153   0.786   3.430  10.051 -0.6406 -1.1979  0.1220
   24SAPC   H3R 3154   0.890   3.395  10.036  0.0704  1.3260 -1.3369
   24SAPC   H3S 3155   0.799   3.533  10.090  1.8629 -1.9046  1.3429
   24SAPC   C24 3156   0.717   3.430   9.914 -0.1469 -0.4716  0.3186
   24SAPC   H4R 3157   0.720   3.328   9.870 -1.0295 -0.5386  0.3987
   24SAPC   H4S 3158   0.774   3.500   9.850 -0.4943 -0.1394  0.3683
   24SAPC   C25 3159   0.577   3.476   9.902 -0.1523 -0.0527 -0.5016
   24SAPC   H5R 3160   0.562   3.583   9.887  1.5606  0.2094 -0.5702
   24SAPC   C26 3161   0.465   3.403   9.923 -0.3640  0.2937 -0.6806
   24SAPC   H6R 3162   0.371   3.444   9.882  0.3381  0.0521 -2.6512
   24SAPC   C27 3163   0.459   3.258   9.958 -0.3747  0.8093 -0.6701
   24SAPC   H7R 3164   0.559   3.217   9.981 -1.8182 -1.4767  2.1307
   24SAPC   H7S 3165   0.411   3.202   9.874  0.8941 -1.0658 -0.2022
   24SAPC   C28 3166   0.379   3.238  10.085 -0.5965 -0.1511  0.0527
   24SAPC   H8R 3167   0.385   3.323  10.154  2.1461 -0.4919  0.3518
   24SAPC   C29 3168   0.284   3.140  10.112 -0.2331  0.2931  0.3432
   24SAPC   H9R 3169   0.239   3.141  10.213 -1.1994 -2.5885  0.0318
   24SAPC  C210 3170   0.254   3.035  10.012  0.2354  0.2408  0.1647
   24SAPC  H10R 3171   0.301   3.047   9.912 -3.0553  0.1217 -1.5588
   24SAPC  H10S 3172   0.146   3.033   9.984  0.0336 -2.3847  0.8322
   24SAPC  C211 3173   0.285   2.899  10.077 -0.4510 -0.2139 -0.3535
   24SAPC  H11R 3174   0.299   2.886  10.185  0.6146 -2.3346 -0.6995
   24SAPC  C212 3175   0.317   2.782  10.011 -0.3352  0.3018  0.1248
   24SAPC  H12R 3176   0.338   2.689  10.066  0.7395 -0.3724 -1.3667
   24SAPC  C213 3177   0.321   2.774   9.860 -0.1738 -0.2062 -0.3069
   24SAPC  H13R 3178   0.251   2.839   9.804  0.5080 -0.0421 -0.9877
   24SAPC  H13S 3179   0.316   2.664   9.848 -0.0201 -0.0694 -1.8709
   24SAPC  C214 3180   0.458   2.819   9.809  0.1615  0.2683 -0.4663
   24SAPC  H14R 3181   0.537   2.795   9.881 -0.9733 -1.4063  0.2892
   24SAPC  C215 3182   0.485   2.854   9.680  0.0674  0.1306  0.0511
   24SAPC  H15R 3183   0.592   2.871   9.658  0.8147 -1.3257  2.2740
   24SAPC  C216 3184   0.391   2.858   9.561 -0.2036  0.3027 -0.6141
   24SAPC  H16R 3185   0.375   2.959   9.518  1.0212 -0.5787 -3.3509
   24SAPC  H16S 3186   0.296   2.811   9.592 -0.6236  0.5175 -1.5582
   24SAPC  C217 3187   0.447   2.779   9.433  0.4390 -0.1384 -0.2182
   24SAPC  H17R 3188   0.443   2.674   9.467  0.0817  0.6002  2.2765
   24SAPC  H17S 3189   0.551   2.812   9.410  1.5129 -3.1273 -0.1003
   24SAPC  C218 3190   0.360   2.808   9.299 -0.2176 -0.1116 -0.0839
   24SAPC  H18R 3191   0.398   2.736   9.223  0.8914 -2.9834  2.9328
   24SAPC  H18S 3192   0.375   2.911   9.261  2.4584 -0.1618  0.6360
   24SAPC  C219 3193   0.211   2.767   9.322  0.0224 -0.3466  0.7911
   24SAPC  H19R 3194   0.169   2.829   9.405  1.7408  0.8834  0.8153
   24SAPC  H19S 3195   0.206   2.659   9.349  0.9766 -0.8202 -0.8039
   24SAPC  C220 3196   0.130   2.799   9.198  0.1762 -0.0761  0.3756
   24SAPC  H20R 3197   0.024   2.768   9.203  0.2344 -0.1616  1.1961
   24SAPC  H20S 3198   0.185   2.749   9.114  0.6303 -2.2269  1.8758
   24SAPC  H20T 3199   0.117   2.907   9.178 -0.1026 -0.3159 -0.8758
   24SAPC   C33 3200   1.157   2.977  10.016 -0.4344  0.2974  0.0848
   24SAPC   H3X 3201   1.059   2.954   9.969  0.1586 -1.6872 -0.3014
   24SAPC   H3Y 3202   1.193   2.873  10.032 -1.9477 -0.7124 -2.4195
   24SAPC   C34 3203   1.239   3.039   9.900 -0.2811  0.0434 -0.0963
   24SAPC   H4X 3204   1.344   3.051   9.934  0.5219 -0.3158 -2.3328
   24SAPC   H4Y 3205   1.191   3.137   9.879 -0.0090 -0.0783 -1.3104
   24SAPC   C35 3206   1.231   2.961   9.771  0.7071  0.2104  0.8386
   24SAPC   H5X 3207   1.126   2.950   9.738  1.1536  2.0557 -1.4562
   24SAPC   H5Y 3208   1.271   2.857   9.773  0.5538  0.1526  0.8903
   24SAPC   C36 3209   1.293   3.039   9.657  0.1176 -0.2077 -0.0365
   24SAPC   H6X 3210   1.401   3.051   9.682  0.5947  0.3663 -2.2246
   24SAPC   H6Y 3211   1.243   3.138   9.651 -0.4986 -0.3372  2.0264
   24SAPC   C37 3212   1.273   2.959   9.526  0.4381  0.0358 -0.2404
   24SAPC   H7X 3213   1.168   2.926   9.517 -0.0166  1.5570 -0.6232
   24SAPC   H7Y 3214   1.339   2.869   9.526  0.8378  0.3000 -1.8237
   24SAPC   C38 3215   1.315   3.031   9.397 -0.6387  0.1128  0.1231
   24SAPC   H8X 3216   1.417   3.075   9.399 -0.5015 -0.2165  1.5075
   24SAPC   H8Y 3217   1.248   3.119   9.390 -0.6690  0.0397 -0.6779
   24SAPC   C39 3218   1.291   2.944   9.267  0.1171 -0.2859 -0.3843
   24SAPC   H9X 3219   1.184   2.915   9.262 -0.5412  1.3457  2.2434
   24SAPC   H9Y 3220   1.346   2.849   9.288 -1.4182 -1.1001  0.0659
   24SAPC  C310 3221   1.328   3.015   9.128 -0.0089  0.2090 -0.1229
   24SAPC  H10X 3222   1.436   3.040   9.121  0.1876 -0.5304  0.2063
   24SAPC  H10Y 3223   1.261   3.099   9.103 -1.2191 -1.0297 -1.1606
   24SAPC  C311 3224   1.301   2.919   9.015  0.2171 -0.6316  0.5572
   24SAPC  H11X 3225   1.211   2.855   9.026  0.1618 -0.5042  0.8473
   24SAPC  H11Y 3226   1.392   2.856   8.997 -0.1200 -0.3110 -2.9008
   24SAPC  C312 3227   1.281   2.997   8.878 -0.3890  0.3459  0.0865
   24SAPC  H12X 3228   1.361   3.074   8.875  0.6502 -0.7440 -1.3443
   24SAPC  H12Y 3229   1.183   3.047   8.897 -0.7963 -0.8082  1.1682
   24SAPC  C313 3230   1.287   2.897   8.758  0.5265 -0.7143  0.1491
   24SAPC  H13X 3231   1.209   2.820   8.777  1.1378 -1.1376  0.9707
   24SAPC  H13Y 3232   1.378   2.834   8.751  0.6648 -0.4198 -0.8414
   24SAPC  C314 3233   1.252   2.971   8.630 -0.7367 -0.3079 -0.5415
   24SAPC  H14X 3234   1.337   3.035   8.598  0.4416 -2.3644 -1.8128
   24SAPC  H14Y 3235   1.164   3.036   8.647  1.0137  2.7976 -2.4101
   24SAPC  C315 3236   1.214   2.877   8.517 -0.8670  0.1760  0.0386
   24SAPC  H15X 3237   1.112   2.834   8.523 -0.6988 -0.4061 -0.9296
   24SAPC  H15Y 3238   1.282   2.791   8.534 -0.8845  0.4266  1.4515
   24SAPC  C316 3239   1.235   2.941   8.380 -0.1804  0.1023  0.1012
   24SAPC  H16X 3240   1.345   2.956   8.373 -0.1802  0.1214  0.1500
   24SAPC  H16Y 3241   1.186   3.040   8.369 -1.4531 -0.5488 -0.4263
   24SAPC  C317 3242   1.180   2.860   8.269  0.3322 -0.3135 -1.0517
   24SAPC  H17X 3243   1.070   2.876   8.271  0.6559  2.3572 -0.4947
   24SAPC  H17Y 3244   1.212   2.754   8.276  0.8215 -0.1193 -0.2617
   24SAPC  C318 3245   1.229   2.903   8.123 -0.1345  0.2345 -0.1773
   24SAPC  H18X 3246   1.338   2.921   8.110  0.2386 -0.3583  1.8123
   24SAPC  H18Y 3247   1.169   2.995   8.105 -1.3992 -0.3289  1.0413
   24SAPC  H18Z 3248   1.192   2.829   8.049 -1.9176 -0.7362  1.5987
   25SAPC     N 3249   5.717   0.352   5.909  0.3495  0.1379 -0.2868
   25SAPC   C12 3250   5.663   0.303   6.048 -0.3653 -0.5580  0.2062
   25SAPC  H12A 3251   5.566   0.340   6.075  0.1735 -0.4941  2.1909
   25SAPC  H12B 3252   5.725   0.342   6.128  0.7380  0.8334 -1.2562
   25SAPC   C13 3253   5.858   0.324   5.893 -0.5530 -0.2202 -0.4327
   25SAPC  H13A 3254   5.914   0.344   5.983 -0.3175 -1.7881 -0.1983
   25SAPC  H13B 3255   5.881   0.219   5.876  0.0070  0.1094 -1.8525
   25SAPC  H13C 3256   5.911   0.364   5.809  0.0723 -0.0668  0.0303
   25SAPC   C14 3257   5.630   0.280   5.807  0.2272 -0.8474 -0.0963
   25SAPC  H14A 3258   5.525   0.298   5.824  0.9419  1.7403  2.2607
   25SAPC  H14B 3259   5.649   0.316   5.707 -2.3697 -1.7280 -0.9981
   25SAPC  H14C 3260   5.646   0.173   5.818 -0.9411 -0.9835  0.4499
   25SAPC   C15 3261   5.705   0.499   5.895  0.0394  0.1789  0.5724
   25SAPC  H15A 3262   5.606   0.543   5.900  1.2769  3.0576  2.1467
   25SAPC  H15B 3263   5.757   0.549   5.975 -0.3959  0.5895  0.6016
   25SAPC  H15C 3264   5.760   0.534   5.809 -0.2662 -1.0187 -0.1425
   25SAPC   C11 3265   5.658   0.158   6.081  0.3819  0.0195  0.4130
   25SAPC  H11A 3266   5.592   0.096   6.016  1.2328 -0.6328  0.1516
   25SAPC  H11B 3267   5.599   0.142   6.174 -0.0219 -2.2291 -0.1523
   25SAPC     P 3268   5.880   0.129   6.211  0.1772  0.2620  0.3481
   25SAPC   O13 3269   6.015   0.077   6.172  0.3675 -0.2492 -0.0294
   25SAPC   O14 3270   5.870   0.271   6.249  0.1805  0.5502  0.1670
   25SAPC   O12 3271   5.782   0.098   6.084 -0.6885 -0.1483 -0.3541
   25SAPC   O11 3272   5.819   0.033   6.324 -0.4812 -0.3587 -0.1462
   25SAPC    C1 3273   5.759  -0.088   6.289  0.6221  0.3802 -0.3788
   25SAPC    HA 3274   5.663  -0.078   6.234 -0.3756 -0.1195  1.2261
   25SAPC    HB 3275   5.823  -0.153   6.224  2.2613 -2.0223  3.3110
   25SAPC    C2 3276   5.739  -0.165   6.425 -0.0240  0.1579 -0.2231
   25SAPC    HS 3277   5.696  -0.265   6.403 -0.0458  0.3059 -0.8823
   25SAPC   O21 3278   5.641  -0.098   6.504  0.3951 -0.1367 -0.3750
   25SAPC   C21 3279   5.516  -0.072   6.465 -0.2821 -0.0818  0.3137
   25SAPC   O22 3280   5.464  -0.112   6.361 -1.1136 -0.0938 -0.3662
   25SAPC   C22 3281   5.444   0.028   6.565 -0.2828 -0.0076  0.2113
   25SAPC   H2R 3282   5.527   0.065   6.629 -0.3156  1.1574 -0.3847
   25SAPC   H2S 3283   5.408   0.114   6.504  0.6609  0.4516  0.2901
   25SAPC    C3 3284   5.866  -0.186   6.518  0.6254 -0.5724  0.5749
   25SAPC    HX 3285   5.889  -0.080   6.538 -1.7038  0.0915  0.0983
   25SAPC    HY 3286   5.952  -0.222   6.457  2.6765  2.4022  1.5122
   25SAPC   O31 3287   5.850  -0.264   6.640  0.2290  0.0447 -0.3023
   25SAPC   C31 3288   5.881  -0.390   6.624 -0.0561  0.1016  0.3135
   25SAPC   O32 3289   5.913  -0.436   6.515  0.0909  0.3941 -0.0855
   25SAPC   C32 3290   5.864  -0.468   6.758 -0.4967  0.4060  0.8128
   25SAPC   H2X 3291   5.756  -0.474   6.783 -1.0899  0.5242 -1.5679
   25SAPC   H2Y 3292   5.914  -0.406   6.836 -0.8430  0.8819  0.6608
   25SAPC   C23 3293   5.337  -0.045   6.642  0.2212  0.0314  0.7356
   25SAPC   H3R 3294   5.384  -0.127   6.702 -1.5648 -1.6949 -0.1195
   25SAPC   H3S 3295   5.268  -0.091   6.568 -0.6966 -0.7488  2.0310
   25SAPC   C24 3296   5.270   0.037   6.752 -0.2943  0.0355 -0.1647
   25SAPC   H4R 3297   5.262   0.133   6.696  1.2281  0.8898  1.0099
   25SAPC   H4S 3298   5.347   0.076   6.822 -1.2081  1.9227 -0.1348
   25SAPC   C25 3299   5.140  -0.012   6.817 -0.0216  0.1913  0.4720
   25SAPC   H5R 3300   5.053  -0.019   6.750  0.7695 -0.1253 -0.5401
   25SAPC   C26 3301   5.122  -0.050   6.946 -0.4275  0.1556 -0.9502
   25SAPC   H6R 3302   5.025  -0.092   6.974  0.1993 -2.6661 -2.6090
   25SAPC   C27 3303   5.229  -0.051   7.052  0.5984 -1.0273 -0.3853
   25SAPC   H7R 3304   5.208   0.036   7.118  1.4327 -1.9499  1.1341
   25SAPC   H7S 3305   5.327  -0.037   7.000  0.3205  2.8756 -0.2182
   25SAPC   C28 3306   5.233  -0.177   7.131  0.2214  0.0946  0.7280
   25SAPC   H8R 3307   5.280  -0.257   7.073 -0.4805 -0.8302  1.3963
   25SAPC   C29 3308   5.202  -0.203   7.261  0.1973 -0.0244 -0.6266
   25SAPC   H9R 3309   5.201  -0.304   7.304  0.0429  0.8117  1.4147
   25SAPC  C210 3310   5.157  -0.096   7.354 -0.0730 -0.5511 -0.1261
   25SAPC  H10R 3311   5.109  -0.155   7.435 -1.9575  0.2966 -0.5670
   25SAPC  H10S 3312   5.079  -0.035   7.305  1.3080  0.9932 -0.5185
   25SAPC  C211 3313   5.266  -0.003   7.398  0.0119 -0.4467  0.2329
   25SAPC  H11R 3314   5.350   0.032   7.336 -0.2119  1.2371  0.8314
   25SAPC  C212 3315   5.284   0.020   7.526 -0.0395  0.1093  0.0562
   25SAPC  H12R 3316   5.368   0.089   7.545  0.0162  1.0186 -2.9508
   25SAPC  C213 3317   5.203  -0.026   7.644 -0.1188  0.8576  0.0459
   25SAPC  H13R 3318   5.205  -0.137   7.638  0.0070  0.9021 -0.8269
   25SAPC  H13S 3319   5.099   0.011   7.635  0.2154  1.8367  0.1510
   25SAPC  C214 3320   5.255   0.010   7.783  0.4158 -0.0857  0.2010
   25SAPC  H14R 3321   5.172   0.062   7.834 -0.8408 -1.4657 -0.3419
   25SAPC  C215 3322   5.381  -0.017   7.836 -0.2466  0.3438  0.6239
   25SAPC  H15R 3323   5.396   0.015   7.940  3.4751  0.1209  0.3204
   25SAPC  C216 3324   5.496  -0.083   7.763  0.1776  0.6859 -0.2413
   25SAPC  H16R 3325   5.459  -0.137   7.673 -0.9822  2.0565 -0.6257
   25SAPC  H16S 3326   5.540  -0.157   7.834 -1.2818  1.7001  1.8149
   25SAPC  C217 3327   5.607   0.014   7.733  0.0532  0.4105 -0.1229
   25SAPC  H17R 3328   5.635   0.054   7.833  1.2299  0.9033 -0.6335
   25SAPC  H17S 3329   5.579   0.088   7.655  1.4793 -0.0624 -1.1116
   25SAPC  C218 3330   5.724  -0.067   7.692  0.0588 -0.4268 -0.0688
   25SAPC  H18R 3331   5.731  -0.150   7.766 -0.7462 -0.2609  0.2074
   25SAPC  H18S 3332   5.816  -0.007   7.707 -0.3055 -0.5969  4.5374
   25SAPC  C219 3333   5.714  -0.121   7.547 -0.3788 -0.1380  0.0529
   25SAPC  H19R 3334   5.712  -0.035   7.476  0.1447  0.1257  0.3475
   25SAPC  H19S 3335   5.618  -0.176   7.553 -0.1108 -0.5035  1.3538
   25SAPC  C220 3336   5.825  -0.219   7.515 -1.0541 -0.3572 -0.0525
   25SAPC  H20R 3337   5.795  -0.317   7.558  0.0613 -0.2572  1.0151
   25SAPC  H20S 3338   5.920  -0.183   7.560  1.6580  0.2274 -5.4264
   25SAPC  H20T 3339   5.842  -0.225   7.406  1.1663  2.3478  0.0383
   25SAPC   C33 3340   5.914  -0.615   6.745 -0.5951  0.3615  0.2508
   25SAPC   H3X 3341   6.024  -0.623   6.727 -0.5822 -1.2869  0.9089
   25SAPC   H3Y 3342   5.867  -0.664   6.657  1.0999 -0.3505 -0.3077
   25SAPC   C34 3343   5.875  -0.694   6.866 -0.2458 -0.4803  0.3797
   25SAPC   H4X 3344   5.907  -0.799   6.849  1.3980 -0.0074  0.3632
   25SAPC   H4Y 3345   5.766  -0.674   6.877 -1.0782 -3.0843 -1.8076
   25SAPC   C35 3346   5.941  -0.657   6.994 -0.7569 -0.0412  0.1752
   25SAPC   H5X 3347   5.917  -0.550   7.013  0.2261  0.3023 -0.4245
   25SAPC   H5Y 3348   6.051  -0.661   6.976 -1.0022 -0.9569 -1.2429
   25SAPC   C36 3349   5.895  -0.721   7.131 -0.3894  0.4807  0.5287
   25SAPC   H6X 3350   5.980  -0.760   7.190 -0.9249 -1.2546  0.2334
   25SAPC   H6Y 3351   5.827  -0.804   7.103 -1.7046  2.1897 -1.6385
   25SAPC   C37 3352   5.803  -0.630   7.213  0.7478  0.1444  0.2064
   25SAPC   H7X 3353   5.735  -0.696   7.271  2.2533  1.1874  3.3797
   25SAPC   H7Y 3354   5.747  -0.564   7.143  1.4113  0.6941  0.1820
   25SAPC   C38 3355   5.876  -0.559   7.330  0.1293 -0.3083 -0.6279
   25SAPC   H8X 3356   5.806  -0.500   7.392 -0.1177 -1.3947  0.1479
   25SAPC   H8Y 3357   5.943  -0.481   7.288 -1.9200  2.0654  0.2361
   25SAPC   C39 3358   5.940  -0.660   7.430 -0.1627 -0.3310 -0.1925
   25SAPC   H9X 3359   6.036  -0.678   7.376 -1.6422 -1.7254 -2.5523
   25SAPC   H9Y 3360   5.886  -0.753   7.455  1.4521 -0.9581  1.1544
   25SAPC  C310 3361   5.959  -0.598   7.567  0.0148 -0.7305 -0.1004
   25SAPC  H10X 3362   5.864  -0.578   7.620 -0.2574 -0.4212 -0.6987
   25SAPC  H10Y 3363   6.011  -0.504   7.539 -2.9140  0.6108 -1.4534
   25SAPC  C311 3364   6.042  -0.682   7.661  0.5891 -0.9271 -0.6505
   25SAPC  H11X 3365   6.131  -0.731   7.616  0.8937 -0.5849 -0.4239
   25SAPC  H11Y 3366   5.982  -0.773   7.685 -3.3918  1.5068 -0.3659
   25SAPC  C312 3367   6.081  -0.606   7.789  0.5306  0.3198  0.4512
   25SAPC  H12X 3368   6.160  -0.530   7.768  3.0073 -1.5969  2.1425
   25SAPC  H12Y 3369   6.122  -0.672   7.868 -1.4225 -1.1760  0.2985
   25SAPC  C313 3370   5.964  -0.539   7.866 -0.3551  0.0971 -0.2988
   25SAPC  H13X 3371   5.891  -0.620   7.886 -2.1567  1.4354 -1.2318
   25SAPC  H13Y 3372   5.907  -0.474   7.797 -0.9362  0.1511  0.2284
   25SAPC  C314 3373   6.005  -0.477   8.004  0.2220 -0.9205  0.1165
   25SAPC  H14X 3374   6.061  -0.382   7.996  0.5822 -1.1263  0.1537
   25SAPC  H14Y 3375   6.077  -0.558   8.030  0.7907 -0.5983 -0.4346
   25SAPC  C315 3376   5.887  -0.454   8.101  0.1110  0.2240  0.1066
   25SAPC  H15X 3377   5.919  -0.485   8.203 -0.2559  0.6661  0.3656
   25SAPC  H15Y 3378   5.802  -0.521   8.076  0.1066 -0.6194  2.1690
   25SAPC  C316 3379   5.851  -0.309   8.101 -0.5546 -0.5662  0.0988
   25SAPC  H16X 3380   5.797  -0.285   8.007 -1.2062 -1.4303  0.2334
   25SAPC  H16Y 3381   5.941  -0.249   8.123 -1.0407  0.4010 -0.4946
   25SAPC  C317 3382   5.747  -0.274   8.212 -0.2736  0.5655 -0.3097
   25SAPC  H17X 3383   5.748  -0.168   8.245  0.3453  0.0851  1.3174
   25SAPC  H17Y 3384   5.779  -0.337   8.298 -0.9307 -1.5026 -1.5215
   25SAPC  C318 3385   5.604  -0.300   8.173  0.0027 -0.1171  0.3471
   25SAPC  H18X 3386   5.547  -0.322   8.267  1.2129 -0.8556  0.9215
   25SAPC  H18Y 3387   5.584  -0.383   8.103 -0.7250  0.4656 -0.1565
   25SAPC  H18Z 3388   5.570  -0.206   8.124  3.7613 -0.3945 -3.3419
   26SAPC     N 3389   5.208   1.642   6.191 -0.2266 -0.5892 -0.1132
   26SAPC   C12 3390   5.343   1.706   6.141 -0.1511 -0.1714  0.0576
   26SAPC  H12A 3391   5.368   1.792   6.202  2.6864  1.1325 -2.6430
   26SAPC  H12B 3392   5.338   1.737   6.038 -0.3799 -1.8126 -0.4444
   26SAPC   C13 3393   5.096   1.732   6.149 -0.8985  0.3607  0.4079
   26SAPC  H13A 3394   5.006   1.673   6.161 -0.9687  0.8699  3.1955
   26SAPC  H13B 3395   5.084   1.830   6.193 -0.3042  1.3736 -1.5583
   26SAPC  H13C 3396   5.104   1.753   6.044  0.2835 -1.8723 -0.0224
   26SAPC   C14 3397   5.182   1.503   6.148 -0.3093 -0.0561  0.2021
   26SAPC  H14A 3398   5.177   1.498   6.040  0.5401 -0.5646  0.1796
   26SAPC  H14B 3399   5.268   1.441   6.169  0.7731  1.1108 -0.6031
   26SAPC  H14C 3400   5.093   1.467   6.197  0.6349  0.3614  2.3466
   26SAPC   C15 3401   5.209   1.645   6.336  0.2085 -0.0192 -0.2228
   26SAPC  H15A 3402   5.209   1.746   6.373  0.2707 -0.7202  1.8411
   26SAPC  H15B 3403   5.122   1.595   6.376  1.1623  0.8905  3.4267
   26SAPC  H15C 3404   5.302   1.600   6.369  0.6256  0.8084 -0.2532
   26SAPC   C11 3405   5.477   1.627   6.143 -0.0307  0.6302 -0.1185
   26SAPC  H11A 3406   5.548   1.667   6.067 -0.3366  1.7182  0.1538
   26SAPC  H11B 3407   5.452   1.528   6.101  0.4712  0.7664 -0.7569
   26SAPC     P 3408   5.671   1.582   6.306 -0.0021  0.5052  0.0223
   26SAPC   O13 3409   5.713   1.518   6.180 -0.1543  0.7921  0.3325
   26SAPC   O14 3410   5.748   1.701   6.343  0.0389  0.1965 -0.0186
   26SAPC   O12 3411   5.521   1.619   6.280 -0.2138 -0.7393  0.3399
   26SAPC   O11 3412   5.673   1.471   6.425 -0.0210 -0.1950 -0.3943
   26SAPC    C1 3413   5.566   1.445   6.510  0.4273 -0.1635  0.0879
   26SAPC    HA 3414   5.476   1.450   6.444 -0.7852 -0.0483  1.6780
   26SAPC    HB 3415   5.585   1.340   6.539  3.7230  0.0927 -0.7366
   26SAPC    C2 3416   5.545   1.546   6.637 -0.3728 -0.0444  0.9250
   26SAPC    HS 3417   5.524   1.644   6.590 -0.1052 -0.7277 -0.6766
   26SAPC   O21 3418   5.657   1.535   6.725  0.3028  0.3222  0.2830
   26SAPC   C21 3419   5.704   1.652   6.774 -0.4478 -0.3121  0.4495
   26SAPC   O22 3420   5.684   1.763   6.726 -0.0182  0.2731  0.1231
   26SAPC   C22 3421   5.794   1.625   6.895 -0.2827  0.2117  0.7152
   26SAPC   H2R 3422   5.748   1.564   6.975  3.5636  0.9374  3.8148
   26SAPC   H2S 3423   5.885   1.568   6.867 -0.0240  0.4550  1.0525
   26SAPC    C3 3424   5.419   1.498   6.709 -0.9104 -0.9870 -0.2926
   26SAPC    HX 3425   5.339   1.492   6.632 -0.6341  0.2206 -0.7034
   26SAPC    HY 3426   5.384   1.575   6.781 -2.1267  0.8788 -2.7067
   26SAPC   O31 3427   5.435   1.366   6.773 -0.2370 -0.6262 -0.0863
   26SAPC   C31 3428   5.466   1.359   6.900  0.2383 -1.1122 -0.1762
   26SAPC   O32 3429   5.488   1.455   6.971  0.6041 -0.3055  0.0690
   26SAPC   C32 3430   5.468   1.210   6.945 -0.2724 -0.6262  0.5061
   26SAPC   H2X 3431   5.570   1.168   6.929  1.0427  2.0183  1.1806
   26SAPC   H2Y 3432   5.399   1.152   6.881 -0.8976  2.8035 -2.2554
   26SAPC   C23 3433   5.846   1.758   6.947  0.9335 -0.5855 -0.2401
   26SAPC   H3R 3434   5.767   1.835   6.936  1.7669  0.0157 -2.2974
   26SAPC   H3S 3435   5.938   1.787   6.892  0.1571  0.5489 -0.9754
   26SAPC   C24 3436   5.893   1.747   7.093 -0.4378 -0.9340 -0.2523
   26SAPC   H4R 3437   5.941   1.844   7.117 -2.3658  0.3602 -1.4468
   26SAPC   H4S 3438   5.979   1.676   7.094  0.6264  0.3105 -0.2732
   26SAPC   C25 3439   5.789   1.718   7.199  0.1559 -0.6857 -0.3830
   26SAPC   H5R 3440   5.689   1.705   7.154  0.2432 -1.2598 -0.4128
   26SAPC   C26 3441   5.810   1.686   7.333 -0.7564 -0.8932  0.4999
   26SAPC   H6R 3442   5.724   1.689   7.401 -1.1362 -0.2047  0.0059
   26SAPC   C27 3443   5.941   1.692   7.405 -1.0283 -0.2421  0.2558
   26SAPC   H7R 3444   5.942   1.770   7.484  1.3370 -0.9174  1.0001
   26SAPC   H7S 3445   6.023   1.711   7.333 -0.8284 -2.6847 -0.2673
   26SAPC   C28 3446   5.971   1.563   7.477 -0.0763 -0.0744 -0.5824
   26SAPC   H8R 3447   6.025   1.491   7.414 -0.8452 -0.4237 -0.8622
   26SAPC   C29 3448   5.941   1.528   7.599  0.1230  0.7318  0.2060
   26SAPC   H9R 3449   5.969   1.427   7.635 -1.3396  0.6098  1.0599
   26SAPC  C210 3450   5.875   1.613   7.706  0.2695 -0.1801  0.2748
   26SAPC  H10R 3451   5.796   1.677   7.661  2.1364 -0.1554 -3.3783
   26SAPC  H10S 3452   5.952   1.688   7.734 -0.0195  0.4608 -0.5910
   26SAPC  C211 3453   5.821   1.544   7.831  0.7607  0.4009 -0.7168
   26SAPC  H11R 3454   5.890   1.525   7.914  1.2216 -0.8743 -1.3679
   26SAPC  C212 3455   5.689   1.504   7.851  0.1582  0.1643  0.5865
   26SAPC  H12R 3456   5.669   1.447   7.943 -0.2244 -1.2411 -0.3508
   26SAPC  C213 3457   5.573   1.518   7.757  0.2917  0.5654  0.3570
   26SAPC  H13R 3458   5.509   1.429   7.771  1.8169 -0.9500 -1.6431
   26SAPC  H13S 3459   5.605   1.506   7.651  0.8866 -2.5946  0.8001
   26SAPC  C214 3460   5.493   1.647   7.791 -0.3821  0.9141 -0.9653
   26SAPC  H14R 3461   5.490   1.682   7.895 -0.2028  2.6475 -1.5166
   26SAPC  C215 3462   5.407   1.708   7.710 -0.2488  0.3909 -1.1675
   26SAPC  H15R 3463   5.363   1.802   7.748 -1.0268  0.1946 -1.5609
   26SAPC  C216 3464   5.379   1.666   7.571 -0.1526 -0.1331  0.2488
   26SAPC  H16R 3465   5.269   1.664   7.559 -0.0309  0.6743 -1.1855
   26SAPC  H16S 3466   5.417   1.564   7.548  0.0047 -0.1681  0.6497
   26SAPC  C217 3467   5.449   1.759   7.471 -0.6051 -0.1173 -0.0614
   26SAPC  H17R 3468   5.557   1.757   7.497 -0.7862  0.8237  0.8175
   26SAPC  H17S 3469   5.415   1.863   7.487 -1.9661 -0.8478  2.2582
   26SAPC  C218 3470   5.443   1.716   7.326 -0.7507  0.2438 -1.1990
   26SAPC  H18R 3471   5.342   1.688   7.290  0.2617 -0.7678 -3.5076
   26SAPC  H18S 3472   5.509   1.630   7.303  0.6731  1.2803 -1.1270
   26SAPC  C219 3473   5.484   1.831   7.229  0.0673 -0.4622  0.3462
   26SAPC  H19R 3474   5.490   1.779   7.131 -1.0744  0.8132 -0.4491
   26SAPC  H19S 3475   5.588   1.869   7.238  0.8222 -2.3000 -0.1178
   26SAPC  C220 3476   5.379   1.938   7.211  0.0313  0.3646 -0.5942
   26SAPC  H20R 3477   5.402   2.015   7.134  0.6825 -1.0842 -1.9178
   26SAPC  H20S 3478   5.378   2.000   7.303  1.6837  0.1969 -0.4266
   26SAPC  H20T 3479   5.281   1.889   7.195  0.5016 -0.9188  0.3259
   26SAPC   C33 3480   5.430   1.201   7.096 -0.0946  0.3739 -0.6604
   26SAPC   H3X 3481   5.487   1.276   7.156 -3.0109 -0.1735  3.2247
   26SAPC   H3Y 3482   5.450   1.103   7.144 -1.7256  0.5507  0.4879
   26SAPC   C34 3483   5.280   1.222   7.132 -0.5394 -0.4098 -0.0524
   26SAPC   H4X 3484   5.229   1.158   7.057 -0.1173 -3.0557  1.8054
   26SAPC   H4Y 3485   5.249   1.329   7.123 -2.0692 -0.7463  0.8059
   26SAPC   C35 3486   5.231   1.170   7.269 -0.6009 -0.6589  0.3352
   26SAPC   H5X 3487   5.271   1.066   7.266 -1.1861 -0.8560 -2.0589
   26SAPC   H5Y 3488   5.121   1.180   7.279 -0.6436 -0.5328 -0.2650
   26SAPC   C36 3489   5.292   1.248   7.380 -0.1476  0.2772  0.3317
   26SAPC   H6X 3490   5.267   1.356   7.371  0.3566  0.3124 -0.8812
   26SAPC   H6Y 3491   5.401   1.247   7.357 -0.1098 -0.2973  0.5305
   26SAPC   C37 3492   5.252   1.191   7.513  0.4226  0.2188  0.2166
   26SAPC   H7X 3493   5.299   1.090   7.519  1.1911  0.4183 -1.7152
   26SAPC   H7Y 3494   5.142   1.183   7.497  0.4714  1.8126 -1.2432
   26SAPC   C38 3495   5.294   1.258   7.646 -0.1448 -0.1756  0.0444
   26SAPC   H8X 3496   5.237   1.353   7.642  0.8333  0.4762 -4.8862
   26SAPC   H8Y 3497   5.404   1.271   7.646  0.0381 -1.4367 -1.1541
   26SAPC   C39 3498   5.266   1.169   7.769 -0.0857 -0.3915  1.1682
   26SAPC   H9X 3499   5.303   1.071   7.733 -2.3380 -0.8625 -0.1106
   26SAPC   H9Y 3500   5.156   1.164   7.784 -1.0075  3.5567 -2.4542
   26SAPC  C310 3501   5.351   1.215   7.887 -0.2256 -0.0650  0.6833
   26SAPC  H10X 3502   5.326   1.321   7.905 -0.5705 -0.1519  0.7214
   26SAPC  H10Y 3503   5.459   1.218   7.860 -0.1433  4.0335  0.9236
   26SAPC  C311 3504   5.327   1.127   8.015 -0.4308 -0.5660 -0.2207
   26SAPC  H11X 3505   5.409   1.138   8.089 -0.9545 -1.0906  0.4586
   26SAPC  H11Y 3506   5.337   1.027   7.968  0.6979 -0.4765 -0.1890
   26SAPC  C312 3507   5.197   1.150   8.094 -0.8722 -0.6199  0.8927
   26SAPC  H12X 3508   5.112   1.115   8.032 -1.7666  1.1650  1.0437
   26SAPC  H12Y 3509   5.188   1.260   8.096 -0.5780 -0.3649 -3.4237
   26SAPC  C313 3510   5.192   1.084   8.232  0.4212  0.5395  0.1034
   26SAPC  H13X 3511   5.239   0.983   8.232 -1.9984 -0.6582  1.1496
   26SAPC  H13Y 3512   5.088   1.074   8.268  0.3967 -0.2615 -0.1542
   26SAPC  C314 3513   5.266   1.163   8.338  0.8421 -0.4691  0.0554
   26SAPC  H14X 3514   5.364   1.199   8.300 -0.5874  1.9551 -1.6426
   26SAPC  H14Y 3515   5.281   1.101   8.429 -1.3680 -1.9565 -0.5207
   26SAPC  C315 3516   5.194   1.292   8.381  0.5454 -0.0471 -0.0216
   26SAPC  H15X 3517   5.095   1.257   8.416  1.2545 -0.8575  1.2860
   26SAPC  H15Y 3518   5.175   1.350   8.289 -0.3971  0.1680  0.2943
   26SAPC  C316 3519   5.259   1.365   8.498 -0.1544 -0.2894  0.3409
   26SAPC  H16X 3520   5.252   1.298   8.586  1.1389 -0.6064  0.2153
   26SAPC  H16Y 3521   5.197   1.456   8.515 -0.4987 -0.4689  0.0449
   26SAPC  C317 3522   5.414   1.387   8.496 -0.1806  0.1791 -0.4008
   26SAPC  H17X 3523   5.425   1.445   8.402  1.4242  1.0482  0.2670
   26SAPC  H17Y 3524   5.465   1.292   8.471 -1.8662 -0.7975 -0.2460
   26SAPC  C318 3525   5.484   1.469   8.609 -0.3081 -0.1430  0.5758
   26SAPC  H18X 3526   5.466   1.423   8.709 -2.5772  0.6645  0.5786
   26SAPC  H18Y 3527   5.442   1.571   8.604 -0.6965 -0.2469  1.5335
   26SAPC  H18Z 3528   5.593   1.486   8.591 -0.7467  0.6677 -1.5446
   27SAPC     N 3529   3.525   0.966   6.195  0.3519  0.3385  0.0538
   27SAPC   C12 3530   3.406   0.913   6.275  0.0116 -0.3999 -0.6764
   27SAPC  H12A 3531   3.397   0.807   6.256  1.0054 -0.5630 -0.3286
   27SAPC  H12B 3532   3.313   0.954   6.239  0.5120  0.4084 -1.0922
   27SAPC   C13 3533   3.538   1.117   6.214 -0.0470 -0.2654  0.0639
   27SAPC  H13A 3534   3.448   1.159   6.172 -0.3651  0.4926  1.4572
   27SAPC  H13B 3535   3.534   1.154   6.315 -2.0521  2.0582 -0.7879
   27SAPC  H13C 3536   3.616   1.156   6.150 -0.6443  0.8485 -0.0025
   27SAPC   C14 3537   3.650   0.898   6.238  0.5952  0.8616 -0.5056
   27SAPC  H14A 3538   3.741   0.936   6.195  2.2804 -2.7476 -0.4983
   27SAPC  H14B 3539   3.668   0.878   6.343  0.8906  0.9458 -0.5390
   27SAPC  H14C 3540   3.655   0.799   6.195 -0.1292 -0.2126  1.6898
   27SAPC   C15 3541   3.521   0.938   6.050 -0.2148  0.5328 -0.2805
   27SAPC  H15A 3542   3.512   0.832   6.036 -0.8603  0.8388 -2.8640
   27SAPC  H15B 3543   3.427   0.971   6.007 -0.1495  0.3617 -0.5612
   27SAPC  H15C 3544   3.612   0.966   5.999 -0.1221 -1.1188 -1.0674
   27SAPC   C11 3545   3.412   0.934   6.427  0.6367 -0.2121  0.1433
   27SAPC  H11A 3546   3.309   0.915   6.464  0.0986 -1.1235 -1.6918
   27SAPC  H11B 3547   3.436   1.042   6.441  2.9234 -0.5105 -0.9303
   27SAPC     P 3548   3.473   0.720   6.566  0.0946  0.2619 -0.2020
   27SAPC   O13 3549   3.387   0.649   6.471  0.6591 -0.2187  0.5650
   27SAPC   O14 3550   3.586   0.652   6.626  0.0065  0.1247 -0.1606
   27SAPC   O12 3551   3.515   0.852   6.491  0.4655  0.3624  0.5490
   27SAPC   O11 3552   3.382   0.770   6.680  1.0450 -0.0136 -0.2623
   27SAPC    C1 3553   3.435   0.851   6.788 -0.4279  0.2064 -0.1738
   27SAPC    HA 3554   3.493   0.796   6.864 -0.1523  2.6995  1.5458
   27SAPC    HB 3555   3.510   0.926   6.755  0.9296 -1.1934 -0.3545
   27SAPC    C2 3556   3.318   0.931   6.866  0.0326  0.6460  0.0696
   27SAPC    HS 3557   3.382   0.982   6.941  2.0539  2.2980 -2.6028
   27SAPC   O21 3558   3.224   0.842   6.918  0.2395 -0.6617  0.6599
   27SAPC   C21 3559   3.249   0.775   7.022  0.5723  0.3694 -0.0686
   27SAPC   O22 3560   3.349   0.780   7.086 -0.1222 -0.4539 -0.2069
   27SAPC   C22 3561   3.127   0.684   7.060 -0.1118 -0.3055  0.6008
   27SAPC   H2R 3562   3.057   0.683   6.974  0.2059  0.3598  0.3229
   27SAPC   H2S 3563   3.176   0.587   7.080 -2.4268 -1.4594  0.9570
   27SAPC    C3 3564   3.257   1.053   6.776 -0.2271  0.2788  0.8053
   27SAPC    HX 3565   3.187   1.007   6.703  0.6819 -0.2696  0.2554
   27SAPC    HY 3566   3.335   1.100   6.712 -1.2883  1.0363  0.0291
   27SAPC   O31 3567   3.197   1.151   6.853 -0.0620 -0.1081 -0.8397
   27SAPC   C31 3568   3.261   1.266   6.887 -0.4799  0.3547  0.3196
   27SAPC   O32 3569   3.379   1.290   6.865  0.3205 -0.2842 -0.3591
   27SAPC   C32 3570   3.167   1.359   6.957  0.3305 -0.4445 -0.2665
   27SAPC   H2X 3571   3.090   1.373   6.879  0.8517 -1.6962 -1.0233
   27SAPC   H2Y 3572   3.220   1.454   6.980  0.1122 -0.6380  1.1269
   27SAPC   C23 3573   3.049   0.727   7.180 -0.5238 -0.7442 -0.2441
   27SAPC   H3R 3574   3.113   0.703   7.267 -0.9563 -1.8962 -0.2281
   27SAPC   H3S 3575   2.963   0.658   7.192 -1.3571 -0.2825 -2.8705
   27SAPC   C24 3576   3.005   0.876   7.172 -0.0034 -0.1626 -0.4116
   27SAPC   H4R 3577   2.927   0.879   7.093 -2.1553 -0.8469  1.6006
   27SAPC   H4S 3578   3.085   0.943   7.132  1.5444 -1.3413  0.5959
   27SAPC   C25 3579   2.954   0.915   7.310  0.4931  0.2070 -0.1306
   27SAPC   H5R 3580   2.989   0.863   7.400  0.9918 -1.9955 -1.5294
   27SAPC   C26 3581   2.857   1.003   7.339 -0.6185 -0.7042  0.3171
   27SAPC   H6R 3582   2.817   1.010   7.442 -1.6387  1.2321 -0.1608
   27SAPC   C27 3583   2.779   1.097   7.249 -0.6546  0.1418 -0.0106
   27SAPC   H7R 3584   2.795   1.081   7.141  0.5963 -1.6061  0.3715
   27SAPC   H7S 3585   2.824   1.197   7.266 -0.4987 -0.1944  1.8706
   27SAPC   C28 3586   2.632   1.091   7.279 -0.3309  0.0172 -0.5425
   27SAPC   H8R 3587   2.578   1.044   7.196  0.4050 -1.5890 -0.1387
   27SAPC   C29 3588   2.564   1.139   7.385 -0.1795  0.4363  0.2773
   27SAPC   H9R 3589   2.454   1.137   7.390 -0.2708 -0.2601 -1.4817
   27SAPC  C210 3590   2.626   1.212   7.499 -0.0588 -0.1436  0.1384
   27SAPC  H10R 3591   2.703   1.283   7.462 -1.9086  2.2495  0.6715
   27SAPC  H10S 3592   2.677   1.136   7.563 -0.4259  0.4367  1.1407
   27SAPC  C211 3593   2.544   1.298   7.586  0.2012  0.6194  0.0810
   27SAPC  H11R 3594   2.546   1.405   7.562  0.7576  0.7252  0.5774
   27SAPC  C212 3595   2.471   1.265   7.698  0.8645 -0.0610 -0.6148
   27SAPC  H12R 3596   2.415   1.345   7.750  2.5902  0.5385  0.3808
   27SAPC  C213 3597   2.457   1.128   7.754  0.2635 -0.4096 -0.6644
   27SAPC  H13R 3598   2.480   1.050   7.679  1.0712 -3.1639  2.2197
   27SAPC  H13S 3599   2.347   1.121   7.770  0.0100  0.6973 -1.7537
   27SAPC  C214 3600   2.539   1.106   7.877 -0.2706  0.4059 -0.5285
   27SAPC  H14R 3601   2.607   1.186   7.909 -0.0334 -0.4214  1.1366
   27SAPC  C215 3602   2.547   0.984   7.940 -0.7364  0.1956 -0.5437
   27SAPC  H15R 3603   2.602   0.967   8.033 -2.8554 -1.8694  0.4291
   27SAPC  C216 3604   2.475   0.859   7.892  0.2047 -0.0531  0.1079
   27SAPC  H16R 3605   2.552   0.780   7.905 -1.0522 -1.7196 -1.8508
   27SAPC  H16S 3606   2.457   0.851   7.783 -0.3484 -0.7739  0.2510
   27SAPC  C217 3607   2.345   0.816   7.962  0.3995 -0.1814  0.5575
   27SAPC  H17R 3608   2.279   0.893   7.916  1.7376  0.3165 -0.6205
   27SAPC  H17S 3609   2.361   0.834   8.070 -0.1305 -0.0213  0.6115
   27SAPC  C218 3610   2.287   0.673   7.923  0.1825  0.6447 -0.5257
   27SAPC  H18R 3611   2.190   0.650   7.972 -0.3558  0.5355 -1.6099
   27SAPC  H18S 3612   2.368   0.607   7.961 -0.8819  0.6967  2.0186
   27SAPC  C219 3613   2.274   0.653   7.777  0.0625 -0.0811 -0.2257
   27SAPC  H19R 3614   2.369   0.650   7.721 -0.5267 -2.4437 -1.2021
   27SAPC  H19S 3615   2.215   0.739   7.739  1.1483  1.0879  0.6656
   27SAPC  C220 3616   2.195   0.526   7.755 -0.2457  0.5850 -0.0763
   27SAPC  H20R 3617   2.228   0.450   7.829 -2.0300  3.2605  3.7767
   27SAPC  H20S 3618   2.209   0.497   7.648 -1.2140  0.8004 -0.2718
   27SAPC  H20T 3619   2.088   0.533   7.780 -0.3495 -2.6853  0.8879
   27SAPC   C33 3620   3.103   1.303   7.084 -0.7787  0.0631 -0.8887
   27SAPC   H3X 3621   3.073   1.198   7.063 -0.8359 -0.1204  0.0509
   27SAPC   H3Y 3622   3.009   1.358   7.108 -1.9768 -1.8933 -0.8184
   27SAPC   C34 3623   3.187   1.312   7.210  0.1451  0.1130 -0.9230
   27SAPC   H4X 3624   3.226   1.416   7.212  0.8993 -0.1709 -0.5556
   27SAPC   H4Y 3625   3.274   1.244   7.192  0.2059  0.1327 -0.7030
   27SAPC   C35 3626   3.111   1.266   7.333 -0.2140  0.7391  0.6295
   27SAPC   H5X 3627   3.100   1.156   7.346  0.2292  0.6364  0.1389
   27SAPC   H5Y 3628   3.006   1.302   7.328 -0.8889 -1.2265 -0.7349
   27SAPC   C36 3629   3.189   1.315   7.465 -0.0536 -0.1678 -0.1758
   27SAPC   H6X 3630   3.200   1.425   7.455  1.1843 -0.3489 -0.9422
   27SAPC   H6Y 3631   3.288   1.265   7.457  0.1332  0.2232 -0.3148
   27SAPC   C37 3632   3.118   1.282   7.597 -0.6715  0.1259  0.1055
   27SAPC   H7X 3633   3.023   1.335   7.576  0.1400  0.9115 -1.7758
   27SAPC   H7Y 3634   3.169   1.326   7.685 -3.0756  1.2329  1.0148
   27SAPC   C38 3635   3.078   1.139   7.622 -0.3108  0.1209  0.1505
   27SAPC   H8X 3636   3.168   1.073   7.621  0.6140  1.3319 -1.3034
   27SAPC   H8Y 3637   3.008   1.118   7.539 -1.5227 -0.0075  1.1762
   27SAPC   C39 3638   3.011   1.118   7.758  0.2053  0.2392 -0.0292
   27SAPC   H9X 3639   2.906   1.154   7.751 -0.5827 -2.1478 -1.6757
   27SAPC   H9Y 3640   3.056   1.177   7.841  0.7152  0.7146 -0.6286
   27SAPC  C310 3641   3.005   0.971   7.799  0.2993  0.6596 -0.4962
   27SAPC  H10X 3642   3.004   0.966   7.910 -0.7166  0.7956 -0.4894
   27SAPC  H10Y 3643   3.103   0.925   7.776  0.7721  1.1955  0.3703
   27SAPC  C311 3644   2.888   0.889   7.736 -0.3553 -0.1671  0.6967
   27SAPC  H11X 3645   2.893   0.923   7.630  1.3194 -0.2357  0.7339
   27SAPC  H11Y 3646   2.792   0.919   7.784  0.6755  0.2359  2.5795
   27SAPC  C312 3647   2.918   0.735   7.730  0.7399 -0.5313  0.3418
   27SAPC  H12X 3648   3.018   0.714   7.685  0.4758  2.1562 -1.7533
   27SAPC  H12Y 3649   2.839   0.691   7.665 -1.3142  2.1130  0.9094
   27SAPC  C313 3650   2.914   0.671   7.865 -0.0264 -0.0598 -0.1747
   27SAPC  H13X 3651   3.006   0.699   7.921 -0.7638  0.3718  0.8511
   27SAPC  H13Y 3652   2.908   0.561   7.851 -0.7318 -0.1190  0.5187
   27SAPC  C314 3653   2.792   0.698   7.952  0.0870 -0.5956 -0.6925
   27SAPC  H14X 3654   2.703   0.651   7.905 -0.8383  0.7832 -0.4112
   27SAPC  H14Y 3655   2.760   0.804   7.967 -1.5817 -1.0505 -0.7400
   27SAPC  C315 3656   2.809   0.631   8.090  0.5793 -0.8198  0.4234
   27SAPC  H15X 3657   2.890   0.685   8.143  0.0348 -0.8540  1.3040
   27SAPC  H15Y 3658   2.831   0.522   8.081  1.7085 -0.6256  0.6621
   27SAPC  C316 3659   2.675   0.643   8.171 -0.0618  0.0462  0.9553
   27SAPC  H16X 3660   2.587   0.599   8.120 -2.9671  2.8735  3.1209
   27SAPC  H16Y 3661   2.649   0.751   8.171  1.1628  0.3606  1.6184
   27SAPC  C317 3662   2.703   0.579   8.306  1.1037  0.8534 -0.9222
   27SAPC  H17X 3663   2.735   0.656   8.380  1.3484 -0.9083  0.9017
   27SAPC  H17Y 3664   2.789   0.510   8.294 -0.6104 -0.9786 -3.6388
   27SAPC  C318 3665   2.568   0.512   8.351 -0.3970 -0.3106  0.7005
   27SAPC  H18X 3666   2.484   0.585   8.359 -0.5436 -0.5240  1.1111
   27SAPC  H18Y 3667   2.589   0.460   8.447  1.5226 -2.3171 -0.7221
   27SAPC  H18Z 3668   2.536   0.442   8.271 -2.7465  0.9693  0.4378
   28SAPC     N 3669   1.927   4.879   6.283  0.3359 -0.6720  0.6622
   28SAPC   C12 3670   1.973   4.844   6.425  0.0238  0.3660 -0.5864
   28SAPC  H12A 3671   1.922   4.753   6.452 -1.9099  1.2869 -0.9886
   28SAPC  H12B 3672   1.962   4.920   6.500  1.8999  1.1478 -1.0412
   28SAPC   C13 3673   2.032   4.958   6.210 -0.9869 -0.4257 -0.0915
   28SAPC  H13A 3674   2.018   4.962   6.103 -0.5282  0.2185 -0.1337
   28SAPC  H13B 3675   2.055   5.056   6.249 -1.7002  0.0511 -0.8465
   28SAPC  H13C 3676   2.128   4.913   6.232 -1.0105  0.3893  1.8472
   28SAPC   C14 3677   1.900   4.756   6.208 -0.1954  0.2297 -0.3387
   28SAPC  H14A 3678   1.994   4.704   6.212  0.9760  2.2735 -0.0241
   28SAPC  H14B 3679   1.816   4.710   6.258 -0.4680 -0.3540 -1.3265
   28SAPC  H14C 3680   1.876   4.791   6.109  1.2336  1.7519 -0.1907
   28SAPC   C15 3681   1.809   4.966   6.285  0.4300  0.6708 -0.3209
   28SAPC  H15A 3682   1.729   4.919   6.341 -0.0642  0.3469 -1.2671
   28SAPC  H15B 3683   1.834   5.059   6.335  0.2514  1.1467 -1.0996
   28SAPC  H15C 3684   1.776   4.987   6.184 -1.6915 -0.0015  0.1790
   28SAPC   C11 3685   2.128   4.795   6.436 -0.0788 -0.7875 -0.0181
   28SAPC  H11A 3686   2.136   4.784   6.547 -1.0926 -0.2325  0.1151
   28SAPC  H11B 3687   2.193   4.882   6.415 -0.7276  0.3588  2.3627
   28SAPC     P 3688   2.112   4.539   6.390  0.1221 -0.1571  0.1035
   28SAPC   O13 3689   1.970   4.545   6.439  0.2614 -0.1866  0.1654
   28SAPC   O14 3690   2.146   4.454   6.278  0.2167 -0.3262 -0.1740
   28SAPC   O12 3691   2.163   4.679   6.357 -0.6853 -0.8557 -0.0768
   28SAPC   O11 3692   2.214   4.511   6.501  0.2224 -0.3979  0.1866
   28SAPC    C1 3693   2.233   4.380   6.566 -0.5291  0.9097  0.7545
   28SAPC    HA 3694   2.134   4.335   6.589  0.4478 -1.1081  1.2305
   28SAPC    HB 3695   2.291   4.317   6.495  0.2071  0.5289  1.6646
   28SAPC    C2 3696   2.314   4.393   6.697 -0.3007  0.7154  0.3767
   28SAPC    HS 3697   2.420   4.396   6.666 -0.9831  0.4622 -2.1504
   28SAPC   O21 3698   2.280   4.276   6.771 -0.1172  0.1119 -0.0661
   28SAPC   C21 3699   2.378   4.238   6.853  0.3713 -0.1500  0.7669
   28SAPC   O22 3700   2.485   4.292   6.872 -0.4631 -0.4200  0.2714
   28SAPC   C22 3701   2.340   4.102   6.910 -0.0750 -0.4802  0.3279
   28SAPC   H2R 3702   2.229   4.102   6.903 -0.0256  1.2182 -1.1375
   28SAPC   H2S 3703   2.381   4.022   6.846 -1.3638 -1.2001  0.3573
   28SAPC    C3 3704   2.264   4.515   6.770  0.5082  0.4818 -0.1328
   28SAPC    HX 3705   2.153   4.504   6.777  0.6152 -0.1970  0.6732
   28SAPC    HY 3706   2.278   4.605   6.707  1.1423 -0.3401 -1.2069
   28SAPC   O31 3707   2.323   4.522   6.895  0.5376 -0.2541  0.5366
   28SAPC   C31 3708   2.432   4.607   6.907  0.4017 -0.5329 -0.1085
   28SAPC   O32 3709   2.462   4.687   6.820 -0.7206  0.0590 -0.8162
   28SAPC   C32 3710   2.503   4.594   7.039  0.2535 -0.2586  0.4604
   28SAPC   H2X 3711   2.588   4.525   7.023  0.5831  0.3582 -0.5444
   28SAPC   H2Y 3712   2.439   4.558   7.122  0.2240  3.0223  2.0309
   28SAPC   C23 3713   2.389   4.068   7.053 -0.2273 -0.0620  0.1272
   28SAPC   H3R 3714   2.500   4.063   7.040 -0.3195  0.1495 -0.8271
   28SAPC   H3S 3715   2.356   3.969   7.090 -1.1581 -0.3750 -1.4476
   28SAPC   C24 3716   2.354   4.173   7.155  0.2063  0.7273  0.0409
   28SAPC   H4R 3717   2.340   4.267   7.098 -1.0258  0.5155 -0.0413
   28SAPC   H4S 3718   2.253   4.152   7.197  0.2497  3.1751  1.5247
   28SAPC   C25 3719   2.452   4.189   7.270 -0.0135  0.4215 -0.1268
   28SAPC   H5R 3720   2.540   4.250   7.250 -0.1754  1.4030  1.9299
   28SAPC   C26 3721   2.426   4.146   7.395  0.3707 -0.3984 -0.1958
   28SAPC   H6R 3722   2.499   4.169   7.474 -0.6168  0.1263  0.5898
   28SAPC   C27 3723   2.304   4.066   7.440  0.9127 -0.0729  0.7860
   28SAPC   H7R 3724   2.249   4.025   7.353 -0.2065  1.7375  0.5803
   28SAPC   H7S 3725   2.234   4.144   7.477  0.5060  0.6744 -1.4268
   28SAPC   C28 3726   2.317   3.953   7.538 -0.5472  0.1128  0.6014
   28SAPC   H8R 3727   2.350   3.854   7.504 -0.4744  0.9209 -1.9247
   28SAPC   C29 3728   2.304   3.971   7.665  0.0115  0.3130 -0.7935
   28SAPC   H9R 3729   2.317   3.882   7.727  1.7329  0.3459 -1.0393
   28SAPC  C210 3730   2.269   4.096   7.740  0.2641 -0.1447 -0.0795
   28SAPC  H10R 3731   2.193   4.074   7.818  1.5819  0.8080  1.5602
   28SAPC  H10S 3732   2.214   4.160   7.668  1.2101  1.2863  0.4246
   28SAPC  C211 3733   2.382   4.164   7.810 -0.3451 -0.2565  0.3804
   28SAPC  H11R 3734   2.474   4.154   7.750 -0.0739  0.4301  0.6700
   28SAPC  C212 3735   2.387   4.203   7.941  1.2791 -0.1274  0.9355
   28SAPC  H12R 3736   2.477   4.256   7.973  1.3314 -0.0333  0.6419
   28SAPC  C213 3737   2.271   4.198   8.047  0.0340 -0.0249  1.0259
   28SAPC  H13R 3738   2.232   4.094   8.037 -2.4088  0.8063  1.0989
   28SAPC  H13S 3739   2.185   4.261   8.016 -0.9964 -2.0571 -0.5092
   28SAPC  C214 3740   2.316   4.244   8.181 -0.0568 -0.2173  0.4993
   28SAPC  H14R 3741   2.249   4.326   8.211  0.2674  0.2815 -0.1059
   28SAPC  C215 3742   2.418   4.205   8.260  0.4655 -0.6169  0.3409
   28SAPC  H15R 3743   2.433   4.261   8.354 -1.3757  0.0733  0.2707
   28SAPC  C216 3744   2.516   4.090   8.235  0.8673  0.2443  0.3257
   28SAPC  H16R 3745   2.620   4.118   8.264  2.0313 -0.3808 -2.8053
   28SAPC  H16S 3746   2.517   4.070   8.126 -2.0547 -0.6003  0.3675
   28SAPC  C217 3747   2.468   3.954   8.301  0.3493  0.3247 -0.4653
   28SAPC  H17R 3748   2.362   3.924   8.287  0.4660 -0.2729 -0.1069
   28SAPC  H17S 3749   2.469   3.985   8.407 -1.6221  3.0153 -1.1391
   28SAPC  C218 3750   2.565   3.839   8.272 -0.8952 -0.2414  0.1107
   28SAPC  H18R 3751   2.667   3.877   8.295 -0.8206  0.1553 -0.8167
   28SAPC  H18S 3752   2.546   3.830   8.163 -1.9666  1.5230  0.1110
   28SAPC  C219 3753   2.525   3.716   8.352  0.2316  0.0695 -0.1233
   28SAPC  H19R 3754   2.416   3.694   8.353  0.2555 -0.1603 -1.2916
   28SAPC  H19S 3755   2.564   3.723   8.456 -0.8926 -0.7527  0.3713
   28SAPC  C220 3756   2.604   3.597   8.299  0.2090  0.5255 -0.2365
   28SAPC  H20R 3757   2.581   3.511   8.366  0.3332  0.7372  0.0806
   28SAPC  H20S 3758   2.712   3.618   8.288  0.7240 -0.8123  1.7780
   28SAPC  H20T 3759   2.568   3.572   8.197  2.5276 -0.0089 -0.9930
   28SAPC   C33 3760   2.567   4.728   7.082 -0.3102  0.3293  0.0158
   28SAPC   H3X 3761   2.495   4.803   7.124  1.8177  1.2595  2.2871
   28SAPC   H3Y 3762   2.611   4.781   6.995 -0.1885 -0.6745 -0.5488
   28SAPC   C34 3763   2.671   4.714   7.197 -0.4225 -0.1914  0.4020
   28SAPC   H4X 3764   2.744   4.797   7.207  1.9313 -1.6984 -2.4239
   28SAPC   H4Y 3765   2.743   4.636   7.163  0.0056  0.1123  0.5958
   28SAPC   C35 3766   2.601   4.689   7.330  0.4591 -0.8211 -0.4304
   28SAPC   H5X 3767   2.528   4.605   7.337 -1.0082  0.1631 -2.7178
   28SAPC   H5Y 3768   2.533   4.776   7.350  1.0120 -1.0475  2.9331
   28SAPC   C36 3769   2.698   4.678   7.444 -0.6450  0.4017  0.7715
   28SAPC   H6X 3770   2.760   4.768   7.430  0.7554 -0.7373 -0.8485
   28SAPC   H6Y 3771   2.760   4.587   7.424 -2.4902 -0.8370  0.3660
   28SAPC   C37 3772   2.630   4.666   7.581 -0.1602  0.2031  0.2380
   28SAPC   H7X 3773   2.578   4.569   7.597  0.3343  0.3871  3.5917
   28SAPC   H7Y 3774   2.568   4.758   7.587 -0.8889 -0.2476 -0.1801
   28SAPC   C38 3775   2.733   4.688   7.693 -0.2239  0.5973 -0.3595
   28SAPC   H8X 3776   2.763   4.794   7.688  0.6013  0.3565 -0.7747
   28SAPC   H8Y 3777   2.828   4.631   7.684  0.1859  0.8665  1.7658
   28SAPC   C39 3778   2.676   4.647   7.834 -0.3264  0.0090  0.6747
   28SAPC   H9X 3779   2.747   4.667   7.917 -1.1654  2.9284  0.7945
   28SAPC   H9Y 3780   2.662   4.537   7.847  0.2405 -0.0035  1.2204
   28SAPC  C310 3781   2.543   4.724   7.873 -0.1439 -0.1135 -0.0041
   28SAPC  H10X 3782   2.486   4.768   7.788 -0.0369  0.3388  0.1558
   28SAPC  H10Y 3783   2.559   4.818   7.930  1.4755  0.9159 -2.0349
   28SAPC  C311 3784   2.458   4.640   7.970 -0.9785  0.1176 -0.4102
   28SAPC  H11X 3785   2.509   4.619   8.066 -1.0394  0.1039 -0.3812
   28SAPC  H11Y 3786   2.455   4.536   7.930  3.6110 -0.1338 -0.6635
   28SAPC  C312 3787   2.317   4.694   7.996 -0.3809  0.3382  0.2685
   28SAPC  H12X 3788   2.256   4.607   8.026  0.9393  0.1777  2.6964
   28SAPC  H12Y 3789   2.278   4.750   7.908  2.9714  0.3735 -1.3712
   28SAPC  C313 3790   2.319   4.794   8.114  0.0056  0.2942  0.8588
   28SAPC  H13X 3791   2.380   4.881   8.081 -1.3326  1.1368  0.5762
   28SAPC  H13Y 3792   2.380   4.749   8.196 -0.5350  0.4348  1.3403
   28SAPC  C314 3793   2.184   4.849   8.140  0.3359 -0.1778  0.5547
   28SAPC  H14X 3794   2.121   4.767   8.181 -0.6931 -0.8817 -2.1771
   28SAPC  H14Y 3795   2.137   4.875   8.042 -0.3034 -0.1892  0.8539
   28SAPC  C315 3796   2.183   4.980   8.222 -0.6467  0.3589  0.4807
   28SAPC  H15X 3797   2.083   5.028   8.231  0.5213  2.7596  1.6141
   28SAPC  H15Y 3798   2.243   5.051   8.161  0.1060  0.9711  1.8778
   28SAPC  C316 3799   2.249   4.958   8.362  0.7295 -0.2524 -0.4603
   28SAPC  H16X 3800   2.359   4.940   8.355  0.5345 -0.9780 -2.2910
   28SAPC  H16Y 3801   2.212   4.866   8.411 -1.4999  0.2733 -1.0301
   28SAPC  C317 3802   2.228   5.071   8.461 -0.8477 -0.4227  0.0787
   28SAPC  H17X 3803   2.130   5.121   8.442 -1.7559 -2.4161 -0.7337
   28SAPC  H17Y 3804   2.308   5.142   8.433 -1.5609 -0.5623 -2.6603
   28SAPC  C318 3805   2.249   5.026   8.608  0.5170  1.0555  0.1228
   28SAPC  H18X 3806   2.175   4.946   8.630  1.5398  0.2238  0.6395
   28SAPC  H18Y 3807   2.237   5.112   8.677  1.7216  2.5423 -1.4673
   28SAPC  H18Z 3808   2.351   4.982   8.617  0.0304  0.0875  1.3183
   29SAPC     N 3809   4.006   0.237   6.191 -0.8492 -0.2067  0.7446
   29SAPC   C12 3810   4.118   0.286   6.282  0.3790 -0.0891  0.7933
   29SAPC  H12A 3811   4.209   0.297   6.225 -0.5787  1.8355 -0.4327
   29SAPC  H12B 3812   4.139   0.215   6.361  0.5290  2.7553  3.5375
   29SAPC   C13 3813   3.876   0.212   6.266  0.3946 -0.1393  0.4161
   29SAPC  H13A 3814   3.800   0.197   6.191  1.4708 -2.0383 -0.3426
   29SAPC  H13B 3815   3.878   0.126   6.331 -2.9499 -1.0083 -0.4244
   29SAPC  H13C 3816   3.853   0.299   6.326 -1.7751 -1.9584  2.4669
   29SAPC   C14 3817   3.981   0.333   6.075  0.7355 -0.4639  0.7489
   29SAPC  H14A 3818   4.060   0.358   6.006  0.9805 -2.0999  0.3995
   29SAPC  H14B 3819   3.909   0.283   6.013  2.5382 -0.7759 -1.1991
   29SAPC  H14C 3820   3.934   0.426   6.102  1.3539  0.1898 -0.3617
   29SAPC   C15 3821   4.064   0.113   6.125  0.3608  0.2232  0.1616
   29SAPC  H15A 3822   3.997   0.083   6.046 -0.9441 -1.9317  1.9747
   29SAPC  H15B 3823   4.166   0.117   6.088  0.3752 -0.6823  0.0823
   29SAPC  H15C 3824   4.058   0.025   6.186 -0.5685 -0.1235 -0.4044
   29SAPC   C11 3825   4.095   0.415   6.367 -0.5471 -0.0692  0.2665
   29SAPC  H11A 3826   4.172   0.413   6.447 -1.1362 -0.7482  0.8288
   29SAPC  H11B 3827   3.997   0.411   6.420 -0.6581 -2.7661  0.0109
   29SAPC     P 3828   4.215   0.625   6.270 -0.2273 -0.3210  0.0390
   29SAPC   O13 3829   4.302   0.579   6.161  0.0811 -0.3880  0.3511
   29SAPC   O14 3830   4.158   0.764   6.260 -0.0503  0.4759 -0.4931
   29SAPC   O12 3831   4.100   0.522   6.274  0.2481 -0.1853  0.2307
   29SAPC   O11 3832   4.284   0.621   6.407 -0.0258 -0.1149  0.3403
   29SAPC    C1 3833   4.228   0.662   6.531  0.3807 -0.2605  0.7314
   29SAPC    HA 3834   4.218   0.772   6.540 -2.9169 -0.4858  1.0483
   29SAPC    HB 3835   4.133   0.609   6.553  0.8036 -1.3211  0.0953
   29SAPC    C2 3836   4.318   0.643   6.656 -0.4358  0.6286  0.2602
   29SAPC    HS 3837   4.292   0.716   6.735  0.2610  0.3914  0.7123
   29SAPC   O21 3838   4.454   0.643   6.615 -0.8549  0.0338 -0.0752
   29SAPC   C21 3839   4.509   0.760   6.606 -0.1693 -0.6643  0.2835
   29SAPC   O22 3840   4.455   0.871   6.598  0.1113  0.6528  0.0960
   29SAPC   C22 3841   4.669   0.749   6.601 -0.4221  0.9047  0.5398
   29SAPC   H2R 3842   4.678   0.679   6.515  0.2023  0.5437  0.8959
   29SAPC   H2S 3843   4.705   0.850   6.574 -0.4375  0.8120  0.1730
   29SAPC    C3 3844   4.292   0.498   6.702 -0.3368  0.4947 -1.0261
   29SAPC    HX 3845   4.318   0.427   6.620 -1.1230 -2.2302  0.9103
   29SAPC    HY 3846   4.186   0.495   6.738  0.3848  2.9365  1.6371
   29SAPC   O31 3847   4.378   0.480   6.823  0.3004  0.6819  0.5743
   29SAPC   C31 3848   4.334   0.384   6.899 -0.2222  0.5518 -0.0982
   29SAPC   O32 3849   4.236   0.313   6.888 -0.6446 -0.1019 -0.3279
   29SAPC   C32 3850   4.440   0.344   7.008 -1.0553  0.2121  0.5326
   29SAPC   H2X 3851   4.536   0.398   6.996 -1.4759  0.8602  0.0159
   29SAPC   H2Y 3852   4.452   0.235   6.991 -1.8780  0.0781  0.7851
   29SAPC   C23 3853   4.735   0.691   6.733 -0.0611 -0.3762  0.1106
   29SAPC   H3R 3854   4.841   0.659   6.723  0.5841  1.9337 -1.4360
   29SAPC   H3S 3855   4.686   0.596   6.764 -0.8996 -0.3758 -1.1425
   29SAPC   C24 3856   4.744   0.796   6.847 -0.2150  0.5208 -0.5426
   29SAPC   H4R 3857   4.781   0.891   6.803 -2.3074  0.8904 -1.6335
   29SAPC   H4S 3858   4.813   0.756   6.925 -2.5106 -0.5956  1.0305
   29SAPC   C25 3859   4.612   0.817   6.922  0.4933 -0.5204  0.2530
   29SAPC   H5R 3860   4.534   0.862   6.859  1.5534  0.4382 -0.4301
   29SAPC   C26 3861   4.588   0.793   7.051 -0.4592  0.1431  0.1220
   29SAPC   H6R 3862   4.498   0.834   7.098  0.9209  1.6481  1.5490
   29SAPC   C27 3863   4.682   0.750   7.163  0.2208 -0.2291 -0.4411
   29SAPC   H7R 3864   4.770   0.709   7.111  1.2151  2.1736 -0.8135
   29SAPC   H7S 3865   4.648   0.658   7.215  4.4272 -1.4356  0.5988
   29SAPC   C28 3866   4.730   0.841   7.274  0.2886 -0.4760  0.0046
   29SAPC   H8R 3867   4.750   0.944   7.241 -2.1310  0.7285  1.9673
   29SAPC   C29 3868   4.777   0.797   7.394 -0.0356  0.8191 -0.7284
   29SAPC   H9R 3869   4.813   0.873   7.466 -1.0072 -0.5473  1.2717
   29SAPC  C210 3870   4.795   0.659   7.466  0.9665 -0.5764  0.4035
   29SAPC  H10R 3871   4.879   0.653   7.539  0.5821  1.7391  1.1317
   29SAPC  H10S 3872   4.826   0.590   7.385  1.7165  0.6951 -0.4263
   29SAPC  C211 3873   4.673   0.602   7.526 -0.7014  0.0491 -0.2055
   29SAPC  H11R 3874   4.616   0.533   7.462 -2.1939  1.3426 -0.3026
   29SAPC  C212 3875   4.620   0.624   7.652 -0.0599  0.6676  0.7887
   29SAPC  H12R 3876   4.517   0.587   7.666  0.3752 -1.4110 -0.8157
   29SAPC  C213 3877   4.681   0.719   7.752 -0.4158 -0.3296 -0.0768
   29SAPC  H13R 3878   4.638   0.821   7.742 -1.2449 -0.4454  1.7973
   29SAPC  H13S 3879   4.789   0.734   7.731 -0.2922 -0.2358  0.6080
   29SAPC  C214 3880   4.680   0.684   7.901  0.3667  0.2989  0.0234
   29SAPC  H14R 3881   4.615   0.599   7.925  2.3049 -2.2064 -2.8782
   29SAPC  C215 3882   4.747   0.749   7.996  0.1245 -0.7149 -0.4816
   29SAPC  H15R 3883   4.741   0.717   8.101  1.8746 -1.4712 -0.5854
   29SAPC  C216 3884   4.835   0.878   7.980  0.6647 -0.4959 -0.0285
   29SAPC  H16R 3885   4.854   0.886   7.871  0.1333 -1.7901 -0.2377
   29SAPC  H16S 3886   4.931   0.872   8.036  0.6031 -0.6021  0.0668
   29SAPC  C217 3887   4.765   1.008   8.032 -0.1522 -0.1516  0.8021
   29SAPC  H17R 3888   4.660   1.013   7.998 -0.5997 -3.5687  1.3596
   29SAPC  H17S 3889   4.827   1.093   7.995 -0.6300 -0.2126 -0.1584
   29SAPC  C218 3890   4.768   1.006   8.178  0.5298  0.1655 -0.4782
   29SAPC  H18R 3891   4.871   0.996   8.218  0.2849  0.2767  0.2114
   29SAPC  H18S 3892   4.720   0.913   8.216  2.6424  0.1749  2.5668
   29SAPC  C219 3893   4.702   1.131   8.239  0.2422 -0.4373  0.0964
   29SAPC  H19R 3894   4.733   1.158   8.342 -1.2255  1.0340  0.2024
   29SAPC  H19S 3895   4.591   1.120   8.243  0.1894 -0.6571 -1.3753
   29SAPC  C220 3896   4.727   1.262   8.167  0.2661 -0.5921 -0.5691
   29SAPC  H20R 3897   4.665   1.348   8.203 -1.7388 -0.7886 -3.2610
   29SAPC  H20S 3898   4.707   1.264   8.058  0.4666  0.3134 -0.6034
   29SAPC  H20T 3899   4.836   1.281   8.170  0.0083  1.2257 -1.1749
   29SAPC   C33 3900   4.388   0.361   7.149  0.4533  0.8849 -0.4381
   29SAPC   H3X 3901   4.284   0.323   7.163  0.3814  1.3758  0.4040
   29SAPC   H3Y 3902   4.397   0.470   7.170  1.1976  0.9150 -0.8661
   29SAPC   C34 3903   4.470   0.284   7.254  0.5253  0.3042  0.1995
   29SAPC   H4X 3904   4.566   0.339   7.257  0.1328  0.9442  1.7845
   29SAPC   H4Y 3905   4.472   0.178   7.221 -0.6546  0.2517  0.2492
   29SAPC   C35 3906   4.407   0.288   7.397  0.7560  0.5387 -0.8241
   29SAPC   H5X 3907   4.299   0.263   7.390  0.8942 -0.3569  0.0555
   29SAPC   H5Y 3908   4.398   0.396   7.422 -1.3445  0.3592 -0.6511
   29SAPC   C36 3909   4.483   0.212   7.506 -0.4959 -0.1127 -0.0013
   29SAPC   H6X 3910   4.592   0.219   7.487 -0.4363  1.5694  0.7361
   29SAPC   H6Y 3911   4.453   0.105   7.503  2.0383 -0.8780 -1.5468
   29SAPC   C37 3912   4.465   0.264   7.646 -0.7242 -0.5445 -0.4407
   29SAPC   H7X 3913   4.358   0.264   7.676 -0.2791  1.2394  1.3540
   29SAPC   H7Y 3914   4.500   0.369   7.656 -1.1665 -0.5566  1.7267
   29SAPC   C38 3915   4.542   0.170   7.744  0.4334 -0.1914  0.4012
   29SAPC   H8X 3916   4.642   0.154   7.697 -0.1972 -0.0967 -1.0446
   29SAPC   H8Y 3917   4.502   0.067   7.749  0.8633 -0.3916 -0.1379
   29SAPC   C39 3918   4.549   0.228   7.877  0.3900  0.1292  0.2909
   29SAPC   H9X 3919   4.566   0.337   7.870  1.4634 -0.0531 -0.2342
   29SAPC   H9Y 3920   4.640   0.192   7.929  0.5119 -3.9719 -2.2558
   29SAPC  C310 3921   4.428   0.211   7.975 -0.0120 -0.2113 -0.5152
   29SAPC  H10X 3922   4.429   0.103   8.005  0.1351  0.3285  1.6103
   29SAPC  H10Y 3923   4.331   0.231   7.924  1.5870  2.7747 -2.6258
   29SAPC  C311 3924   4.447   0.267   8.123  0.4002  0.2645 -0.2809
   29SAPC  H11X 3925   4.519   0.200   8.175 -0.3703 -2.9613 -2.9577
   29SAPC  H11Y 3926   4.358   0.243   8.185  1.7385  1.8687  2.4261
   29SAPC  C312 3927   4.468   0.418   8.130  0.7496  0.3344 -0.1891
   29SAPC  H12X 3928   4.404   0.469   8.056 -1.2661 -1.3519  0.3011
   29SAPC  H12Y 3929   4.578   0.419   8.113  0.4708 -0.1013 -2.2860
   29SAPC  C313 3930   4.445   0.463   8.280 -0.5992  0.5443 -0.2477
   29SAPC  H13X 3931   4.531   0.413   8.331 -1.8794 -0.1168  1.3420
   29SAPC  H13Y 3932   4.353   0.416   8.321 -0.9627  1.2691 -0.2347
   29SAPC  C314 3933   4.431   0.610   8.300 -0.2648 -0.4423 -0.0544
   29SAPC  H14X 3934   4.355   0.660   8.237 -1.4037 -1.3446  0.5557
   29SAPC  H14Y 3935   4.527   0.665   8.287 -0.7449  0.3635 -0.2653
   29SAPC  C315 3936   4.388   0.634   8.446 -0.3153  0.4744 -0.6186
   29SAPC  H15X 3937   4.445   0.563   8.510  0.6681  2.4980  0.8635
   29SAPC  H15Y 3938   4.280   0.611   8.454 -0.1004 -0.0316  1.3276
   29SAPC  C316 3939   4.418   0.766   8.509 -0.3870  0.0161 -0.2960
   29SAPC  H16X 3940   4.386   0.843   8.435 -1.7806  0.4788  0.7562
   29SAPC  H16Y 3941   4.529   0.764   8.518 -0.5451  0.5151  3.3038
   29SAPC  C317 3942   4.334   0.795   8.637  0.1347 -0.2027  0.2863
   29SAPC  H17X 3943   4.315   0.696   8.684 -1.1525 -1.5363 -2.7417
   29SAPC  H17Y 3944   4.236   0.833   8.602 -0.3314 -2.0412 -0.5223
   29SAPC  C318 3945   4.398   0.901   8.733 -0.9725  0.5447  0.5624
   29SAPC  H18X 3946   4.344   0.909   8.830  2.3159  0.7501  2.5506
   29SAPC  H18Y 3947   4.405   1.007   8.699  1.9700  0.6085  1.0763
   29SAPC  H18Z 3948   4.500   0.859   8.743 -0.9232  0.3801 -0.4751
   30SAPC     N 3949   6.048   1.408   5.725  0.0844 -0.2850  0.3188
   30SAPC   C12 3950   6.064   1.491   5.852  0.2256  0.3154 -0.0677
   30SAPC  H12A 3951   5.988   1.567   5.842  0.1019 -0.0218 -2.1146
   30SAPC  H12B 3952   6.156   1.547   5.844  1.1144 -1.2064 -1.0080
   30SAPC   C13 3953   6.162   1.315   5.708 -0.7075  0.0197 -0.2869
   30SAPC  H13A 3954   6.248   1.380   5.704  0.0928 -0.9611  0.5004
   30SAPC  H13B 3955   6.154   1.258   5.799 -0.5114  1.0719  0.3967
   30SAPC  H13C 3956   6.151   1.263   5.614 -0.9753  1.2302 -0.9479
   30SAPC   C14 3957   5.929   1.320   5.736 -0.2043  0.1307 -0.0640
   30SAPC  H14A 3958   5.933   1.253   5.820  0.4527  1.7786  1.2795
   30SAPC  H14B 3959   5.832   1.367   5.739 -0.7301 -0.9363  0.0387
   30SAPC  H14C 3960   5.922   1.257   5.648 -0.8365 -2.3223  1.6599
   30SAPC   C15 3961   6.027   1.503   5.612 -0.6534  0.7400  0.0185
   30SAPC  H15A 3962   6.103   1.577   5.592 -1.8433  2.1573  0.5506
   30SAPC  H15B 3963   6.024   1.444   5.521 -0.7022 -0.8080  1.0045
   30SAPC  H15C 3964   5.929   1.549   5.616 -0.8368  0.2500  2.1328
   30SAPC   C11 3965   6.052   1.413   5.982 -0.0433  0.8365  0.0618
   30SAPC  H11A 3966   5.983   1.326   5.989  1.0494 -0.0369  0.1997
   30SAPC  H11B 3967   6.015   1.479   6.063 -1.9618 -0.4917  0.3348
   30SAPC     P 3968   6.298   1.452   6.075 -0.0549 -0.3926 -0.1833
   30SAPC   O13 3969   6.409   1.373   6.125  0.0638  0.1542  0.3967
   30SAPC   O14 3970   6.336   1.565   5.988 -0.3553 -0.0564  0.1448
   30SAPC   O12 3971   6.188   1.357   6.010  0.3333 -0.6137  0.2182
   30SAPC   O11 3972   6.223   1.519   6.205 -0.4499  0.3044  0.1566
   30SAPC    C1 3973   6.178   1.432   6.310  0.5295 -0.2484 -0.1252
   30SAPC    HA 3974   6.072   1.451   6.339  0.9305 -1.0309  2.0418
   30SAPC    HB 3975   6.175   1.327   6.274 -3.7140  0.2302 -1.7988
   30SAPC    C2 3976   6.264   1.432   6.440 -0.4813 -0.2279  0.7728
   30SAPC    HS 3977   6.207   1.375   6.516 -0.5322 -1.2096  0.0209
   30SAPC   O21 3978   6.290   1.568   6.494  0.3614 -0.2268  0.0213
   30SAPC   C21 3979   6.184   1.620   6.552  0.0094 -0.2164  0.9401
   30SAPC   O22 3980   6.069   1.577   6.541  0.1780 -0.5146 -0.3376
   30SAPC   C22 3981   6.228   1.731   6.630 -0.3159  0.0982 -0.5119
   30SAPC   H2R 3982   6.316   1.786   6.590  0.0056 -1.8916 -2.7336
   30SAPC   H2S 3983   6.148   1.807   6.624 -1.1586 -0.8978 -3.1302
   30SAPC    C3 3984   6.402   1.361   6.414  0.2243  0.5218 -0.0445
   30SAPC    HX 3985   6.478   1.417   6.356 -1.2079 -0.2702 -2.8527
   30SAPC    HY 3986   6.394   1.271   6.351  2.5102 -0.2705  0.7041
   30SAPC   O31 3987   6.459   1.323   6.541  0.3117 -0.2321  0.1496
   30SAPC   C31 3988   6.451   1.188   6.570 -0.1817 -0.0742  0.0701
   30SAPC   O32 3989   6.391   1.106   6.510  0.3072  0.6492  0.3220
   30SAPC   C32 3990   6.544   1.166   6.688  0.5602  0.2407 -0.0616
   30SAPC   H2X 3991   6.498   1.219   6.775  0.0901  0.5476 -0.4937
   30SAPC   H2Y 3992   6.635   1.227   6.671  0.8012 -0.7176 -2.5628
   30SAPC   C23 3993   6.240   1.680   6.778 -0.1102  0.3200  0.4301
   30SAPC   H3R 3994   6.151   1.620   6.806  0.0073  0.3993  0.9690
   30SAPC   H3S 3995   6.231   1.770   6.841 -1.3482  0.5121  0.0150
   30SAPC   C24 3996   6.369   1.614   6.824 -0.5099 -0.1869  0.0810
   30SAPC   H4R 3997   6.377   1.512   6.781  0.8421  0.2448 -0.7671
   30SAPC   H4S 3998   6.371   1.613   6.935 -0.9863 -1.4393  0.0882
   30SAPC   C25 3999   6.476   1.705   6.778 -0.1528  0.6054 -0.1406
   30SAPC   H5R 4000   6.502   1.696   6.671  0.9660  1.6172  0.0297
   30SAPC   C26 4001   6.532   1.803   6.852  0.2179  0.2024 -0.2219
   30SAPC   H6R 4002   6.611   1.868   6.811  0.6487 -0.1270  0.0800
   30SAPC   C27 4003   6.509   1.824   7.004  0.5816 -0.1503  0.5136
   30SAPC   H7R 4004   6.607   1.840   7.052  1.5525  0.8249 -1.6538
   30SAPC   H7S 4005   6.471   1.737   7.062 -1.8468  1.7153  1.8871
   30SAPC   C28 4006   6.423   1.948   7.034 -0.4101 -0.3860 -0.3881
   30SAPC   H8R 4007   6.427   2.026   6.958 -0.2483  0.0144  0.0258
   30SAPC   C29 4008   6.361   1.978   7.149 -0.5169  0.1889  0.6192
   30SAPC   H9R 4009   6.312   2.077   7.156  2.4058  1.7101  1.3585
   30SAPC  C210 4010   6.348   1.902   7.280 -0.2734 -0.2067  0.6141
   30SAPC  H10R 4011   6.438   1.915   7.344  1.0773 -2.5517 -0.6662
   30SAPC  H10S 4012   6.356   1.792   7.263  0.8310 -0.0555  0.0601
   30SAPC  C211 4013   6.218   1.943   7.357 -0.2536 -0.2123 -0.3851
   30SAPC  H11R 4014   6.141   1.995   7.299 -0.8486 -1.1391 -0.4386
   30SAPC  C212 4015   6.204   1.934   7.488 -0.9268  0.1189 -0.7940
   30SAPC  H12R 4016   6.109   1.968   7.534 -0.6375 -0.6637  0.4363
   30SAPC  C213 4017   6.296   1.880   7.591 -0.0017  0.6572 -0.2036
   30SAPC  H13R 4018   6.313   1.959   7.667 -0.5554  1.1757 -0.6094
   30SAPC  H13S 4019   6.397   1.868   7.546  0.2397  1.1017  0.2101
   30SAPC  C214 4020   6.266   1.744   7.651 -0.1192  0.7702  0.0865
   30SAPC  H14R 4021   6.269   1.661   7.579 -0.2517  1.6768 -0.9809
   30SAPC  C215 4022   6.241   1.715   7.778  0.5745 -0.2810  0.0863
   30SAPC  H15R 4023   6.212   1.616   7.814  0.0122  0.8598  3.0533
   30SAPC  C216 4024   6.266   1.814   7.885 -0.1731  0.2647  0.0648
   30SAPC  H16R 4025   6.194   1.898   7.888 -0.5825 -0.1154  1.5339
   30SAPC  H16S 4026   6.367   1.858   7.870  0.1121  0.2742  1.7803
   30SAPC  C217 4027   6.267   1.759   8.026  0.3968  0.7025  0.2115
   30SAPC  H17R 4028   6.310   1.658   8.043  0.8570  0.9054  0.2858
   30SAPC  H17S 4029   6.164   1.732   8.057  0.8934  0.7191  1.9790
   30SAPC  C218 4030   6.332   1.857   8.124  0.2357  0.9112 -0.8348
   30SAPC  H18R 4031   6.442   1.865   8.113  0.4161  1.4921  0.9993
   30SAPC  H18S 4032   6.313   1.821   8.228  0.4823 -0.0889 -1.1216
   30SAPC  C219 4033   6.289   2.003   8.119 -0.5951 -0.7020  0.5517
   30SAPC  H19R 4034   6.178   2.004   8.120 -0.5918 -0.0836  0.8404
   30SAPC  H19S 4035   6.330   2.052   8.028  1.2019 -1.1406  1.0883
   30SAPC  C220 4036   6.329   2.076   8.248 -0.0384 -0.0982 -0.2149
   30SAPC  H20R 4037   6.293   2.015   8.332  0.8463 -0.0858  0.1866
   30SAPC  H20S 4038   6.267   2.169   8.245 -0.5704 -0.3966  1.1809
   30SAPC  H20T 4039   6.439   2.085   8.259 -0.3017  0.4893  2.6867
   30SAPC   C33 4040   6.565   1.019   6.723  0.0324  0.1710 -0.4467
   30SAPC   H3X 4041   6.664   1.014   6.773 -0.2592 -1.2927  0.0256
   30SAPC   H3Y 4042   6.583   0.958   6.632 -0.1969 -0.5229 -0.0385
   30SAPC   C34 4043   6.454   0.971   6.818  0.0020  0.3656 -0.0419
   30SAPC   H4X 4044   6.475   0.863   6.836 -2.6156 -0.0109  1.2792
   30SAPC   H4Y 4045   6.352   0.971   6.776  0.0830 -2.9710 -0.4909
   30SAPC   C35 4046   6.470   1.022   6.959  0.2550 -0.7422  0.2640
   30SAPC   H5X 4047   6.429   1.125   6.961  0.4611 -0.6274  3.1022
   30SAPC   H5Y 4048   6.574   1.017   6.996  0.7453 -2.2079 -1.1754
   30SAPC   C36 4049   6.384   0.934   7.052  0.1506 -0.7660 -0.3063
   30SAPC   H6X 4050   6.436   0.836   7.044  1.6334  0.1401 -3.0368
   30SAPC   H6Y 4051   6.280   0.938   7.014  0.4608  1.5026 -1.0850
   30SAPC   C37 4052   6.391   0.976   7.199  0.2991 -0.2268  0.4723
   30SAPC   H7X 4053   6.332   1.069   7.211  1.2300  0.2594  1.3920
   30SAPC   H7Y 4054   6.499   0.984   7.222  0.4069 -0.6796  0.1580
   30SAPC   C38 4055   6.335   0.864   7.291  0.1230  0.4933 -1.0014
   30SAPC   H8X 4056   6.383   0.764   7.299  0.3853  0.7737  3.5539
   30SAPC   H8Y 4057   6.228   0.857   7.263 -0.0725 -1.4338  0.0598
   30SAPC   C39 4058   6.335   0.907   7.440  0.6656 -0.1110 -0.1714
   30SAPC   H9X 4059   6.288   1.007   7.445 -0.2657 -0.5942  1.4057
   30SAPC   H9Y 4060   6.437   0.915   7.483  1.4576  0.4561 -2.0178
   30SAPC  C310 4061   6.245   0.821   7.530 -0.5026 -0.0253 -0.3886
   30SAPC  H10X 4062   6.286   0.719   7.546  0.7249  0.5497  0.3591
   30SAPC  H10Y 4063   6.146   0.807   7.484 -0.9592 -0.2516  0.6265
   30SAPC  C311 4064   6.224   0.884   7.666  0.1197 -0.2942 -0.9504
   30SAPC  H11X 4065   6.157   0.972   7.655 -0.7018 -1.1053 -2.7301
   30SAPC  H11Y 4066   6.318   0.915   7.716 -1.7225 -0.9647  3.4640
   30SAPC  C312 4067   6.150   0.799   7.777  0.1345  0.7883 -0.0995
   30SAPC  H12X 4068   6.172   0.692   7.757  1.7150  1.0727 -0.0195
   30SAPC  H12Y 4069   6.039   0.802   7.767  0.2451 -0.1749 -2.2114
   30SAPC  C313 4070   6.201   0.836   7.916 -0.3614  0.3497  0.1417
   30SAPC  H13X 4071   6.168   0.940   7.936 -0.2287  0.4105  0.0428
   30SAPC  H13Y 4072   6.310   0.826   7.898 -0.3904  2.9218 -2.1692
   30SAPC  C314 4073   6.148   0.736   8.021 -0.2675 -0.7578  0.0695
   30SAPC  H14X 4074   6.204   0.643   7.999  0.0444 -0.7217  0.6790
   30SAPC  H14Y 4075   6.040   0.722   7.999 -0.2283 -0.7699 -0.1167
   30SAPC  C315 4076   6.162   0.791   8.163 -0.6800  0.2606 -0.2698
   30SAPC  H15X 4077   6.102   0.884   8.175 -2.4051 -0.9038  0.6336
   30SAPC  H15Y 4078   6.268   0.815   8.186 -0.6790 -0.8970  1.0528
   30SAPC  C316 4079   6.139   0.674   8.261 -0.0514  0.2944 -0.7972
   30SAPC  H16X 4080   6.043   0.620   8.250  0.9617 -1.5536 -1.0886
   30SAPC  H16Y 4081   6.157   0.721   8.360 -0.5840 -0.4833 -0.3177
   30SAPC  C317 4082   6.240   0.563   8.251 -0.0628 -0.2467  0.5468
   30SAPC  H17X 4083   6.341   0.607   8.237  0.1488  0.3547  3.2824
   30SAPC  H17Y 4084   6.222   0.498   8.162 -0.7751 -1.1982  1.3548
   30SAPC  C318 4085   6.242   0.482   8.383 -0.4666  0.2578  0.4406
   30SAPC  H18X 4086   6.296   0.387   8.364  1.8700  1.4415  0.9189
   30SAPC  H18Y 4087   6.138   0.454   8.410  0.0193 -2.5203 -0.1803
   30SAPC  H18Z 4088   6.292   0.536   8.466 -0.4001 -0.6840  1.0285
   31SAPC     N 4089   0.944   3.622   6.004 -0.0273 -0.3684 -0.2166
   31SAPC   C12 4090   0.901   3.640   6.153 -0.3928 -0.2223 -0.0770
   31SAPC  H12A 4091   0.835   3.726   6.158  0.3542  0.3248  0.6167
   31SAPC  H12B 4092   0.991   3.661   6.208  0.7120 -0.4091 -1.7710
   31SAPC   C13 4093   0.829   3.602   5.918  0.1513 -0.2333 -0.0844
   31SAPC  H13A 4094   0.744   3.667   5.934  0.6265  0.1510  1.0041
   31SAPC  H13B 4095   0.855   3.618   5.815 -0.4851  0.2923 -0.1687
   31SAPC  H13C 4096   0.788   3.504   5.937  1.7614 -1.5048 -2.6695
   31SAPC   C14 4097   1.016   3.748   5.967  0.0327  0.1067  0.2863
   31SAPC  H14A 4098   1.083   3.784   6.044  2.2788 -0.8789 -1.1140
   31SAPC  H14B 4099   1.073   3.728   5.878  3.0334  0.5502  1.9535
   31SAPC  H14C 4100   0.952   3.832   5.943 -0.2894 -0.7212 -2.0309
   31SAPC   C15 4101   1.041   3.514   5.987  0.7235  0.3738 -0.0161
   31SAPC  H15A 4102   0.986   3.424   6.013  2.0412 -0.3170  0.4580
   31SAPC  H15B 4103   1.075   3.509   5.885  1.3499 -0.9362  0.2320
   31SAPC  H15C 4104   1.118   3.509   6.063  0.0538 -0.6824  0.6293
   31SAPC   C11 4105   0.826   3.521   6.218  0.4429  0.2343  0.4694
   31SAPC  H11A 4106   0.742   3.482   6.157  0.8432 -0.3963  0.3114
   31SAPC  H11B 4107   0.774   3.560   6.308 -1.5528  1.8217 -1.2534
   31SAPC     P 4108   0.981   3.394   6.388 -0.2608 -0.2935  0.1084
   31SAPC   O13 4109   1.044   3.262   6.394 -0.3359 -0.1002 -0.0577
   31SAPC   O14 4110   1.061   3.513   6.432 -0.0172  0.0595  0.1585
   31SAPC   O12 4111   0.931   3.424   6.237  0.0822 -0.0043 -0.0063
   31SAPC   O11 4112   0.845   3.390   6.462 -0.1151  0.8895 -0.4637
   31SAPC    C1 4113   0.793   3.256   6.499 -0.0275 -0.6662  0.8493
   31SAPC    HA 4114   0.682   3.263   6.497  0.0056 -0.2126 -0.3335
   31SAPC    HB 4115   0.822   3.181   6.422  0.3016  1.2737 -1.0419
   31SAPC    C2 4116   0.821   3.193   6.638 -0.0180  0.0271  0.0453
   31SAPC    HS 4117   0.789   3.087   6.631  2.0603 -0.6570  0.1099
   31SAPC   O21 4118   0.766   3.262   6.748  0.5108  0.3180 -0.0819
   31SAPC   C21 4119   0.636   3.248   6.753 -0.0777  0.3752  0.0756
   31SAPC   O22 4120   0.568   3.189   6.671 -0.0823 -0.2217 -0.0439
   31SAPC   C22 4121   0.576   3.327   6.868 -0.6272  0.2046 -0.2245
   31SAPC   H2R 4122   0.649   3.406   6.895  1.5994 -1.3323 -1.4796
   31SAPC   H2S 4123   0.485   3.375   6.826 -1.6124 -1.4766 -0.0945
   31SAPC    C3 4124   0.972   3.189   6.669  0.0594  0.1192 -0.4610
   31SAPC    HX 4125   0.998   3.296   6.681 -1.9432  0.5190  0.7354
   31SAPC    HY 4126   1.026   3.133   6.589  0.9853 -0.3698  0.4939
   31SAPC   O31 4127   0.987   3.104   6.784  0.0782  0.0772 -0.2480
   31SAPC   C31 4128   1.073   3.150   6.876  0.6840  0.5774 -0.8729
   31SAPC   O32 4129   1.143   3.241   6.866 -0.3259 -0.5511 -0.2268
   31SAPC   C32 4130   1.076   3.057   6.997  0.2507 -0.2580 -0.4317
   31SAPC   H2X 4131   1.128   2.964   6.969  2.4819  1.0330 -0.8128
   31SAPC   H2Y 4132   0.972   3.021   7.015  0.4954 -0.9706 -0.4175
   31SAPC   C23 4133   0.543   3.244   6.987 -0.0665  0.4086  0.5133
   31SAPC   H3R 4134   0.487   3.152   6.959 -0.0617 -0.2573  2.4778
   31SAPC   H3S 4135   0.461   3.289   7.047  0.1242 -1.4306  2.2890
   31SAPC   C24 4136   0.653   3.189   7.075 -0.6349  0.5287  0.0515
   31SAPC   H4R 4137   0.710   3.120   7.009 -2.2995 -0.2171 -0.6522
   31SAPC   H4S 4138   0.617   3.113   7.148  0.8261 -0.5449 -0.2956
   31SAPC   C25 4139   0.735   3.301   7.134  0.0251 -0.4687  0.8910
   31SAPC   H5R 4140   0.800   3.354   7.063  0.1593 -1.4324  0.2785
   31SAPC   C26 4141   0.728   3.340   7.258  0.3225  0.3964  0.4363
   31SAPC   H6R 4142   0.799   3.419   7.289  1.2772 -0.3322  0.1403
   31SAPC   C27 4143   0.631   3.285   7.364 -0.0733  0.3584  0.1701
   31SAPC   H7R 4144   0.547   3.229   7.317  0.4780  0.5712 -1.1034
   31SAPC   H7S 4145   0.583   3.376   7.405 -1.3861 -0.2211 -0.0310
   31SAPC   C28 4146   0.686   3.213   7.487  1.1382  0.1355 -1.1459
   31SAPC   H8R 4147   0.779   3.161   7.461 -0.3561 -1.3125 -4.0820
   31SAPC   C29 4148   0.619   3.200   7.609  0.4805  0.1025  0.4878
   31SAPC   H9R 4149   0.672   3.156   7.695 -0.5268  0.6294  1.4047
   31SAPC  C210 4150   0.488   3.260   7.647 -0.0024 -0.0823 -0.1392
   31SAPC  H10R 4151   0.458   3.331   7.567 -1.3232  0.0877  0.4763
   31SAPC  H10S 4152   0.507   3.332   7.730 -0.5243  1.3471 -1.2128
   31SAPC  C211 4153   0.380   3.161   7.671  0.8790  0.0227 -0.4624
   31SAPC  H11R 4154   0.335   3.103   7.589 -1.0956  1.7702 -0.7073
   31SAPC  C212 4155   0.336   3.120   7.795 -0.9490 -0.5608  0.1196
   31SAPC  H12R 4156   0.250   3.055   7.815 -1.2359 -0.6171 -1.2559
   31SAPC  C213 4157   0.411   3.164   7.923 -0.2642  0.3862  0.6264
   31SAPC  H13R 4158   0.519   3.188   7.919 -0.1211 -0.3936 -0.3888
   31SAPC  H13S 4159   0.395   3.080   7.995 -0.3958 -1.1867 -1.1657
   31SAPC  C214 4160   0.342   3.286   7.976  0.4278 -0.2481 -0.0588
   31SAPC  H14R 4161   0.312   3.364   7.905  3.1532  1.0093  0.0210
   31SAPC  C215 4162   0.335   3.326   8.105 -0.1332 -0.1643 -0.7189
   31SAPC  H15R 4163   0.284   3.423   8.112  0.5177  0.3528 -2.4404
   31SAPC  C216 4164   0.379   3.256   8.231  0.3533 -0.5504  0.1389
   31SAPC  H16R 4165   0.483   3.294   8.242  0.8875 -1.9754  0.3343
   31SAPC  H16S 4166   0.396   3.149   8.205  2.0756 -0.8717  2.2516
   31SAPC  C217 4167   0.296   3.264   8.361 -0.3538  0.0150  0.1088
   31SAPC  H17R 4168   0.351   3.204   8.437  1.9625  0.9528 -0.7187
   31SAPC  H17S 4169   0.196   3.222   8.340 -0.6395  0.8309 -0.2002
   31SAPC  C218 4170   0.282   3.414   8.410 -0.5260  0.9944  0.6671
   31SAPC  H18R 4171   0.248   3.475   8.324  1.4402  1.1055 -0.0947
   31SAPC  H18S 4172   0.382   3.459   8.428 -1.1591  3.2856 -0.9656
   31SAPC  C219 4173   0.197   3.430   8.536 -0.0548  0.6046 -0.1449
   31SAPC  H19R 4174   0.253   3.364   8.605 -0.9399 -0.8283 -0.7699
   31SAPC  H19S 4175   0.100   3.377   8.524 -0.6989  1.8334 -0.5961
   31SAPC  C220 4176   0.197   3.577   8.589 -0.0157  0.4376 -0.1297
   31SAPC  H20R 4177   0.143   3.588   8.685 -1.0735 -1.2864 -0.4858
   31SAPC  H20S 4178   0.144   3.646   8.520 -1.4485 -1.0757 -0.5920
   31SAPC  H20T 4179   0.303   3.610   8.589  0.2577 -0.4228  0.7800
   31SAPC   C33 4180   1.123   3.127   7.128  0.4862 -0.9492 -0.0380
   31SAPC   H3X 4181   1.043   3.198   7.158 -0.6610 -0.7039 -3.2983
   31SAPC   H3Y 4182   1.221   3.173   7.104  0.9383 -2.1896 -0.6428
   31SAPC   C34 4183   1.148   3.036   7.251 -0.4999 -0.2373  0.1250
   31SAPC   H4X 4184   1.216   3.087   7.323 -1.0147  0.0762  0.3941
   31SAPC   H4Y 4185   1.193   2.938   7.222  1.3052  0.1291  1.4615
   31SAPC   C35 4186   1.015   3.011   7.335 -0.6347  0.5776  0.5183
   31SAPC   H5X 4187   0.947   2.956   7.267 -0.0628 -2.0059  1.9127
   31SAPC   H5Y 4188   0.978   3.110   7.368  0.3291  0.6690  1.3902
   31SAPC   C36 4189   1.046   2.922   7.452  0.4264 -0.0280  0.0978
   31SAPC   H6X 4190   1.140   2.959   7.498  0.5432  1.1040 -0.9911
   31SAPC   H6Y 4191   1.065   2.822   7.407 -2.1284  0.0609 -1.3612
   31SAPC   C37 4192   0.927   2.917   7.545 -0.3407  0.9308 -0.6094
   31SAPC   H7X 4193   0.838   2.897   7.481 -2.0925 -2.5544  2.5541
   31SAPC   H7Y 4194   0.912   3.020   7.583  1.5794  1.5143 -1.3047
   31SAPC   C38 4195   0.942   2.806   7.654 -0.1117  0.5306  0.3133
   31SAPC   H8X 4196   1.030   2.839   7.713 -0.2245 -0.5478  1.1091
   31SAPC   H8Y 4197   0.964   2.706   7.610  0.1639  1.2702 -1.3121
   31SAPC   C39 4198   0.818   2.795   7.749 -0.6796 -1.2051  0.0393
   31SAPC   H9X 4199   0.716   2.792   7.707 -1.6813  1.4433  1.9978
   31SAPC   H9Y 4200   0.829   2.889   7.807  1.0704 -0.3366 -1.5785
   31SAPC  C310 4201   0.831   2.678   7.842  0.1772 -0.3498 -0.3242
   31SAPC  H10X 4202   0.925   2.686   7.899 -0.5815  0.7467  0.8216
   31SAPC  H10Y 4203   0.822   2.581   7.789 -0.0568 -0.9032  0.7019
   31SAPC  C311 4204   0.713   2.673   7.942 -0.2111  0.2108 -0.1234
   31SAPC  H11X 4205   0.714   2.578   7.999  0.8999  1.0435  1.3190
   31SAPC  H11Y 4206   0.620   2.685   7.881 -1.0727  1.3175  1.3312
   31SAPC  C312 4207   0.716   2.792   8.041  0.8260 -0.2966 -0.4720
   31SAPC  H12X 4208   0.676   2.881   7.988 -2.0785  1.0287  3.5094
   31SAPC  H12Y 4209   0.820   2.804   8.077  1.8536 -0.2162 -3.1740
   31SAPC  C313 4210   0.634   2.765   8.161  0.9472 -0.6834  0.3708
   31SAPC  H13X 4211   0.662   2.664   8.196 -0.4656 -1.3711 -0.3954
   31SAPC  H13Y 4212   0.527   2.752   8.133  0.6330 -0.5437  1.4589
   31SAPC  C314 4213   0.627   2.873   8.267 -0.2996  0.5538 -0.2456
   31SAPC  H14X 4214   0.604   2.974   8.225 -0.5878  0.0656 -1.2905
   31SAPC  H14Y 4215   0.723   2.865   8.322  0.6302 -0.9697 -1.9899
   31SAPC  C315 4216   0.520   2.835   8.375  0.4644  0.0025  0.2767
   31SAPC  H15X 4217   0.551   2.734   8.409  2.0746 -0.2183 -1.6898
   31SAPC  H15Y 4218   0.417   2.831   8.333  0.0525  0.4216  1.2188
   31SAPC  C316 4219   0.501   2.937   8.489 -0.6196  0.2380  0.3739
   31SAPC  H16X 4220   0.439   3.017   8.440 -0.9432  0.6278  1.3999
   31SAPC  H16Y 4221   0.600   2.982   8.510 -1.1896  2.2023 -0.7995
   31SAPC  C317 4222   0.421   2.884   8.613 -0.0868  0.4001 -0.3650
   31SAPC  H17X 4223   0.478   2.804   8.665 -0.5833 -0.1699 -0.6888
   31SAPC  H17Y 4224   0.320   2.846   8.585 -0.7160  1.1667  0.7476
   31SAPC  C318 4225   0.393   2.992   8.714 -0.4391 -0.0217 -0.7200
   31SAPC  H18X 4226   0.336   3.068   8.657  0.3076  1.9758  1.0684
   31SAPC  H18Y 4227   0.484   3.040   8.756 -0.1643 -0.1752 -1.1400
   31SAPC  H18Z 4228   0.328   2.961   8.799 -0.8035  2.4025 -0.0327
   32SAPC     N 4229   2.176   3.046   6.212 -0.0601  0.0027  0.0659
   32SAPC   C12 4230   2.131   3.110   6.344 -0.5095 -0.4846 -0.4257
   32SAPC  H12A 4231   2.165   3.054   6.430 -1.1808  0.3507  0.4218
   32SAPC  H12B 4232   2.023   3.112   6.352 -0.3620 -0.4536  2.8066
   32SAPC   C13 4233   2.320   3.034   6.190  0.0400  0.1287 -0.1476
   32SAPC  H13A 4234   2.350   2.969   6.109 -0.7498  0.3305 -0.6125
   32SAPC  H13B 4235   2.374   3.125   6.169  0.3138  0.1873  0.7449
   32SAPC  H13C 4236   2.362   2.999   6.283  0.2599  0.8270  0.0265
   32SAPC   C14 4237   2.121   2.906   6.229  0.3378  0.5666 -0.1159
   32SAPC  H14A 4238   2.171   2.853   6.309 -0.5327  0.5455  0.4268
   32SAPC  H14B 4239   2.014   2.902   6.247 -0.1447 -1.5165 -2.8581
   32SAPC  H14C 4240   2.133   2.849   6.139  0.6773 -0.8971  0.8264
   32SAPC   C15 4241   2.103   3.110   6.097 -0.6047 -0.4872 -0.0483
   32SAPC  H15A 4242   2.130   3.214   6.089 -1.5649 -0.3160 -1.3909
   32SAPC  H15B 4243   2.127   3.064   6.003  1.4453  0.7502 -0.2032
   32SAPC  H15C 4244   1.996   3.108   6.111 -1.0386  0.3310 -2.7409
   32SAPC   C11 4245   2.185   3.248   6.379  0.4818 -0.0634 -0.6770
   32SAPC  H11A 4246   2.295   3.238   6.365  0.5121 -0.9329  0.0526
   32SAPC  H11B 4247   2.182   3.266   6.489 -1.7416  0.2662 -0.7378
   32SAPC     P 4248   1.971   3.388   6.310  0.1260 -0.2500 -0.4461
   32SAPC   O13 4249   1.945   3.522   6.246  0.2907  0.2642  0.0496
   32SAPC   O14 4250   1.888   3.279   6.254  0.0139 -0.2747 -0.1774
   32SAPC   O12 4251   2.125   3.348   6.301  0.3136 -0.5789  0.4441
   32SAPC   O11 4252   1.941   3.395   6.461 -0.2398  0.2435 -0.4880
   32SAPC    C1 4253   1.978   3.509   6.541 -0.5289  0.1289  0.2645
   32SAPC    HA 4254   2.083   3.502   6.578 -0.5530 -1.5064  0.0824
   32SAPC    HB 4255   1.966   3.603   6.483 -0.0183 -0.4074 -0.7272
   32SAPC    C2 4256   1.899   3.510   6.676 -0.3727 -0.4778  0.0777
   32SAPC    HS 4257   1.912   3.609   6.723 -0.5527 -0.5227  0.2213
   32SAPC   O21 4258   1.954   3.407   6.760  0.3723 -0.0521  0.2086
   32SAPC   C21 4259   2.052   3.441   6.844 -0.0518 -0.4377  0.0526
   32SAPC   O22 4260   2.116   3.545   6.846  0.1243 -0.0717 -0.2777
   32SAPC   C22 4261   2.080   3.340   6.954 -0.5552  0.1141 -0.0969
   32SAPC   H2R 4262   2.159   3.268   6.922 -0.3195 -0.2420  1.1976
   32SAPC   H2S 4263   2.123   3.399   7.038  1.2987  0.3212 -1.1384
   32SAPC    C3 4264   1.747   3.481   6.643  0.1353 -0.3375  0.0549
   32SAPC    HX 4265   1.744   3.373   6.617 -1.4801 -0.0931 -0.8960
   32SAPC    HY 4266   1.729   3.547   6.555  1.3474  0.6627  0.5182
   32SAPC   O31 4267   1.665   3.515   6.757 -0.8577  0.1105  0.1604
   32SAPC   C31 4268   1.601   3.410   6.808 -0.2259 -0.0115  0.1077
   32SAPC   O32 4269   1.570   3.307   6.751  0.6728  0.7273  0.1932
   32SAPC   C32 4270   1.579   3.442   6.955  0.1832 -0.8426 -0.0893
   32SAPC   H2X 4271   1.490   3.507   6.968  1.9743  1.9279 -0.9490
   32SAPC   H2Y 4272   1.668   3.499   6.989 -0.0150  0.0865 -1.0986
   32SAPC   C23 4273   1.973   3.237   6.998  0.4450  0.8450  0.3512
   32SAPC   H3R 4274   1.930   3.180   6.912  1.5459 -0.2831  0.5169
   32SAPC   H3S 4275   1.894   3.306   7.034  1.3875  1.5665  1.0485
   32SAPC   C24 4276   2.030   3.148   7.111  0.2200  0.3488  0.3661
   32SAPC   H4R 4277   2.085   3.227   7.166 -1.9313  2.7952 -0.8032
   32SAPC   H4S 4278   2.090   3.063   7.072 -1.5771 -1.4511  1.3007
   32SAPC   C25 4279   1.918   3.091   7.196  0.0290  0.7509 -0.5572
   32SAPC   H5R 4280   1.846   3.029   7.142  0.3149 -0.0500 -0.0432
   32SAPC   C26 4281   1.899   3.111   7.329  0.0605  0.1851  0.6319
   32SAPC   H6R 4282   1.814   3.062   7.380 -0.7076 -0.6147 -1.3085
   32SAPC   C27 4283   1.997   3.189   7.415  0.3972  0.0044 -0.8523
   32SAPC   H7R 4284   2.055   3.269   7.364  1.4741 -0.1979  0.0075
   32SAPC   H7S 4285   2.065   3.113   7.460 -1.5749 -1.8307 -0.8414
   32SAPC   C28 4286   1.919   3.258   7.532 -0.4043  1.1879  0.5390
   32SAPC   H8R 4287   1.833   3.313   7.490  1.1151  3.4512  0.1875
   32SAPC   C29 4288   1.940   3.258   7.669 -0.0713  0.3111 -0.3234
   32SAPC   H9R 4289   1.875   3.324   7.729  2.2803  2.8456 -0.3772
   32SAPC  C210 4290   2.056   3.199   7.753  0.3333  0.2355 -0.2797
   32SAPC  H10R 4291   2.109   3.295   7.767 -1.7968  1.5777 -0.7979
   32SAPC  H10S 4292   2.124   3.130   7.700 -0.6084 -0.2522 -0.8846
   32SAPC  C211 4293   2.022   3.129   7.886 -1.1220  0.1205 -0.0731
   32SAPC  H11R 4294   1.980   3.030   7.863 -0.5496  0.3470 -2.3366
   32SAPC  C212 4295   2.033   3.177   8.012  0.5112 -0.2304  0.3863
   32SAPC  H12R 4296   2.000   3.113   8.095  3.5891 -0.2135  1.7179
   32SAPC  C213 4297   2.090   3.309   8.054  0.2421  0.3600 -0.9474
   32SAPC  H13R 4298   2.061   3.329   8.159  0.1847  0.1921 -0.9327
   32SAPC  H13S 4299   2.050   3.392   7.992 -1.6112  0.4695  0.3189
   32SAPC  C214 4300   2.235   3.300   8.039  0.0303 -0.1533  0.8116
   32SAPC  H14R 4301   2.268   3.275   7.937 -0.3483 -2.2193  1.1394
   32SAPC  C215 4302   2.318   3.304   8.140  0.3626 -0.7233  0.1184
   32SAPC  H15R 4303   2.425   3.291   8.115  0.5291  0.9810 -0.1712
   32SAPC  C216 4304   2.289   3.330   8.289  0.1567 -0.0856  0.3199
   32SAPC  H16R 4305   2.183   3.312   8.316 -0.5213  1.9285 -0.7214
   32SAPC  H16S 4306   2.300   3.440   8.303  0.8859  0.0942 -1.3911
   32SAPC  C217 4307   2.362   3.241   8.389  0.4836 -0.1804 -0.0308
   32SAPC  H17R 4308   2.470   3.251   8.366  0.1614 -0.6317 -1.9470
   32SAPC  H17S 4309   2.335   3.133   8.383 -4.3313  0.3174  5.0534
   32SAPC  C218 4310   2.329   3.288   8.531  0.2511 -0.0556  0.7328
   32SAPC  H18R 4311   2.343   3.398   8.528  0.6693 -0.1028  0.8813
   32SAPC  H18S 4312   2.401   3.258   8.610 -0.6201  0.7342  1.8401
   32SAPC  C219 4313   2.196   3.257   8.596  0.6346  0.2918 -0.1625
   32SAPC  H19R 4314   2.206   3.166   8.659  2.5145 -0.8611 -1.9964
   32SAPC  H19S 4315   2.120   3.235   8.518  1.6842 -1.0975 -0.8399
   32SAPC  C220 4316   2.145   3.374   8.686 -0.1787  0.1472  0.0762
   32SAPC  H20R 4317   2.039   3.359   8.715 -0.0687 -1.6750 -0.3921
   32SAPC  H20S 4318   2.157   3.476   8.643 -1.2601  1.5481  2.8426
   32SAPC  H20T 4319   2.205   3.370   8.779  0.1550  0.9490 -0.0888
   32SAPC   C33 4320   1.556   3.323   7.048  0.0891  0.5637 -0.1494
   32SAPC   H3X 4321   1.631   3.241   7.038 -0.3734  0.0009  0.8323
   32SAPC   H3Y 4322   1.459   3.273   7.025  0.9137 -0.3368 -1.8541
   32SAPC   C34 4323   1.554   3.366   7.201 -0.3701  0.1240 -0.1874
   32SAPC   H4X 4324   1.483   3.451   7.203  1.3849  1.6615 -0.7538
   32SAPC   H4Y 4325   1.657   3.404   7.219  0.1130 -0.7619 -1.0135
   32SAPC   C35 4326   1.513   3.260   7.300 -0.2419 -0.2167  0.0435
   32SAPC   H5X 4327   1.562   3.166   7.266 -1.9098 -0.1588 -2.9654
   32SAPC   H5Y 4328   1.402   3.249   7.297 -0.0820 -2.2184 -0.3480
   32SAPC   C36 4329   1.534   3.290   7.442  0.1944 -0.4539  0.5032
   32SAPC   H6X 4330   1.465   3.368   7.480  0.6288  0.7743 -1.1015
   32SAPC   H6Y 4331   1.631   3.344   7.446 -1.0077  2.0301 -1.0463
   32SAPC   C37 4332   1.530   3.164   7.525 -0.1024 -0.2389 -0.1302
   32SAPC   H7X 4333   1.598   3.081   7.494  0.4601  0.2171 -0.1430
   32SAPC   H7Y 4334   1.428   3.120   7.517 -0.3698  0.1875  0.8546
   32SAPC   C38 4335   1.542   3.193   7.678  0.5897 -0.0589 -0.2623
   32SAPC   H8X 4336   1.472   3.277   7.698  0.1629 -0.6526  0.8389
   32SAPC   H8Y 4337   1.643   3.224   7.712  1.1668 -0.3118 -1.6642
   32SAPC   C39 4338   1.498   3.077   7.769 -0.0869 -0.1435  0.2213
   32SAPC   H9X 4339   1.583   3.006   7.765  3.0063  3.2672  0.9226
   32SAPC   H9Y 4340   1.410   3.025   7.726 -0.7022  0.8160  0.2948
   32SAPC  C310 4341   1.473   3.128   7.913 -0.1803 -0.4466  0.2829
   32SAPC  H10X 4342   1.568   3.159   7.962  1.2871 -4.8028  0.6314
   32SAPC  H10Y 4343   1.442   3.038   7.972 -0.6648 -1.3067 -1.2243
   32SAPC  C311 4344   1.362   3.240   7.920  0.3824  0.2042  0.0313
   32SAPC  H11X 4345   1.274   3.206   7.861  0.7909 -1.8492  0.5187
   32SAPC  H11Y 4346   1.392   3.336   7.873 -1.9080  0.5769 -0.7657
   32SAPC  C312 4347   1.334   3.265   8.078 -0.5067  0.0313  0.2525
   32SAPC  H12X 4348   1.344   3.169   8.132  0.7728  0.0944  0.1379
   32SAPC  H12Y 4349   1.226   3.292   8.086 -0.5224  0.2429 -0.5664
   32SAPC  C313 4350   1.425   3.375   8.147  0.3110 -0.4801  0.1203
   32SAPC  H13X 4351   1.376   3.432   8.229 -1.6648  1.1141 -2.0555
   32SAPC  H13Y 4352   1.432   3.464   8.080  0.0842 -1.6648 -1.5289
   32SAPC  C314 4353   1.575   3.333   8.178  0.0679  0.4480 -0.0191
   32SAPC  H14X 4354   1.628   3.308   8.084 -1.8391 -0.6285 -0.8700
   32SAPC  H14Y 4355   1.558   3.238   8.233 -1.1089  0.5288 -0.2182
   32SAPC  C315 4356   1.631   3.436   8.272 -0.1599 -0.6275 -0.6205
   32SAPC  H15X 4357   1.561   3.448   8.357 -0.5624  1.0714 -1.1483
   32SAPC  H15Y 4358   1.640   3.536   8.223  1.4615  1.3920  3.3234
   32SAPC  C316 4359   1.770   3.391   8.305 -1.0038  0.1154 -0.1374
   32SAPC  H16X 4360   1.841   3.400   8.219  0.1163 -0.4057  0.7175
   32SAPC  H16Y 4361   1.782   3.287   8.340  2.4087  0.1642 -0.7874
   32SAPC  C317 4362   1.843   3.485   8.405 -0.1068  0.1890 -0.9005
   32SAPC  H17X 4363   1.901   3.415   8.469 -2.9576 -0.0110  1.7106
   32SAPC  H17Y 4364   1.764   3.536   8.465 -0.8449 -0.2521 -1.4724
   32SAPC  C318 4365   1.934   3.591   8.332  0.1756  0.3333 -0.0017
   32SAPC  H18X 4366   1.886   3.638   8.244  1.9713  1.1981 -0.5565
   32SAPC  H18Y 4367   2.016   3.528   8.292  0.8349  2.6054 -2.5119
   32SAPC  H18Z 4368   1.979   3.666   8.401  0.3503 -1.0750  1.4892
   33POPC     N 4369   0.894   6.824  10.948 -0.1709  0.2780 -0.0135
   33POPC   C12 4370   0.816   6.811  10.816  0.4945 -0.3422 -0.2163
   33POPC  H12A 4371   0.712   6.795  10.838 -0.5336  3.2181 -1.7801
   33POPC  H12B 4372   0.861   6.727  10.765  2.2811  1.8317 -2.4246
   33POPC   C13 4373   0.878   6.695  11.023 -0.1504  0.1451 -0.2393
   33POPC  H13A 4374   0.949   6.689  11.103  0.5956 -1.6560 -0.9982
   33POPC  H13B 4375   0.776   6.698  11.058 -0.5191  0.9623 -1.3027
   33POPC  H13C 4376   0.892   6.611  10.956  0.3731  2.2703 -3.0253
   33POPC   C14 4377   1.037   6.851  10.922  0.0931  0.5309  0.1339
   33POPC  H14A 4378   1.100   6.838  11.009  1.7495  0.0648 -1.0618
   33POPC  H14B 4379   1.074   6.782  10.847 -2.2805 -0.6426 -0.0578
   33POPC  H14C 4380   1.055   6.952  10.888  1.3191  0.0801 -0.6543
   33POPC   C15 4381   0.838   6.931  11.029 -0.3447 -0.1589  0.3948
   33POPC  H15A 4382   0.854   7.020  10.970 -1.9176 -1.7117 -2.6207
   33POPC  H15B 4383   0.887   6.953  11.123  2.8939  0.5809 -1.3232
   33POPC  H15C 4384   0.732   6.919  11.043 -0.6281  3.6912  3.0714
   33POPC   C11 4385   0.822   6.927  10.717 -0.1047 -0.4171  0.8527
   33POPC  H11A 4386   0.753   6.913  10.631 -0.8770  2.6511  0.8576
   33POPC  H11B 4387   0.927   6.920  10.679 -0.7534  0.3960 -1.2387
   33POPC     P 4388   0.678   7.142  10.727 -0.3750  0.0810  0.4427
   33POPC   O13 4389   0.729   7.271  10.671  0.0348 -0.3272 -0.6462
   33POPC   O14 4390   0.594   7.155  10.847  0.0149  0.4326 -0.3194
   33POPC   O12 4391   0.801   7.058  10.766 -0.4033  0.0172  0.4353
   33POPC   O11 4392   0.588   7.056  10.620  0.3794 -0.2936  0.6682
   33POPC    C1 4393   0.528   7.124  10.506  0.1865 -0.4374  1.2712
   33POPC    HA 4394   0.421   7.097  10.501  0.2633 -0.4626 -1.9054
   33POPC    HB 4395   0.526   7.234  10.522 -0.5040 -0.4640  1.3718
   33POPC    C2 4396   0.592   7.085  10.369 -0.6885 -0.1690 -0.3978
   33POPC    HS 4397   0.555   7.156  10.291 -0.3838  1.3327  0.7725
   33POPC   O21 4398   0.557   6.950  10.346  0.1326 -0.7787 -0.2674
   33POPC   C21 4399   0.455   6.926  10.263 -0.2123 -0.4200 -0.1992
   33POPC   O22 4400   0.410   7.009  10.185 -0.4165  0.2076 -0.4922
   33POPC   C22 4401   0.410   6.786  10.272 -0.3493 -0.2574 -0.3278
   33POPC   H2R 4402   0.314   6.778  10.327 -1.0137 -2.0357 -1.6216
   33POPC   H2S 4403   0.487   6.739  10.337 -0.1965  0.5948  0.1181
   33POPC    C3 4404   0.743   7.105  10.366 -0.4014  0.3188 -0.2995
   33POPC    HX 4405   0.787   7.042  10.447 -0.6583  0.9071  0.3085
   33POPC    HY 4406   0.771   7.205  10.404  3.3417 -1.0196  1.0108
   33POPC   O31 4407   0.800   7.092  10.237  0.1959  0.1256 -0.0091
   33POPC   C31 4408   0.838   6.972  10.210  0.4947  1.0833 -0.1200
   33POPC   O32 4409   0.840   6.873  10.284  0.1746 -0.0846  0.2533
   33POPC   C32 4410   0.862   6.962  10.063 -0.6752  0.6383 -0.1303
   33POPC   H2X 4411   0.883   6.857  10.033  0.6748  0.6788  0.6205
   33POPC   H2Y 4412   0.946   7.029  10.033  0.2783  0.3401  1.7495
   33POPC   C23 4413   0.394   6.719  10.130  0.1907 -0.3118  0.5046
   33POPC   H3R 4414   0.385   6.794  10.048  1.8389 -0.6344 -0.0030
   33POPC   H3S 4415   0.307   6.650  10.136 -0.5110  0.6166  1.2646
   33POPC   C24 4416   0.523   6.640  10.097 -0.2717  0.0589 -0.1925
   33POPC   H4R 4417   0.537   6.570  10.183  2.1220  2.2468  1.3737
   33POPC   H4S 4418   0.612   6.707  10.100  0.3503 -0.7524 -0.3651
   33POPC   C25 4419   0.516   6.575   9.959 -0.1842  0.5891 -0.4091
   33POPC   H5R 4420   0.554   6.637   9.875  0.7215  0.2010 -0.2923
   33POPC   H5S 4421   0.414   6.533   9.942 -0.3654  1.1342 -0.6884
   33POPC   C26 4422   0.617   6.451   9.949  0.2358  0.4536  0.7786
   33POPC   H6R 4423   0.601   6.383  10.036  1.4755 -0.0011  0.6691
   33POPC   H6S 4424   0.714   6.499   9.974 -0.0124  1.9848 -0.9608
   33POPC   C27 4425   0.629   6.401   9.806 -0.3299  0.1169  0.0938
   33POPC   H7R 4426   0.720   6.338   9.802 -1.4807 -1.8822  2.2473
   33POPC   H7S 4427   0.653   6.489   9.743  0.8000 -0.8050 -0.8079
   33POPC   C28 4428   0.517   6.306   9.745  0.2430 -0.1696 -0.1862
   33POPC   H8R 4429   0.546   6.285   9.640  0.9250  2.5879 -0.6156
   33POPC   H8S 4430   0.422   6.363   9.753 -0.8701 -1.6769 -1.9002
   33POPC   C29 4431   0.500   6.175   9.814 -0.1950  0.3862  0.4232
   33POPC   H91 4432   0.539   6.166   9.917 -0.4099 -1.4184  0.3721
   33POPC  C210 4433   0.458   6.059   9.763 -0.6452 -0.4600  1.5150
   33POPC  H101 4434   0.458   5.965   9.820 -2.7134 -2.4940 -1.5162
   33POPC  C211 4435   0.415   6.038   9.623  0.2434  0.0452  0.1136
   33POPC  H11R 4436   0.383   6.134   9.579 -1.1644 -0.5228 -0.1615
   33POPC  H11S 4437   0.326   5.971   9.624 -0.1210  0.4943 -0.8844
   33POPC  C212 4438   0.517   5.974   9.517 -0.5144  0.1918  0.4359
   33POPC  H12R 4439   0.566   5.886   9.565 -0.9532  1.1823  2.8232
   33POPC  H12S 4440   0.596   6.049   9.497 -0.4168  0.5330  1.9750
   33POPC  C213 4441   0.453   5.934   9.380 -0.3470 -0.1014  0.2540
   33POPC  H13R 4442   0.425   6.028   9.327  1.2048  0.4721  0.4056
   33POPC  H13S 4443   0.363   5.870   9.390 -0.2065 -0.3703 -0.1321
   33POPC  C214 4444   0.556   5.867   9.288  0.0278  0.2550 -0.4459
   33POPC  H14R 4445   0.579   5.759   9.306 -0.5152  0.2872  0.4739
   33POPC  H14S 4446   0.644   5.931   9.307 -0.1860  1.0220 -1.8926
   33POPC  C215 4447   0.523   5.891   9.135  0.3173 -0.2414  0.1031
   33POPC  H15R 4448   0.495   5.997   9.117 -1.1919 -0.3283  1.6841
   33POPC  H15S 4449   0.433   5.830   9.113  1.4009 -2.2071  0.8594
   33POPC  C216 4450   0.638   5.873   9.045 -0.3342  0.7579  0.5662
   33POPC  H16R 4451   0.665   5.765   9.047  0.1028  0.6676 -3.0832
   33POPC  H16S 4452   0.726   5.936   9.070 -0.5912  0.7358  1.5386
   33POPC  C217 4453   0.612   5.905   8.894 -0.2162  0.0822  0.1057
   33POPC  H17R 4454   0.584   6.012   8.890  1.4166  0.4651 -2.7003
   33POPC  H17S 4455   0.524   5.846   8.860  0.9385 -2.1062  0.7448
   33POPC  C218 4456   0.731   5.895   8.793  0.4748 -1.0036  0.5039
   33POPC  H18R 4457   0.692   5.931   8.696 -0.7436 -1.4088  0.8282
   33POPC  H18S 4458   0.777   5.794   8.779  5.0708  0.6252  1.9693
   33POPC  H18T 4459   0.815   5.954   8.835 -0.0724 -0.9252  1.5346
   33POPC   C33 4460   0.739   7.000   9.980 -0.5993  0.5735 -0.4569
   33POPC   H3X 4461   0.690   7.096  10.005 -1.6538 -0.1530  0.3526
   33POPC   H3Y 4462   0.665   6.919   9.999  0.6842  0.1066  3.5924
   33POPC   C34 4463   0.773   7.010   9.827 -0.3659 -0.7514 -0.4439
   33POPC   H4X 4464   0.836   6.921   9.803 -0.8928 -1.1692 -0.2947
   33POPC   H4Y 4465   0.846   7.094   9.827  1.0469 -1.8932  1.2798
   33POPC   C35 4466   0.655   7.030   9.729 -0.5817 -0.5368 -0.5485
   33POPC   H5X 4467   0.593   7.118   9.760 -0.5618 -0.9488  0.7000
   33POPC   H5Y 4468   0.585   6.944   9.737 -2.0525  0.7453  1.7680
   33POPC   C36 4469   0.705   7.044   9.576 -0.0902  0.5871 -0.2180
   33POPC   H6X 4470   0.747   6.944   9.554 -2.8631 -1.1490  1.6668
   33POPC   H6Y 4471   0.771   7.130   9.554  0.9036  0.6579  2.6535
   33POPC   C37 4472   0.584   7.050   9.482 -0.1765 -0.4067  0.6082
   33POPC   H7X 4473   0.543   7.150   9.505  2.0230  1.0029 -1.1406
   33POPC   H7Y 4474   0.503   6.976   9.503 -1.3678  0.0431 -1.9267
   33POPC   C38 4475   0.619   7.034   9.334 -0.1426  0.2175 -0.1336
   33POPC   H8X 4476   0.692   7.109   9.296 -1.7772  1.4265 -1.0003
   33POPC   H8Y 4477   0.527   7.053   9.275  0.9074  0.0985 -1.8675
   33POPC   C39 4478   0.674   6.898   9.294 -0.5291  0.1449  0.2173
   33POPC   H9X 4479   0.616   6.813   9.335  1.9219 -2.0977 -0.6818
   33POPC   H9Y 4480   0.781   6.887   9.322 -0.5702  0.9442  0.7196
   33POPC  C310 4481   0.667   6.878   9.141 -0.0584 -0.6215  0.7127
   33POPC  H10X 4482   0.561   6.888   9.110  0.2683 -1.8571 -0.9101
   33POPC  H10Y 4483   0.701   6.774   9.123 -0.3731 -0.8552  1.4025
   33POPC  C311 4484   0.745   6.984   9.056  0.2946  0.0679 -0.1661
   33POPC  H11X 4485   0.849   6.989   9.097 -0.3701 -0.8725  1.7485
   33POPC  H11Y 4486   0.705   7.086   9.073  3.4992  0.9616  3.3619
   33POPC  C312 4487   0.757   6.965   8.900 -0.2707  0.3492 -0.4515
   33POPC  H12X 4488   0.818   7.050   8.862  0.2778  2.1014  3.6834
   33POPC  H12Y 4489   0.656   6.977   8.856 -0.7902 -0.8379  0.3789
   33POPC  C313 4490   0.817   6.831   8.842  0.5543  0.2164 -0.5919
   33POPC  H13X 4491   0.778   6.758   8.917  1.8577  1.6892  1.6555
   33POPC  H13Y 4492   0.925   6.831   8.868 -0.0141  0.4466  2.1430
   33POPC  C314 4493   0.781   6.804   8.703  0.3453  0.0732  0.5744
   33POPC  H14X 4494   0.872   6.826   8.644 -0.8600  0.5122 -1.1774
   33POPC  H14Y 4495   0.700   6.872   8.669  0.5790  0.3188  0.5148
   33POPC  C315 4496   0.745   6.666   8.675  0.7934  0.1231  0.2219
   33POPC  H15X 4497   0.653   6.644   8.734  1.0774  2.7320  1.7941
   33POPC  H15Y 4498   0.821   6.592   8.709  1.2138  0.2530 -0.4231
   33POPC  C316 4499   0.716   6.651   8.528  0.3941  0.4298 -0.9067
   33POPC  H16X 4500   0.658   6.731   8.477 -2.8643 -0.8488  0.5195
   33POPC  H16Y 4501   0.664   6.555   8.509 -0.4243  0.8635 -0.9059
   33POPC  H16Z 4502   0.811   6.649   8.470  1.2400  2.8406  0.2622
   34POPC     N 4503   6.640   0.556  11.023 -0.2172 -0.0403  0.7478
   34POPC   C12 4504   6.570   0.607  10.901 -0.4281  0.3676 -0.4167
   34POPC  H12A 4505   6.617   0.693  10.855  2.6605 -0.0796  1.6166
   34POPC  H12B 4506   6.469   0.639  10.921 -0.5221 -0.7659  1.1196
   34POPC   C13 4507   6.621   0.659  11.133  0.7491 -0.1301  0.2235
   34POPC  H13A 4508   6.514   0.670  11.148  0.5215 -1.3595 -0.4017
   34POPC  H13B 4509   6.671   0.630  11.224  1.2917  3.1862  1.1134
   34POPC  H13C 4510   6.660   0.754  11.101  0.5421 -0.3285 -0.6293
   34POPC   C14 4511   6.581   0.430  11.068 -0.6561  0.1596  0.4505
   34POPC  H14A 4512   6.600   0.344  11.006  0.8168 -0.9069  2.2465
   34POPC  H14B 4513   6.627   0.402  11.162  1.1041  1.1449 -0.0643
   34POPC  H14C 4514   6.475   0.439  11.085 -1.1022 -0.4731 -1.7424
   34POPC   C15 4515   6.785   0.531  11.005  0.5690  0.6338 -0.4902
   34POPC  H15A 4516   6.823   0.495  11.100 -3.9195  0.6233  1.5671
   34POPC  H15B 4517   6.843   0.615  10.971 -1.0648  1.8844 -0.3399
   34POPC  H15C 4518   6.793   0.460  10.924  2.9839  0.1326  0.1245
   34POPC   C11 4519   6.553   0.504  10.791 -0.5944  0.0020  0.5352
   34POPC  H11A 4520   6.483   0.545  10.716 -0.0588  0.9802  0.5454
   34POPC  H11B 4521   6.493   0.421  10.833 -3.6988  1.7736 -0.1231
   34POPC     P 4522   6.746   0.550  10.618  0.2505 -0.5383 -0.5644
   34POPC   O13 4523   6.847   0.472  10.541 -0.5052 -0.1477 -0.7645
   34POPC   O14 4524   6.792   0.669  10.684 -0.0695 -0.1830 -0.5587
   34POPC   O12 4525   6.673   0.458  10.730  0.1619  0.0938 -0.4952
   34POPC   O11 4526   6.633   0.594  10.518 -0.2335 -0.1556 -0.3267
   34POPC    C1 4527   6.614   0.730  10.488 -0.4995  0.2139  0.1354
   34POPC    HA 4528   6.707   0.784  10.458 -0.1647 -0.0012  0.7809
   34POPC    HB 4529   6.569   0.782  10.576 -1.3222  0.8704 -0.6429
   34POPC    C2 4530   6.514   0.752  10.368  0.2280 -0.2114  0.8926
   34POPC    HS 4531   6.430   0.683  10.390 -1.0098  1.4097  1.4345
   34POPC   O21 4532   6.589   0.721  10.246  0.1441 -0.2538 -0.1262
   34POPC   C21 4533   6.514   0.697  10.140 -0.0509 -0.5805 -0.5022
   34POPC   O22 4534   6.391   0.684  10.146 -0.6275 -0.3132  0.4480
   34POPC   C22 4535   6.596   0.668  10.025 -0.1234  0.0617  0.2026
   34POPC   H2R 4536   6.662   0.579  10.034  3.1287  2.1608 -1.0877
   34POPC   H2S 4537   6.660   0.755  10.002 -1.7270  0.9123 -1.2850
   34POPC    C3 4538   6.468   0.894  10.365  0.1435 -0.2805  0.0237
   34POPC    HX 4539   6.414   0.924  10.458 -0.3193  1.6307 -0.8201
   34POPC    HY 4540   6.392   0.907  10.285  0.4446  1.3406 -0.0262
   34POPC   O31 4541   6.577   0.995  10.364  0.3046  0.2168  0.3221
   34POPC   C31 4542   6.586   1.050  10.246  0.0396  0.0121  0.7956
   34POPC   O32 4543   6.521   1.023  10.148  0.1389  0.0100  0.1381
   34POPC   C32 4544   6.684   1.165  10.258 -0.3749 -0.1108 -0.5471
   34POPC   H2X 4545   6.789   1.133  10.245  0.5223  1.8447  1.2706
   34POPC   H2Y 4546   6.683   1.193  10.366 -2.6123  0.3222 -0.6242
   34POPC   C23 4547   6.504   0.657   9.898 -0.2589  0.2404 -0.5878
   34POPC   H3R 4548   6.450   0.754   9.890 -3.0499 -1.2372 -0.7207
   34POPC   H3S 4549   6.421   0.583   9.896  0.9249 -1.2931  1.8678
   34POPC   C24 4550   6.585   0.604   9.774  0.4602 -0.3433  1.0442
   34POPC   H4R 4551   6.583   0.493   9.775  1.5619 -0.4758 -1.9304
   34POPC   H4S 4552   6.693   0.631   9.784  0.9812 -1.1205 -1.6850
   34POPC   C25 4553   6.520   0.645   9.642 -0.4801 -0.4828  0.4679
   34POPC   H5R 4554   6.598   0.629   9.564  2.6005  0.3281  3.1373
   34POPC   H5S 4555   6.493   0.752   9.655 -0.3495 -0.4988  0.8748
   34POPC   C26 4556   6.393   0.575   9.600 -0.0622  0.7697 -0.6154
   34POPC   H6R 4557   6.335   0.639   9.531  0.1631  0.7552 -0.8183
   34POPC   H6S 4558   6.319   0.563   9.683 -0.5192 -1.4393 -1.2571
   34POPC   C27 4559   6.419   0.434   9.543  0.3014  0.3300  0.1937
   34POPC   H7R 4560   6.475   0.378   9.621 -0.5285  0.2277  0.7330
   34POPC   H7S 4561   6.496   0.451   9.465  0.5307 -0.0749  0.3260
   34POPC   C28 4562   6.288   0.364   9.489 -0.3792  0.5466  0.0422
   34POPC   H8R 4563   6.242   0.425   9.409 -0.3501  0.6900  0.1352
   34POPC   H8S 4564   6.213   0.347   9.570 -0.8627 -0.3728 -0.5788
   34POPC   C29 4565   6.320   0.223   9.439 -0.6903  0.0467  0.0889
   34POPC   H91 4566   6.347   0.154   9.520  0.8422  0.5043 -0.0109
   34POPC  C210 4567   6.296   0.180   9.317  0.5436  0.2866 -0.0679
   34POPC  H101 4568   6.308   0.072   9.301  1.0570  0.3093  0.1471
   34POPC  C211 4569   6.235   0.255   9.199  0.2904  0.0597 -0.0837
   34POPC  H11R 4570   6.159   0.329   9.233  1.4393  0.4465  1.7596
   34POPC  H11S 4571   6.189   0.182   9.129  0.0463 -1.1141  1.2755
   34POPC  C212 4572   6.351   0.339   9.129  0.3125  0.3496 -1.0000
   34POPC  H12R 4573   6.409   0.267   9.068  0.5339 -0.8337  0.5634
   34POPC  H12S 4574   6.423   0.393   9.194  1.3605 -1.3683 -0.6831
   34POPC  C213 4575   6.273   0.448   9.051 -0.2888  0.4799  0.7020
   34POPC  H13R 4576   6.354   0.513   9.012  0.1992  0.6084  1.8979
   34POPC  H13S 4577   6.209   0.507   9.120  0.0032  3.4821 -1.4048
   34POPC  C214 4578   6.191   0.390   8.934 -0.1786  0.3012 -0.2113
   34POPC  H14R 4579   6.165   0.481   8.876  2.2226  0.4184 -1.2086
   34POPC  H14S 4580   6.098   0.342   8.973 -0.7436  1.5583  0.0447
   34POPC  C215 4581   6.263   0.300   8.832 -0.3641  0.6862 -0.8167
   34POPC  H15R 4582   6.193   0.274   8.749 -0.7190 -1.4870  0.1038
   34POPC  H15S 4583   6.302   0.207   8.878  1.5119  2.0085  0.3929
   34POPC  C216 4584   6.392   0.365   8.767  0.7827  0.0010 -0.7856
   34POPC  H16R 4585   6.465   0.357   8.851  0.7980  0.9237 -0.7062
   34POPC  H16S 4586   6.378   0.471   8.737 -0.9544 -0.8043 -3.1146
   34POPC  C217 4587   6.449   0.301   8.640  0.1282  0.4783 -0.3923
   34POPC  H17R 4588   6.375   0.322   8.560 -0.7930 -1.6979 -0.1509
   34POPC  H17S 4589   6.450   0.191   8.656 -0.6425  0.2901 -1.5606
   34POPC  C218 4590   6.596   0.333   8.611 -0.6716  0.0885 -0.3350
   34POPC  H18R 4591   6.600   0.440   8.584 -2.0550 -0.3157 -2.4485
   34POPC  H18S 4592   6.633   0.273   8.525 -0.2492  3.0965 -2.3902
   34POPC  H18T 4593   6.663   0.314   8.698  0.8522 -0.3164 -1.5401
   34POPC   C33 4594   6.655   1.301  10.183 -0.6235  0.2083  0.9551
   34POPC   H3X 4595   6.680   1.392  10.242 -2.6971  1.2277  0.3545
   34POPC   H3Y 4596   6.545   1.311  10.174 -0.7452 -1.1987  0.6092
   34POPC   C34 4597   6.719   1.315  10.046  0.0967 -0.4284 -0.4692
   34POPC   H4X 4598   6.697   1.231   9.977 -1.5226  0.6621 -1.3675
   34POPC   H4Y 4599   6.829   1.317  10.062 -0.2924 -2.4348  3.9461
   34POPC   C35 4600   6.671   1.452   9.986 -0.2723  0.4224 -0.2812
   34POPC   H5X 4601   6.683   1.529  10.066  0.6245  0.6704 -0.6406
   34POPC   H5Y 4602   6.566   1.436   9.952 -0.4084  0.0678  0.2864
   34POPC   C36 4603   6.747   1.495   9.861  0.5793 -0.4898 -0.6017
   34POPC   H6X 4604   6.854   1.476   9.885  1.0667  2.9474  0.4392
   34POPC   H6Y 4605   6.742   1.605   9.846  1.8353 -0.3255 -0.0290
   34POPC   C37 4606   6.711   1.412   9.741 -0.1706  0.4484  0.0323
   34POPC   H7X 4607   6.600   1.409   9.736 -0.2714  3.4374 -2.3871
   34POPC   H7Y 4608   6.754   1.310   9.751 -2.2852 -0.9723 -3.3437
   34POPC   C38 4609   6.768   1.469   9.607  0.9741 -0.2629 -0.1516
   34POPC   H8X 4610   6.879   1.480   9.609  1.0663 -0.8871 -1.1380
   34POPC   H8Y 4611   6.716   1.566   9.592 -2.2376 -1.0887  3.9146
   34POPC   C39 4612   6.732   1.386   9.486  0.1661 -0.2220 -0.2560
   34POPC   H9X 4613   6.634   1.338   9.505 -0.8516  1.4942 -0.9851
   34POPC   H9Y 4614   6.805   1.302   9.483  1.2458  0.6002  1.2494
   34POPC  C310 4615   6.727   1.458   9.349  0.1765  0.2804 -0.0154
   34POPC  H10X 4616   6.812   1.529   9.339 -1.4204  2.2995 -0.0108
   34POPC  H10Y 4617   6.632   1.517   9.349  0.5811  0.9961 -1.8323
   34POPC  C311 4618   6.702   1.353   9.238  0.0048 -0.4464 -0.2142
   34POPC  H11X 4619   6.620   1.285   9.268  0.7213 -1.2497 -0.0614
   34POPC  H11Y 4620   6.796   1.296   9.226  0.6761  0.4071  0.8270
   34POPC  C312 4621   6.665   1.430   9.101 -0.4576  0.6252  0.4707
   34POPC  H12X 4622   6.732   1.518   9.088  2.4417 -1.4101  0.7092
   34POPC  H12Y 4623   6.559   1.461   9.117 -0.4266  0.7554  0.4269
   34POPC  C313 4624   6.681   1.346   8.970 -0.4569 -0.3168 -0.1278
   34POPC  H13X 4625   6.646   1.245   9.001 -1.0147  0.0979  0.6048
   34POPC  H13Y 4626   6.788   1.331   8.944 -0.2801 -0.1212  0.4917
   34POPC  C314 4627   6.606   1.397   8.846 -0.2485 -0.2949 -0.1370
   34POPC  H14X 4628   6.669   1.468   8.788  1.8696 -1.7204  0.3132
   34POPC  H14Y 4629   6.517   1.442   8.896 -0.9881 -2.6136  0.7599
   34POPC  C315 4630   6.558   1.290   8.756  1.1580 -0.8599 -0.6128
   34POPC  H15X 4631   6.498   1.212   8.808 -0.6395 -0.1442 -1.5179
   34POPC  H15Y 4632   6.655   1.250   8.721  0.7484 -1.1460 -1.4783
   34POPC  C316 4633   6.488   1.333   8.626 -0.2293 -0.3877  0.1218
   34POPC  H16X 4634   6.418   1.414   8.652 -0.6159 -1.1392  1.5392
   34POPC  H16Y 4635   6.432   1.245   8.587 -2.2270  0.9017 -0.0255
   34POPC  H16Z 4636   6.564   1.363   8.550 -0.6014  0.4304  0.0691
   35POPC     N 4637   0.490   4.050  11.081 -0.7101  0.1120  0.4013
   35POPC   C12 4638   0.525   4.009  10.935  0.1181 -0.5890  0.1501
   35POPC  H12A 4639   0.441   4.051  10.882 -0.1768  0.2977  1.2769
   35POPC  H12B 4640   0.514   3.905  10.911 -1.0938 -0.2758 -0.7471
   35POPC   C13 4641   0.351   4.012  11.113  0.7363 -0.0396 -0.8830
   35POPC  H13A 4642   0.328   3.907  11.110 -3.0005  0.6760 -2.4135
   35POPC  H13B 4643   0.337   4.042  11.216  2.3695  1.2262 -0.9744
   35POPC  H13C 4644   0.284   4.052  11.039 -0.9789  0.4352  0.8528
   35POPC   C14 4645   0.601   4.000  11.174  0.3056  0.6275  0.4213
   35POPC  H14A 4646   0.594   4.042  11.273  0.4668  1.0453  0.2552
   35POPC  H14B 4647   0.595   3.892  11.168  1.0104  0.6603 -1.3917
   35POPC  H14C 4648   0.693   4.033  11.128  0.0597  1.1355  0.2835
   35POPC   C15 4649   0.497   4.205  11.091  0.7486  0.2543  0.0716
   35POPC  H15A 4650   0.455   4.228  11.188 -3.3603  1.4758 -1.7668
   35POPC  H15B 4651   0.426   4.259  11.030 -0.5182  0.2471  1.4805
   35POPC  H15C 4652   0.599   4.230  11.065  1.2787 -1.0580  0.7814
   35POPC   C11 4653   0.663   4.049  10.877  0.0464 -0.3560 -0.4451
   35POPC  H11A 4654   0.687   4.155  10.898 -0.1109 -0.5005  0.5092
   35POPC  H11B 4655   0.660   4.036  10.767  0.7911 -1.3778 -0.3606
   35POPC     P 4656   0.779   3.816  10.924 -0.0750 -0.2776 -0.2897
   35POPC   O13 4657   0.645   3.752  10.930  0.7048  0.6792 -0.1564
   35POPC   O14 4658   0.880   3.774  11.022 -0.6911  0.0568 -0.2003
   35POPC   O12 4659   0.768   3.972  10.931 -0.3348 -0.0055  0.8422
   35POPC   O11 4660   0.844   3.800  10.787 -0.5958 -0.2985 -0.0189
   35POPC    C1 4661   0.854   3.664  10.731 -0.2282 -0.0180  0.5570
   35POPC    HA 4662   0.794   3.590  10.789  2.3070 -1.7317  1.1328
   35POPC    HB 4663   0.961   3.638  10.742 -0.3283  0.0733  1.9363
   35POPC    C2 4664   0.794   3.653  10.586 -0.4697  0.1786 -0.4338
   35POPC    HS 4665   0.805   3.547  10.554 -1.7525  0.3190 -1.4410
   35POPC   O21 4666   0.870   3.726  10.487 -0.3888  0.6153 -0.0607
   35POPC   C21 4667   0.996   3.691  10.466  0.7449 -0.3514 -0.2272
   35POPC   O22 4668   1.050   3.591  10.514  0.6600  0.1618 -0.3852
   35POPC   C22 4669   1.053   3.790  10.380  0.7447 -0.6072  0.2160
   35POPC   H2R 4670   1.152   3.824  10.418  1.3829 -0.0250 -1.8119
   35POPC   H2S 4671   0.999   3.886  10.367  0.1477 -1.0174 -0.3517
   35POPC    C3 4672   0.654   3.707  10.587  0.6887  0.0515  0.4887
   35POPC    HX 4673   0.662   3.818  10.583 -2.8783  0.3991 -0.3680
   35POPC    HY 4674   0.598   3.672  10.676  0.2927 -2.5917 -0.7235
   35POPC   O31 4675   0.563   3.654  10.479  0.1334 -0.2120 -0.3525
   35POPC   C31 4676   0.439   3.683  10.490  0.3397 -0.2541  0.2450
   35POPC   O32 4677   0.396   3.767  10.568 -0.3598 -0.3673 -0.6158
   35POPC   C32 4678   0.346   3.602  10.396 -0.1036 -0.5303  0.1440
   35POPC   H2X 4679   0.244   3.620  10.436  0.0566  2.4414 -0.5239
   35POPC   H2Y 4680   0.376   3.496  10.413  1.9533 -0.1767 -0.9459
   35POPC   C23 4681   1.098   3.724  10.247  0.1877 -0.2129  0.4939
   35POPC   H3R 4682   1.020   3.684  10.180  0.9131  0.9644 -1.1075
   35POPC   H3S 4683   1.173   3.647  10.273  0.6276 -0.6507 -1.9096
   35POPC   C24 4684   1.175   3.816  10.152 -0.3379  0.5838  0.2540
   35POPC   H4R 4685   1.274   3.829  10.200 -1.0087 -0.1907  1.9258
   35POPC   H4S 4686   1.134   3.919  10.155  1.7672  1.6140 -2.2292
   35POPC   C25 4687   1.211   3.775  10.007  0.3793  0.0083 -0.8979
   35POPC   H5R 4688   1.229   3.668   9.987 -2.1264 -0.0174 -3.7418
   35POPC   H5S 4689   1.301   3.836   9.982  1.4984 -1.4681 -0.6047
   35POPC   C26 4690   1.109   3.798   9.906  0.1610  0.1364  0.5090
   35POPC   H6R 4691   1.063   3.900   9.907 -0.0721  0.0462 -0.5492
   35POPC   H6S 4692   1.018   3.740   9.930  1.0075 -0.6352  2.0300
   35POPC   C27 4693   1.160   3.772   9.767  0.0673 -0.6092  0.2587
   35POPC   H7R 4694   1.244   3.843   9.754 -0.0468 -0.8338 -2.1328
   35POPC   H7S 4695   1.077   3.801   9.699 -1.2673 -0.4495  1.9038
   35POPC   C28 4696   1.217   3.637   9.730  0.6906 -0.9591  0.1578
   35POPC   H8R 4697   1.312   3.625   9.787 -0.1234 -0.0100  1.7812
   35POPC   H8S 4698   1.256   3.637   9.626  1.2611 -0.9326  0.3640
   35POPC   C29 4699   1.114   3.535   9.748 -0.5032  0.7888 -0.2546
   35POPC   H91 4700   1.062   3.535   9.845  1.1963  0.8053  0.6895
   35POPC  C210 4701   1.083   3.436   9.663 -0.3392  0.1501  1.1226
   35POPC  H101 4702   0.994   3.374   9.680  0.2812 -1.3949 -0.8210
   35POPC  C211 4703   1.156   3.410   9.531  0.4002  0.4042 -0.0202
   35POPC  H11R 4704   1.237   3.335   9.540  0.0449  0.0690  0.4214
   35POPC  H11S 4705   1.201   3.507   9.499  0.7414  0.0314 -0.6723
   35POPC  C212 4706   1.061   3.375   9.410 -0.3134  0.0707  0.0617
   35POPC  H12R 4707   0.981   3.452   9.412  1.6330  2.2130  1.6344
   35POPC  H12S 4708   1.026   3.269   9.415  2.0661 -0.7907 -0.4040
   35POPC  C213 4709   1.129   3.390   9.272 -0.2668  0.3522 -0.2145
   35POPC  H13R 4710   1.220   3.327   9.266 -1.3079 -1.0663 -2.0634
   35POPC  H13S 4711   1.165   3.495   9.261  0.2582  0.1169 -0.8162
   35POPC  C214 4712   1.034   3.348   9.164  0.0988  0.0642 -0.0772
   35POPC  H14R 4713   0.935   3.393   9.187  0.7823  1.2388  0.6642
   35POPC  H14S 4714   1.028   3.239   9.186  0.6559  0.7755  4.7655
   35POPC  C215 4715   1.079   3.381   9.016  0.3533  0.0418  0.3677
   35POPC  H15R 4716   1.001   3.335   8.952 -3.0667  1.6243  3.0905
   35POPC  H15S 4717   1.167   3.317   8.993 -1.5395 -2.2592 -1.0387
   35POPC  C216 4718   1.078   3.526   8.979 -0.3742 -0.3968  0.5165
   35POPC  H16R 4719   1.136   3.583   9.054 -0.3417 -1.1847  1.1125
   35POPC  H16S 4720   0.979   3.574   8.991  0.7498  2.2478 -0.0708
   35POPC  C217 4721   1.129   3.554   8.836  0.1566 -0.2982  0.0492
   35POPC  H17R 4722   1.075   3.488   8.764 -0.2962 -1.1957  1.1732
   35POPC  H17S 4723   1.238   3.540   8.820  0.7250  1.7160  1.6981
   35POPC  C218 4724   1.109   3.707   8.797 -0.1724 -0.1028  0.7139
   35POPC  H18R 4725   1.000   3.729   8.790 -0.7182 -2.0370  2.1851
   35POPC  H18S 4726   1.158   3.737   8.702  0.2461  0.5052  1.1121
   35POPC  H18T 4727   1.147   3.774   8.877  1.5457  1.4523 -1.2955
   35POPC   C33 4728   0.367   3.647  10.253 -0.2426 -0.1594  0.1502
   35POPC   H3X 4729   0.358   3.560  10.184  3.3051  0.2393 -1.0210
   35POPC   H3Y 4730   0.471   3.680  10.229  0.6793 -1.8422  1.6307
   35POPC   C34 4731   0.269   3.755  10.202 -0.6895  0.0339 -1.4168
   35POPC   H4X 4732   0.291   3.852  10.251 -5.3780  0.0095  1.4404
   35POPC   H4Y 4733   0.169   3.728  10.243 -0.6697 -0.2443 -1.5538
   35POPC   C35 4734   0.268   3.771  10.053  0.6557 -0.1758 -0.8124
   35POPC   H5X 4735   0.373   3.774  10.019  0.9630  1.7949  0.1739
   35POPC   H5Y 4736   0.228   3.870  10.022  0.6417 -0.0073 -0.2657
   35POPC   C36 4737   0.194   3.664   9.977 -0.3376  0.2377  0.2567
   35POPC   H6X 4738   0.086   3.677  10.000  0.1545  5.2893  0.8020
   35POPC   H6Y 4739   0.226   3.561  10.005 -1.6873 -0.5621 -0.9760
   35POPC   C37 4740   0.208   3.655   9.826 -0.8615  0.3352  0.3872
   35POPC   H7X 4741   0.317   3.647   9.803 -0.5609  3.0604  0.5342
   35POPC   H7Y 4742   0.167   3.744   9.773  0.3931 -0.0329 -1.2964
   35POPC   C38 4743   0.130   3.539   9.772  0.8403  0.2199 -0.0172
   35POPC   H8X 4744   0.026   3.561   9.806  1.3937 -0.7162  2.4446
   35POPC   H8Y 4745   0.158   3.441   9.816  0.7472  0.9514  1.7490
   35POPC   C39 4746   0.120   3.538   9.612  0.5863 -0.3491  0.3888
   35POPC   H9X 4747   0.220   3.542   9.565 -0.0458  1.5728 -0.8764
   35POPC   H9Y 4748   0.058   3.625   9.582  0.5184  0.0993  1.7438
   35POPC  C310 4749   0.048   3.411   9.557  0.3149  0.2993  0.5840
   35POPC  H10X 4750  -0.059   3.406   9.589 -0.5103 -3.0670 -2.0731
   35POPC  H10Y 4751   0.103   3.321   9.591 -0.7413 -0.9510 -0.8675
   35POPC  C311 4752   0.046   3.422   9.406 -0.0801  0.4039  0.1708
   35POPC  H11X 4753   0.155   3.426   9.384  0.1935  2.0944  1.5767
   35POPC  H11Y 4754  -0.005   3.513   9.367 -0.7855 -1.0517 -2.4966
   35POPC  C312 4755  -0.012   3.301   9.323  0.1160  0.7572 -0.0183
   35POPC  H12X 4756  -0.113   3.290   9.369  0.1143  1.0021  0.0396
   35POPC  H12Y 4757   0.042   3.210   9.356 -0.4067  0.5476  0.2779
   35POPC  C313 4758  -0.005   3.313   9.164  0.3587 -0.9884 -0.4121
   35POPC  H13X 4759   0.094   3.351   9.130 -0.4274  2.3075  0.6099
   35POPC  H13Y 4760  -0.067   3.401   9.137  1.6444  0.3584  0.8305
   35POPC  C314 4761  -0.042   3.187   9.090  0.2137  0.6619  0.1254
   35POPC  H14X 4762  -0.151   3.175   9.100  0.1680  1.3628  0.5687
   35POPC  H14Y 4763   0.008   3.098   9.133 -0.4357  0.2888  0.1063
   35POPC  C315 4764  -0.010   3.197   8.944 -0.6231 -0.5971  0.1956
   35POPC  H15X 4765  -0.039   3.292   8.895  0.9822  0.1332  0.6156
   35POPC  H15Y 4766  -0.080   3.134   8.884  2.7409 -2.0625 -2.4900
   35POPC  C316 4767   0.130   3.149   8.910 -0.7723 -0.1808  0.4767
   35POPC  H16X 4768   0.214   3.219   8.926 -1.7119  0.7331  1.5563
   35POPC  H16Y 4769   0.137   3.123   8.802  0.9616 -1.5579  0.8585
   35POPC  H16Z 4770   0.163   3.056   8.962 -0.4732 -0.2340  0.1972
   36POPC     N 4771   4.912   3.457  10.949 -0.2626  0.0639 -0.1381
   36POPC   C12 4772   5.025   3.483  10.846 -0.2866 -0.3560  0.8559
   36POPC  H12A 4773   5.008   3.464  10.741  2.2280 -0.2227  0.3528
   36POPC  H12B 4774   5.107   3.422  10.882 -1.0344 -0.8146  1.8276
   36POPC   C13 4775   4.887   3.312  10.964  0.0163 -0.3531  0.1010
   36POPC  H13A 4776   4.801   3.295  11.026 -0.5302  0.5558 -0.4019
   36POPC  H13B 4777   4.866   3.266  10.868 -0.9168 -1.2534  0.7173
   36POPC  H13C 4778   4.967   3.254  11.009 -0.4665 -0.0848  1.3284
   36POPC   C14 4779   4.957   3.510  11.086  0.1142  0.7597 -0.2521
   36POPC  H14A 4780   4.897   3.454  11.155 -1.0737 -0.5684 -2.2535
   36POPC  H14B 4781   5.063   3.503  11.104 -0.2543 -0.0359  1.7784
   36POPC  H14C 4782   4.929   3.614  11.098  0.4276  0.8613 -0.3749
   36POPC   C15 4783   4.788   3.521  10.901 -0.3876 -0.0598  0.0773
   36POPC  H15A 4784   4.775   3.503  10.796  1.8088  0.2746 -0.2991
   36POPC  H15B 4785   4.807   3.627  10.909  2.7281 -0.6429  3.0567
   36POPC  H15C 4786   4.702   3.494  10.961  0.2358  0.8780  1.4415
   36POPC   C11 4787   5.100   3.627  10.855 -0.0241 -0.1391 -0.3356
   36POPC  H11A 4788   5.021   3.704  10.860 -0.0079 -0.2188  2.5201
   36POPC  H11B 4789   5.159   3.641  10.762  3.9054  2.6244  2.2592
   36POPC     P 4790   5.328   3.563  10.945  0.0003 -0.5523 -0.2028
   36POPC   O13 4791   5.308   3.416  10.938  0.6812 -0.3570  0.5571
   36POPC   O14 4792   5.415   3.603  11.053  0.2576  0.1716 -0.0150
   36POPC   O12 4793   5.185   3.629  10.969  0.2219 -0.0695 -0.1824
   36POPC   O11 4794   5.376   3.619  10.808  0.5989 -0.1434  0.2310
   36POPC    C1 4795   5.423   3.747  10.796 -0.5421 -0.2838  0.5009
   36POPC    HA 4796   5.500   3.770  10.873 -0.8887 -2.0359  1.4195
   36POPC    HB 4797   5.331   3.804  10.822 -0.6558 -0.6234  0.8540
   36POPC    C2 4798   5.483   3.779  10.657  0.0502 -0.4235  0.8948
   36POPC    HS 4799   5.506   3.886  10.643  0.8671 -0.5250  1.3491
   36POPC   O21 4800   5.397   3.734  10.550 -0.0222 -0.9613 -0.0515
   36POPC   C21 4801   5.289   3.813  10.535  0.4091 -0.0431 -0.2145
   36POPC   O22 4802   5.258   3.909  10.605 -1.0334 -0.0871  0.1446
   36POPC   C22 4803   5.203   3.747  10.422 -0.2306  0.3708 -0.2246
   36POPC   H2R 4804   5.210   3.809  10.330  1.3784  0.0892 -0.3288
   36POPC   H2S 4805   5.095   3.740  10.449 -0.3687  1.7490 -0.3646
   36POPC    C3 4806   5.630   3.721  10.632  0.6057  0.6388  0.6167
   36POPC    HX 4807   5.617   3.613  10.654  0.9605  0.2547 -0.9292
   36POPC    HY 4808   5.697   3.779  10.698  0.0939  1.9625  0.0186
   36POPC   O31 4809   5.668   3.731  10.488 -0.6533  0.1229  0.1891
   36POPC   C31 4810   5.731   3.840  10.463 -0.2529 -0.7931 -0.5288
   36POPC   O32 4811   5.751   3.931  10.548 -0.3976  0.0979  0.8092
   36POPC   C32 4812   5.789   3.843  10.329 -0.8238  0.4617 -0.1559
   36POPC   H2X 4813   5.897   3.862  10.346 -0.7294  1.2256 -1.4229
   36POPC   H2Y 4814   5.748   3.937  10.287  0.2441  0.9837 -0.0798
   36POPC   C23 4815   5.265   3.608  10.378  0.5579 -0.5473 -0.5644
   36POPC   H3R 4816   5.248   3.538  10.462  0.9637  0.6029  0.5113
   36POPC   H3S 4817   5.376   3.609  10.368  0.5765 -1.8632 -0.7013
   36POPC   C24 4818   5.208   3.557  10.249 -1.0940  0.1477  0.0113
   36POPC   H4R 4819   5.098   3.569  10.259 -0.8407  1.0233  2.4121
   36POPC   H4S 4820   5.225   3.447  10.239 -1.8021 -0.2481  2.4326
   36POPC   C25 4821   5.258   3.630  10.124 -0.4843  0.0274 -0.1760
   36POPC   H5R 4822   5.367   3.649  10.136 -0.2927 -1.2619  0.2700
   36POPC   H5S 4823   5.204   3.727  10.120 -0.7552 -0.0003  1.8456
   36POPC   C26 4824   5.237   3.544   9.998  0.5053 -0.0703  0.4730
   36POPC   H6R 4825   5.130   3.541   9.968  0.5937  1.3455 -0.0514
   36POPC   H6S 4826   5.264   3.438  10.014 -0.6572 -0.7691 -1.7975
   36POPC   C27 4827   5.322   3.581   9.883 -0.0955 -0.6112  0.6220
   36POPC   H7R 4828   5.431   3.584   9.905  0.3775  0.6366 -1.6413
   36POPC   H7S 4829   5.298   3.682   9.844  1.3148 -0.5995 -0.2722
   36POPC   C28 4830   5.293   3.502   9.751  0.1543 -0.2006  0.3167
   36POPC   H8R 4831   5.353   3.553   9.672 -0.2985 -1.5683 -0.9652
   36POPC   H8S 4832   5.191   3.517   9.710 -1.0949 -3.5783  1.8271
   36POPC   C29 4833   5.326   3.355   9.751 -0.6106  0.2292 -0.4023
   36POPC   H91 4834   5.353   3.317   9.850  0.6690  2.7983  0.3274
   36POPC  C210 4835   5.341   3.282   9.641  0.1020 -0.1051  0.1377
   36POPC  H101 4836   5.361   3.174   9.646  5.4797  0.6744  1.5625
   36POPC  C211 4837   5.340   3.333   9.498 -0.2595 -0.4650  0.3813
   36POPC  H11R 4838   5.285   3.429   9.491  0.7125  0.2152  1.5177
   36POPC  H11S 4839   5.287   3.262   9.431  0.0481  0.9471 -1.4436
   36POPC  C212 4840   5.479   3.361   9.432  0.3313 -0.4483  0.1247
   36POPC  H12R 4841   5.547   3.273   9.426  0.0146 -0.9742  3.0011
   36POPC  H12S 4842   5.534   3.425   9.505  1.6661  0.1931 -1.3819
   36POPC  C213 4843   5.468   3.445   9.307  0.3520 -0.7352  0.1291
   36POPC  H13R 4844   5.570   3.485   9.287 -0.1071 -0.5154 -2.0828
   36POPC  H13S 4845   5.410   3.539   9.319  2.2850  0.4382  0.7834
   36POPC  C214 4846   5.395   3.362   9.193  0.5154 -0.5257  0.9876
   36POPC  H14R 4847   5.285   3.375   9.198  0.0163 -3.4239 -0.2420
   36POPC  H14S 4848   5.429   3.260   9.220 -0.5839 -1.7570 -1.8345
   36POPC  C215 4849   5.438   3.376   9.047 -0.5207  1.3955  0.4064
   36POPC  H15R 4850   5.547   3.358   9.037 -0.7731  0.3687 -0.7861
   36POPC  H15S 4851   5.419   3.480   9.011  1.4329  1.7195  0.2016
   36POPC  C216 4852   5.357   3.282   8.953 -0.2577  0.1718  0.2443
   36POPC  H16R 4853   5.259   3.330   8.932  0.4823  0.6810 -2.5555
   36POPC  H16S 4854   5.336   3.187   9.005  0.0271 -0.5351 -0.8993
   36POPC  C217 4855   5.424   3.258   8.820  0.0505  0.1217 -0.9139
   36POPC  H17R 4856   5.514   3.193   8.827  1.3797  1.9753  0.0563
   36POPC  H17S 4857   5.452   3.355   8.774 -4.8355  1.5762 -1.4045
   36POPC  C218 4858   5.330   3.191   8.714  0.6218 -0.3022 -0.5997
   36POPC  H18R 4859   5.383   3.172   8.618  3.0023  2.3059  0.0571
   36POPC  H18S 4860   5.245   3.261   8.698  0.9758  0.1394 -0.5624
   36POPC  H18T 4861   5.288   3.105   8.770 -0.9507  2.1343  2.2446
   36POPC   C33 4862   5.776   3.719  10.246 -0.5332  0.4726  0.1056
   36POPC   H3X 4863   5.670   3.689  10.229 -0.6132  0.8279 -0.0388
   36POPC   H3Y 4864   5.826   3.633  10.295 -1.3393 -0.3050 -0.3939
   36POPC   C34 4865   5.856   3.744  10.111  1.0775  0.2016 -1.2705
   36POPC   H4X 4866   5.963   3.727  10.135  0.3510 -2.7790  0.2734
   36POPC   H4Y 4867   5.844   3.852  10.084  2.6899  1.2651  1.8328
   36POPC   C35 4868   5.821   3.644   9.999 -0.8814  0.0228 -1.0264
   36POPC   H5X 4869   5.715   3.657   9.970 -0.1286  5.4991 -2.6054
   36POPC   H5Y 4870   5.827   3.537  10.028 -2.4528  0.0277 -0.6209
   36POPC   C36 4871   5.878   3.677   9.866 -0.8114 -0.0962 -0.2684
   36POPC   H6X 4872   5.988   3.690   9.881 -1.2280  2.5897  1.2273
   36POPC   H6Y 4873   5.851   3.783   9.843  1.1467  1.1446  2.5008
   36POPC   C37 4874   5.835   3.581   9.754  0.0318 -0.2213 -0.7794
   36POPC   H7X 4875   5.724   3.576   9.746 -0.2844  1.4002  1.5262
   36POPC   H7Y 4876   5.867   3.482   9.793  1.0537 -0.1423 -1.3974
   36POPC   C38 4877   5.909   3.596   9.626  0.0019  0.4184  0.3581
   36POPC   H8X 4878   6.019   3.590   9.642 -0.1100 -0.3943  0.8539
   36POPC   H8Y 4879   5.885   3.695   9.581 -0.6453  0.7301  1.3686
   36POPC   C39 4880   5.873   3.484   9.526 -0.8836 -0.2180  0.1179
   36POPC   H9X 4881   5.762   3.479   9.517 -0.8346 -0.0621 -0.6685
   36POPC   H9Y 4882   5.918   3.395   9.574 -0.4487  0.5961  1.2542
   36POPC  C310 4883   5.921   3.493   9.387 -0.4545  0.1475 -0.0779
   36POPC  H10X 4884   6.029   3.518   9.395 -0.1596 -1.2968  0.6913
   36POPC  H10Y 4885   5.871   3.571   9.325 -0.6843  0.7196  0.8097
   36POPC  C311 4886   5.930   3.366   9.297  0.0908 -1.1323  0.3261
   36POPC  H11X 4887   5.861   3.288   9.338  0.7222 -1.8416  0.0613
   36POPC  H11Y 4888   6.031   3.321   9.307  0.3683 -0.5031  0.4088
   36POPC  C312 4889   5.902   3.383   9.144  0.3878 -0.0691  0.4314
   36POPC  H12X 4890   5.923   3.487   9.113 -1.1627  0.6946  1.8002
   36POPC  H12Y 4891   5.792   3.369   9.129  0.0272  2.1709  0.6851
   36POPC  C313 4892   5.997   3.296   9.048 -0.5562  0.0813  0.0412
   36POPC  H13X 4893   5.980   3.193   9.087  0.1162 -0.0600 -0.0398
   36POPC  H13Y 4894   6.099   3.336   9.066 -0.2303 -0.3149 -0.8706
   36POPC  C314 4895   5.970   3.324   8.898 -0.2796 -0.4230  0.0363
   36POPC  H14X 4896   6.049   3.287   8.828 -0.7623 -0.3566 -0.5540
   36POPC  H14Y 4897   5.960   3.434   8.882  1.1049 -0.2196  0.4310
   36POPC  C315 4898   5.835   3.251   8.859 -0.0768  0.1293 -0.0810
   36POPC  H15X 4899   5.756   3.294   8.925 -1.1265 -1.9343  0.1051
   36POPC  H15Y 4900   5.829   3.143   8.883 -0.7575  0.2640  0.3967
   36POPC  C316 4901   5.784   3.270   8.716 -0.1555  0.7581  0.2578
   36POPC  H16X 4902   5.684   3.224   8.704 -1.2498  3.1496 -0.4721
   36POPC  H16Y 4903   5.850   3.220   8.642 -1.4052 -0.1200 -0.2955
   36POPC  H16Z 4904   5.784   3.376   8.682  2.1956  0.5126 -0.6637
   37POPC     N 4905   3.748   1.660   6.254  0.0618  0.1409 -0.2936
   37POPC   C12 4906   3.817   1.697   6.383 -0.4346 -0.0630  0.6009
   37POPC  H12A 4907   3.895   1.771   6.372  0.8323 -1.3949  0.3966
   37POPC  H12B 4908   3.867   1.613   6.430 -0.2713 -0.0076  0.5282
   37POPC   C13 4909   3.864   1.654   6.149 -0.5753 -0.2425  0.6808
   37POPC  H13A 4910   3.905   1.752   6.129  0.1564 -0.7189 -0.2489
   37POPC  H13B 4911   3.942   1.595   6.195 -0.4114 -0.3398  0.2829
   37POPC  H13C 4912   3.839   1.614   6.052  1.0261  1.3640 -0.4529
   37POPC   C14 4913   3.670   1.533   6.255  0.0351 -0.0649 -0.0582
   37POPC  H14A 4914   3.740   1.456   6.284  0.5988  0.9355  1.3699
   37POPC  H14B 4915   3.594   1.537   6.332 -1.5429 -0.7613 -1.5122
   37POPC  H14C 4916   3.617   1.512   6.163 -0.4847  3.2104 -0.6298
   37POPC   C15 4917   3.650   1.768   6.210 -0.2580 -0.9042 -0.5373
   37POPC  H15A 4918   3.702   1.860   6.188  1.7115 -1.7307  0.4097
   37POPC  H15B 4919   3.583   1.784   6.293  1.1126  1.8478  0.1397
   37POPC  H15C 4920   3.583   1.740   6.130  1.0694  2.3315 -2.9850
   37POPC   C11 4921   3.723   1.761   6.490  0.1685  0.3974 -0.5919
   37POPC  H11A 4922   3.682   1.858   6.455  0.5457  0.2400 -1.5164
   37POPC  H11B 4923   3.776   1.786   6.584  0.0590 -1.5801  0.0561
   37POPC     P 4924   3.462   1.710   6.534 -0.2042  0.5864 -0.3353
   37POPC   O13 4925   3.391   1.584   6.494 -0.0864  0.1399 -0.4676
   37POPC   O14 4926   3.445   1.825   6.442  0.8278  0.1588 -0.3603
   37POPC   O12 4927   3.616   1.668   6.537 -0.5512 -1.0224 -0.5895
   37POPC   O11 4928   3.418   1.749   6.684 -0.6289 -0.0820 -0.1102
   37POPC    C1 4929   3.441   1.652   6.785 -0.4862  0.1078 -0.0778
   37POPC    HA 4930   3.455   1.549   6.746 -0.7224  1.2006 -3.3573
   37POPC    HB 4931   3.345   1.635   6.838 -2.1477 -0.4932 -3.0863
   37POPC    C2 4932   3.557   1.688   6.885  0.1503  0.4378  0.3737
   37POPC    HS 4933   3.642   1.617   6.874  0.2677  0.4082  1.3842
   37POPC   O21 4934   3.497   1.688   7.013  0.3783 -0.0042 -0.0963
   37POPC   C21 4935   3.540   1.600   7.102  0.6761 -0.1669  0.1070
   37POPC   O22 4936   3.642   1.531   7.089 -0.7245  0.1298 -0.3399
   37POPC   C22 4937   3.452   1.605   7.229  0.1581  0.3796 -0.5665
   37POPC   H2R 4938   3.348   1.580   7.199  0.5486  0.0172 -1.6609
   37POPC   H2S 4939   3.453   1.708   7.271 -2.6932 -0.4084  1.7411
   37POPC    C3 4940   3.603   1.833   6.849  0.3537  1.0906 -0.3655
   37POPC    HX 4941   3.514   1.898   6.863 -0.8152 -0.3910 -0.6493
   37POPC    HY 4942   3.643   1.837   6.746  2.5043  2.4570  0.4590
   37POPC   O31 4943   3.702   1.885   6.946 -0.5055 -0.1485  0.0185
   37POPC   C31 4944   3.827   1.910   6.899 -0.4707  0.5870  0.1796
   37POPC   O32 4945   3.856   1.924   6.784 -1.0657  0.4395 -0.3264
   37POPC   C32 4946   3.921   1.929   7.017 -0.3379 -0.3350 -0.2405
   37POPC   H2X 4947   4.018   1.886   6.984 -0.0764  0.4924 -0.5605
   37POPC   H2Y 4948   3.890   1.854   7.094  0.2113  1.1403  1.4697
   37POPC   C23 4949   3.488   1.479   7.317  0.0412  0.2062  0.0938
   37POPC   H3R 4950   3.501   1.393   7.247  1.1034 -0.1566  0.7127
   37POPC   H3S 4951   3.403   1.448   7.381  1.7718  0.0867  2.4691
   37POPC   C24 4952   3.610   1.497   7.407 -0.1711  0.0240 -0.1295
   37POPC   H4R 4953   3.600   1.588   7.468 -0.7423 -1.4246  2.0517
   37POPC   H4S 4954   3.694   1.521   7.338 -1.0127  2.4066 -0.4282
   37POPC   C25 4955   3.657   1.371   7.479  0.0655 -0.4575  0.2564
   37POPC   H5R 4956   3.764   1.386   7.506  0.2514 -1.3350  0.0379
   37POPC   H5S 4957   3.653   1.280   7.415 -2.3651 -1.2650  1.4398
   37POPC   C26 4958   3.574   1.350   7.605 -0.0355 -0.2724  0.6335
   37POPC   H6R 4959   3.467   1.368   7.582  0.4888  3.7800  0.5945
   37POPC   H6S 4960   3.600   1.434   7.673 -2.4050  0.0628  1.2125
   37POPC   C27 4961   3.598   1.216   7.666  0.1486  0.5778 -0.2671
   37POPC   H7R 4962   3.708   1.197   7.663  0.6295  3.1245 -0.7603
   37POPC   H7S 4963   3.545   1.145   7.598  0.7161  0.2451 -0.3748
   37POPC   C28 4964   3.545   1.200   7.812 -0.0401 -0.1053 -0.1263
   37POPC   H8R 4965   3.435   1.216   7.816  0.3853  3.7388 -0.1683
   37POPC   H8S 4966   3.578   1.292   7.865 -0.8232  1.4117 -2.1209
   37POPC   C29 4967   3.582   1.069   7.871 -0.4941 -0.8649  0.0403
   37POPC   H91 4968   3.554   0.979   7.813  2.6091 -1.0548 -1.3513
   37POPC  C210 4969   3.652   1.057   7.984  0.6664  0.1540  0.0706
   37POPC  H101 4970   3.665   0.958   8.029 -0.7511 -0.0118  0.1415
   37POPC  C211 4971   3.702   1.165   8.072 -0.5639  0.0478 -0.6065
   37POPC  H11R 4972   3.704   1.263   8.020  1.1012  0.7718  0.7134
   37POPC  H11S 4973   3.808   1.136   8.087 -1.2413 -1.8588  0.8871
   37POPC  C212 4974   3.619   1.175   8.198  0.3528 -0.1583  0.8948
   37POPC  H12R 4975   3.683   1.229   8.271  1.0800 -0.7358  0.6941
   37POPC  H12S 4976   3.590   1.072   8.229 -2.3497  0.2161 -0.1237
   37POPC  C213 4977   3.483   1.250   8.170 -0.7861 -0.0307  0.3505
   37POPC  H13R 4978   3.483   1.289   8.066  0.4929 -0.6447  0.0975
   37POPC  H13S 4979   3.473   1.334   8.243 -0.7924 -0.7725  1.2273
   37POPC  C214 4980   3.369   1.148   8.177  0.3880  0.0350 -0.0956
   37POPC  H14R 4981   3.369   1.091   8.273 -1.2221  1.1862  0.6424
   37POPC  H14S 4982   3.371   1.087   8.084 -0.0142  1.9495 -1.4070
   37POPC  C215 4983   3.227   1.221   8.158  0.0969  0.5648 -0.2688
   37POPC  H15R 4984   3.206   1.239   8.051  0.6195  0.2370 -0.4275
   37POPC  H15S 4985   3.221   1.310   8.225 -1.4857 -0.7680  1.4615
   37POPC  C216 4986   3.121   1.126   8.199  0.3875 -0.3368  0.7745
   37POPC  H16R 4987   3.137   1.072   8.295  0.5478 -0.2942  0.7719
   37POPC  H16S 4988   3.127   1.046   8.122  0.0681  0.3408  0.0289
   37POPC  C217 4989   2.983   1.189   8.197 -0.3152 -0.0114 -0.1144
   37POPC  H17R 4990   2.968   1.255   8.109 -0.0315 -0.9649 -0.8958
   37POPC  H17S 4991   2.963   1.262   8.279 -3.4206 -0.3053 -0.5078
   37POPC  C218 4992   2.875   1.085   8.192  0.1802 -0.2900 -0.5142
   37POPC  H18R 4993   2.777   1.118   8.232 -1.2430 -2.6335 -1.8464
   37POPC  H18S 4994   2.908   1.015   8.271 -0.6146  0.7386  0.7751
   37POPC  H18T 4995   2.856   1.046   8.089 -1.4089  0.5404 -0.5779
   37POPC   C33 4996   3.926   2.070   7.066 -0.2848  0.7140  0.1125
   37POPC   H3X 4997   3.915   2.147   6.987  0.0543 -1.5121 -2.2300
   37POPC   H3Y 4998   4.016   2.091   7.127 -0.9686  0.5146  1.2157
   37POPC   C34 4999   3.818   2.098   7.168  0.1445 -0.6205 -0.1107
   37POPC   H4X 5000   3.720   2.051   7.144 -0.3344  0.2679  0.0670
   37POPC   H4Y 5001   3.797   2.207   7.176  1.6832 -0.3357  0.4530
   37POPC   C35 5002   3.851   2.052   7.310  0.3096  0.6080 -0.4871
   37POPC   H5X 5003   3.932   2.118   7.349 -0.5169  0.4050  1.6896
   37POPC   H5Y 5004   3.890   1.948   7.309 -0.2600  0.3150  1.9956
   37POPC   C36 5005   3.734   2.077   7.407  0.0160  0.5862  0.2488
   37POPC   H6X 5006   3.674   1.984   7.408  1.4197 -0.4278 -1.9599
   37POPC   H6Y 5007   3.671   2.164   7.381 -1.3114 -0.1439  0.9259
   37POPC   C37 5008   3.788   2.111   7.548 -0.1715  0.5111  0.0784
   37POPC   H7X 5009   3.842   2.208   7.545  0.6991  0.0657  0.8473
   37POPC   H7Y 5010   3.862   2.032   7.570  2.3713  2.4056 -1.1335
   37POPC   C38 5011   3.668   2.112   7.654  0.0094  0.6125  0.3342
   37POPC   H8X 5012   3.614   2.018   7.630  0.3772  0.3608  0.4807
   37POPC   H8Y 5013   3.598   2.195   7.630  0.8679  0.8330 -1.6103
   37POPC   C39 5014   3.726   2.126   7.795  0.0760 -0.5024 -0.3436
   37POPC   H9X 5015   3.766   2.226   7.822  0.8395 -0.8158 -0.2942
   37POPC   H9Y 5016   3.813   2.058   7.804 -1.0265 -1.7375  1.6120
   37POPC  C310 5017   3.618   2.080   7.891 -0.9380 -0.5201 -0.4220
   37POPC  H10X 5018   3.580   1.982   7.855  0.0866 -1.0227 -0.1756
   37POPC  H10Y 5019   3.527   2.143   7.885 -1.3017 -0.8520  1.2891
   37POPC  C311 5020   3.658   2.054   8.036 -0.6544  0.1411 -0.8113
   37POPC  H11X 5021   3.657   2.149   8.094  2.4671 -1.5378  2.4410
   37POPC  H11Y 5022   3.765   2.024   8.032 -0.7199 -0.1897 -0.2493
   37POPC  C312 5023   3.580   1.942   8.117 -0.1654  0.7411  0.3851
   37POPC  H12X 5024   3.472   1.944   8.091 -0.2772  2.6112  0.7927
   37POPC  H12Y 5025   3.581   1.974   8.224 -2.0070 -1.2559  1.0627
   37POPC  C313 5026   3.624   1.797   8.094  0.0676  0.0825 -0.4922
   37POPC  H13X 5027   3.735   1.796   8.089  0.0580  0.6507 -0.9352
   37POPC  H13Y 5028   3.585   1.761   7.997 -0.9563 -1.2524  0.3685
   37POPC  C314 5029   3.578   1.707   8.211 -0.0866 -0.3639  0.5270
   37POPC  H14X 5030   3.591   1.601   8.180  3.5022 -0.4319  1.7292
   37POPC  H14Y 5031   3.472   1.724   8.236  0.5370  0.7369  2.6072
   37POPC  C315 5032   3.662   1.720   8.337 -0.1045  0.2128  0.0908
   37POPC  H15X 5033   3.660   1.824   8.376  0.7066 -0.4789  2.0836
   37POPC  H15Y 5034   3.771   1.713   8.316 -0.2853 -2.9090 -0.2846
   37POPC  C316 5035   3.636   1.619   8.443 -0.1314  0.5565  0.0938
   37POPC  H16X 5036   3.529   1.609   8.469 -0.1235 -1.4983 -0.4741
   37POPC  H16Y 5037   3.695   1.646   8.534  1.7302 -0.7609 -0.6522
   37POPC  H16Z 5038   3.654   1.516   8.406  0.6792 -0.7788  3.7943
   38POPC     N 5039   4.861   0.653   6.112 -0.0883  0.1102  0.0256
   38POPC   C12 5040   4.829   0.587   6.249  0.4752  0.0463 -0.4953
   38POPC  H12A 5041   4.811   0.482   6.231 -2.0770  0.2281  0.5743
   38POPC  H12B 5042   4.728   0.614   6.278  1.0750  1.0987  0.7444
   38POPC   C13 5043   4.749   0.618   6.023 -0.7345 -0.1179  0.7424
   38POPC  H13A 5044   4.727   0.513   6.007  0.0250 -0.2042  0.2493
   38POPC  H13B 5045   4.651   0.646   6.061 -0.1656  1.2230  1.2835
   38POPC  H13C 5046   4.768   0.660   5.925 -1.3570  1.9079  1.4314
   38POPC   C14 5047   4.857   0.801   6.117  0.0852 -0.1309  0.4009
   38POPC  H14A 5048   4.883   0.845   6.022 -0.3511 -1.5190 -0.3903
   38POPC  H14B 5049   4.762   0.849   6.135 -0.6448 -2.3451  3.1778
   38POPC  H14C 5050   4.926   0.830   6.195 -0.2639 -2.7839  1.8347
   38POPC   C15 5051   4.985   0.598   6.043 -0.0244 -0.2791  0.3685
   38POPC  H15A 5052   4.994   0.633   5.941  0.5202  0.3008  0.6150
   38POPC  H15B 5053   4.966   0.492   6.033 -2.1585  0.1790 -1.1236
   38POPC  H15C 5054   5.067   0.615   6.111 -2.2812  2.1970  2.7803
   38POPC   C11 5055   4.928   0.617   6.368  0.4273  0.5231  0.2510
   38POPC  H11A 5056   4.904   0.532   6.435 -2.7783  1.0999 -0.0275
   38POPC  H11B 5057   4.893   0.715   6.407 -2.2564  0.5481 -1.8852
   38POPC     P 5058   5.157   0.740   6.331 -0.3056  0.0544  0.0350
   38POPC   O13 5059   5.078   0.863   6.325 -0.3668  0.4741 -0.1543
   38POPC   O14 5060   5.275   0.725   6.239  0.1255  0.2606 -0.2242
   38POPC   O12 5061   5.069   0.616   6.333  0.4843 -0.0585 -0.8379
   38POPC   O11 5062   5.213   0.729   6.483  0.1694 -0.2546 -0.1730
   38POPC    C1 5063   5.176   0.833   6.569  0.0041  0.0073 -0.8556
   38POPC    HA 5064   5.067   0.855   6.574  0.0324 -0.1164  1.3623
   38POPC    HB 5065   5.231   0.925   6.539  1.8022 -0.1793  1.5371
   38POPC    C2 5066   5.221   0.822   6.718 -0.1459 -0.1359  0.0312
   38POPC    HS 5067   5.233   0.923   6.761 -0.4406 -0.0193 -0.1603
   38POPC   O21 5068   5.339   0.745   6.741 -0.2008  0.2546  0.0422
   38POPC   C21 5069   5.455   0.805   6.709 -0.3072 -0.0779 -0.1951
   38POPC   O22 5070   5.471   0.919   6.683 -0.7443  0.0375  0.1534
   38POPC   C22 5071   5.566   0.701   6.715  0.5436 -0.1516  0.1839
   38POPC   H2R 5072   5.639   0.726   6.636  0.7510  1.2152  0.7823
   38POPC   H2S 5073   5.539   0.596   6.690  1.0297  0.3290 -2.7241
   38POPC    C3 5074   5.108   0.760   6.808  0.7358 -0.7756 -0.0189
   38POPC    HX 5075   5.087   0.656   6.775  1.4093 -0.8298 -0.2960
   38POPC    HY 5076   5.017   0.816   6.779  0.0761 -1.0219  1.4995
   38POPC   O31 5077   5.132   0.751   6.953  0.4808  0.2484  0.0548
   38POPC   C31 5078   5.087   0.853   7.026 -0.0202  0.4672 -0.3352
   38POPC   O32 5079   5.032   0.952   6.985 -0.2369  0.2193  0.5356
   38POPC   C32 5080   5.128   0.829   7.167  0.2411 -0.6944 -0.0519
   38POPC   H2X 5081   5.039   0.790   7.222 -2.3285  0.8832 -2.7536
   38POPC   H2Y 5082   5.126   0.933   7.208 -1.7742 -0.3847 -0.8329
   38POPC   C23 5083   5.655   0.703   6.850  0.0043  0.1972 -0.0255
   38POPC   H3R 5084   5.676   0.810   6.870  2.1360  0.2632 -2.2045
   38POPC   H3S 5085   5.748   0.649   6.823  0.3585  0.8470 -0.1160
   38POPC   C24 5086   5.597   0.627   6.967  0.2893  0.7519 -0.0651
   38POPC   H4R 5087   5.497   0.672   6.985  0.3000  0.1319  1.6750
   38POPC   H4S 5088   5.655   0.651   7.059  2.2707  0.4449 -1.1596
   38POPC   C25 5089   5.572   0.480   6.936 -0.4295 -0.0978  0.3971
   38POPC   H5R 5090   5.647   0.449   6.860 -0.0945  1.1136  0.2129
   38POPC   H5S 5091   5.477   0.472   6.877  0.8267 -1.2409 -1.5812
   38POPC   C26 5092   5.576   0.397   7.066 -0.5474  0.1826 -0.4716
   38POPC   H6R 5093   5.669   0.408   7.126 -1.7049  0.5883  1.3259
   38POPC   H6S 5094   5.553   0.291   7.043 -0.5189  0.1354 -0.2846
   38POPC   C27 5095   5.462   0.440   7.165 -0.0281  0.0269  0.1800
   38POPC   H7R 5096   5.370   0.434   7.102  0.0716 -2.6258  0.1794
   38POPC   H7S 5097   5.472   0.548   7.188  0.3927  0.5788 -2.3094
   38POPC   C28 5098   5.458   0.351   7.284 -0.3963  0.4167 -0.0555
   38POPC   H8R 5099   5.442   0.249   7.242 -0.6280  1.0338 -1.5328
   38POPC   H8S 5100   5.363   0.364   7.341  0.3473 -2.0474  1.9532
   38POPC   C29 5101   5.579   0.361   7.384 -0.0937  0.1592 -0.1595
   38POPC   H91 5102   5.674   0.321   7.347 -0.7807 -0.1490 -1.7033
   38POPC  C210 5103   5.584   0.418   7.503 -0.3389 -1.0565  0.0327
   38POPC  H101 5104   5.680   0.414   7.557  0.3128  0.1267 -0.9914
   38POPC  C211 5105   5.468   0.478   7.578  0.5411 -0.0248 -0.6159
   38POPC  H11R 5106   5.382   0.485   7.507 -0.4355  0.6241  0.5939
   38POPC  H11S 5107   5.503   0.577   7.616  1.7232 -0.8653  0.5851
   38POPC  C212 5108   5.418   0.403   7.703 -0.5452  0.3918  0.0829
   38POPC  H12R 5109   5.376   0.304   7.672 -0.6907  0.6948 -0.7311
   38POPC  H12S 5110   5.333   0.459   7.747 -0.7180  2.0372 -2.1596
   38POPC  C213 5111   5.533   0.403   7.801  0.0526  0.0063 -0.9560
   38POPC  H13R 5112   5.565   0.506   7.828  1.2549 -0.3420 -0.9953
   38POPC  H13S 5113   5.620   0.342   7.767 -0.0174 -0.9006  0.4159
   38POPC  C214 5114   5.505   0.334   7.932 -0.2613 -0.2641  0.2227
   38POPC  H14R 5115   5.446   0.239   7.926  1.5282 -1.4217  0.1535
   38POPC  H14S 5116   5.455   0.408   7.998  0.7021 -0.1496  0.8388
   38POPC  C215 5117   5.635   0.296   8.003 -0.1543  0.1322 -0.2548
   38POPC  H15R 5118   5.700   0.386   8.010  0.0569 -0.1254  1.9641
   38POPC  H15S 5119   5.691   0.226   7.937  2.9553  2.4552 -0.3189
   38POPC  C216 5120   5.620   0.217   8.130  0.6387 -0.0989 -0.1688
   38POPC  H16R 5121   5.557   0.133   8.094 -0.6057  1.1420 -1.0098
   38POPC  H16S 5122   5.551   0.267   8.202 -0.9815 -2.5877  0.1333
   38POPC  C217 5123   5.747   0.159   8.197 -0.1690  0.1707 -0.3414
   38POPC  H17R 5124   5.734   0.087   8.281 -0.5683  1.1468  0.4583
   38POPC  H17S 5125   5.796   0.249   8.241 -0.8998  1.5362 -2.1822
   38POPC  C218 5126   5.839   0.088   8.096  0.4004  0.2047  0.2706
   38POPC  H18R 5127   5.785   0.011   8.038  1.5418  0.4742 -1.1916
   38POPC  H18S 5128   5.919   0.036   8.154  0.6404  0.6093  0.3130
   38POPC  H18T 5129   5.877   0.159   8.019  0.2502  0.4505  0.4227
   38POPC   C33 5130   5.256   0.748   7.212  0.1439 -0.4230 -0.2232
   38POPC   H3X 5131   5.339   0.778   7.145 -0.1050 -0.7448 -0.6785
   38POPC   H3Y 5132   5.236   0.639   7.214  0.8940 -0.5945 -1.1314
   38POPC   C34 5133   5.302   0.788   7.351 -0.6316 -0.2855 -1.0250
   38POPC   H4X 5134   5.310   0.898   7.360  0.3736 -0.4665  1.3207
   38POPC   H4Y 5135   5.403   0.749   7.378  0.2031  2.7226  0.6335
   38POPC   C35 5136   5.197   0.753   7.463 -0.3249  1.0305 -0.0489
   38POPC   H5X 5137   5.203   0.644   7.480  1.9539  1.3044  1.3438
   38POPC   H5Y 5138   5.094   0.782   7.432 -0.4211  0.2524 -0.4969
   38POPC   C36 5139   5.222   0.811   7.603 -0.4128  0.9579 -0.5233
   38POPC   H6X 5140   5.200   0.919   7.609 -0.2307  0.9221  1.5293
   38POPC   H6Y 5141   5.332   0.815   7.617 -0.4257  0.3177 -0.1848
   38POPC   C37 5142   5.161   0.720   7.717 -0.2219 -0.7195 -0.0433
   38POPC   H7X 5143   5.215   0.623   7.712  1.6435  0.2816 -0.4953
   38POPC   H7Y 5144   5.053   0.709   7.696 -0.3993  0.9414 -0.1940
   38POPC   C38 5145   5.185   0.782   7.858  0.0751  0.3322  0.0421
   38POPC   H8X 5146   5.127   0.876   7.867  0.3897  0.5986 -0.6812
   38POPC   H8Y 5147   5.291   0.814   7.861  0.8517 -1.8026 -1.7135
   38POPC   C39 5148   5.139   0.689   7.973 -0.5968  0.6421 -0.0538
   38POPC   H9X 5149   5.182   0.588   7.954  0.3849  0.4693  2.6465
   38POPC   H9Y 5150   5.028   0.684   7.968 -0.6205  1.4945 -0.4483
   38POPC  C310 5151   5.191   0.732   8.111 -0.4377  0.7639 -0.3976
   38POPC  H10X 5152   5.151   0.833   8.134 -2.1887  0.2027 -0.7957
   38POPC  H10Y 5153   5.302   0.744   8.111 -0.6154  2.9623  0.5645
   38POPC  C311 5154   5.149   0.631   8.227 -0.8754 -0.0096 -0.5576
   38POPC  H11X 5155   5.200   0.536   8.200 -1.4437 -0.3477 -0.4555
   38POPC  H11Y 5156   5.040   0.612   8.218 -1.5287  2.0338  1.9195
   38POPC  C312 5157   5.178   0.665   8.377  0.4988  0.0124  0.0990
   38POPC  H12X 5158   5.176   0.579   8.448 -2.2365 -0.5071 -0.4964
   38POPC  H12Y 5159   5.090   0.727   8.401  0.7649  0.3077  0.3092
   38POPC  C313 5160   5.309   0.746   8.399  0.1992  0.4107  0.0393
   38POPC  H13X 5161   5.314   0.832   8.329  1.6022 -0.2351 -0.6918
   38POPC  H13Y 5162   5.398   0.690   8.364  0.2530  0.5671 -0.0766
   38POPC  C314 5163   5.316   0.785   8.550 -0.2687 -0.8202  0.0374
   38POPC  H14X 5164   5.285   0.694   8.606  1.1167 -1.6695 -0.5002
   38POPC  H14Y 5165   5.245   0.867   8.567  0.9843  0.0645  1.1926
   38POPC  C315 5166   5.470   0.813   8.590 -0.1579 -0.7287  0.0556
   38POPC  H15X 5167   5.458   0.892   8.667 -0.3211 -0.1110 -0.5936
   38POPC  H15Y 5168   5.519   0.863   8.504 -0.7368 -0.5204 -0.1633
   38POPC  C316 5169   5.528   0.683   8.632  0.3401 -0.7232 -0.3983
   38POPC  H16X 5170   5.523   0.594   8.565 -0.2267 -1.6683  0.8526
   38POPC  H16Y 5171   5.485   0.645   8.727  0.4153  0.5336  0.1590
   38POPC  H16Z 5172   5.633   0.701   8.665 -0.3576 -0.1926  1.6464
   39POPC     N 5173   1.214   4.405   6.329  0.1801 -0.7889  0.3238
   39POPC   C12 5174   1.298   4.502   6.239  0.4721 -0.4995 -0.2150
   39POPC  H12A 5175   1.360   4.562   6.305  0.3831  1.3948 -1.7506
   39POPC  H12B 5176   1.236   4.575   6.188  1.8958 -0.7124 -2.3859
   39POPC   C13 5177   1.119   4.324   6.242 -0.8411  0.0871  0.4657
   39POPC  H13A 5178   1.058   4.397   6.189 -0.6225  1.5084  2.0900
   39POPC  H13B 5179   1.173   4.261   6.173 -0.0530  0.9248  0.2949
   39POPC  H13C 5180   1.049   4.261   6.295 -0.7985 -1.1761 -0.8967
   39POPC   C14 5181   1.305   4.303   6.382 -0.4516 -0.1363 -0.2753
   39POPC  H14A 5182   1.253   4.229   6.441  0.4876 -0.1469  0.5672
   39POPC  H14B 5183   1.359   4.252   6.304 -1.1949 -1.4401  0.0297
   39POPC  H14C 5184   1.383   4.352   6.439 -0.5408  0.4923 -0.6806
   39POPC   C15 5185   1.150   4.483   6.431 -0.0325  0.3454  0.7602
   39POPC  H15A 5186   1.079   4.430   6.493  0.3561 -0.2227  0.7262
   39POPC  H15B 5187   1.087   4.557   6.382  1.3108 -0.3741 -2.2432
   39POPC  H15C 5188   1.222   4.538   6.489  1.6907 -1.3190  0.2845
   39POPC   C11 5189   1.379   4.449   6.125  0.0382 -0.1061  0.0813
   39POPC  H11A 5190   1.412   4.527   6.053 -0.0346 -0.4565 -0.3381
   39POPC  H11B 5191   1.316   4.374   6.072 -0.4385 -0.5767  1.2767
   39POPC     P 5192   1.629   4.466   6.221 -0.0803  0.1108 -0.1629
   39POPC   O13 5193   1.603   4.559   6.332 -0.2076  0.7283  0.0862
   39POPC   O14 5194   1.693   4.533   6.103 -0.0209  0.6883  0.0092
   39POPC   O12 5195   1.497   4.390   6.176 -0.4869 -0.3757  0.3178
   39POPC   O11 5196   1.728   4.352   6.255 -0.0304  0.4344 -0.2880
   39POPC    C1 5197   1.719   4.216   6.284  0.5519 -0.4780  0.6099
   39POPC    HA 5198   1.819   4.169   6.277  0.8305 -0.0875  1.6881
   39POPC    HB 5199   1.652   4.164   6.212 -0.0962  1.9390 -0.6257
   39POPC    C2 5200   1.675   4.179   6.425 -0.5394 -0.2226 -0.2889
   39POPC    HS 5201   1.577   4.223   6.451 -1.2498 -1.3584 -0.9572
   39POPC   O21 5202   1.775   4.224   6.522  0.0275  0.8880  1.2345
   39POPC   C21 5203   1.735   4.265   6.642 -0.1960 -0.0947  0.3176
   39POPC   O22 5204   1.621   4.289   6.673  0.0942 -0.5086 -0.1202
   39POPC   C22 5205   1.858   4.287   6.723 -0.1329  0.2389 -0.0437
   39POPC   H2R 5206   1.900   4.378   6.675 -0.8776  0.5998 -0.0270
   39POPC   H2S 5207   1.932   4.206   6.706 -1.8431 -1.0012 -2.1662
   39POPC    C3 5208   1.659   4.027   6.439  0.1779  0.3663  0.1410
   39POPC    HX 5209   1.754   3.977   6.410  0.8286 -1.5022  4.5627
   39POPC    HY 5210   1.583   3.978   6.375 -1.2039  0.6116  1.5205
   39POPC   O31 5211   1.635   3.984   6.573  0.0346 -0.1690  0.4480
   39POPC   C31 5212   1.510   3.990   6.606  0.9580 -0.3693  0.4919
   39POPC   O32 5213   1.418   4.029   6.537  0.3289 -0.2047  0.2255
   39POPC   C32 5214   1.494   3.925   6.749 -0.0876  0.4953  0.2975
   39POPC   H2X 5215   1.529   3.820   6.742  0.1670  0.4826  1.5767
   39POPC   H2Y 5216   1.553   3.982   6.824 -1.7653  1.1581  1.1704
   39POPC   C23 5217   1.824   4.301   6.884 -0.2228  0.0624  0.8487
   39POPC   H3R 5218   1.746   4.223   6.895 -0.8353  0.4563 -0.4497
   39POPC   H3S 5219   1.773   4.399   6.896  1.8025  1.2690  0.0376
   39POPC   C24 5220   1.940   4.285   6.963 -0.8844 -0.5032  0.3960
   39POPC   H4R 5221   2.020   4.361   6.952 -0.5715 -0.0059  4.4372
   39POPC   H4S 5222   1.995   4.194   6.935 -0.0882 -0.3842  1.5102
   39POPC   C25 5223   1.917   4.297   7.111  0.0451 -0.1237  0.3725
   39POPC   H5R 5224   1.864   4.392   7.132  1.2478  0.8140 -0.7083
   39POPC   H5S 5225   2.018   4.301   7.158 -0.5737 -0.8262  1.8171
   39POPC   C26 5226   1.838   4.190   7.187  0.0129 -0.7042 -0.3013
   39POPC   H6R 5227   1.892   4.094   7.169  0.5679 -0.1768 -1.5397
   39POPC   H6S 5228   1.737   4.174   7.145  0.0601 -3.0824  0.3222
   39POPC   C27 5229   1.823   4.225   7.332 -0.8630  0.4556  0.1023
   39POPC   H7R 5230   1.776   4.322   7.359 -2.0782 -0.5742  1.8863
   39POPC   H7S 5231   1.924   4.229   7.378 -0.5287  0.2830 -0.6062
   39POPC   C28 5232   1.738   4.123   7.404  0.6796 -0.1680  0.4590
   39POPC   H8R 5233   1.761   4.022   7.363  1.0472  0.4546 -0.9242
   39POPC   H8S 5234   1.631   4.143   7.384  0.2063 -1.7674  1.1972
   39POPC   C29 5235   1.757   4.130   7.549  0.3290  0.1615  0.2244
   39POPC   H91 5236   1.674   4.181   7.601 -0.3349 -0.7317  0.0816
   39POPC  C210 5237   1.844   4.053   7.630  0.5910 -0.5304  0.6802
   39POPC  H101 5238   1.851   4.086   7.735 -1.5169  0.9159  0.4282
   39POPC  C211 5239   1.949   3.967   7.557  0.3618 -0.1505 -0.4175
   39POPC  H11R 5240   2.047   3.983   7.607 -0.0289 -2.1084  1.1071
   39POPC  H11S 5241   1.957   3.995   7.450  0.0948 -2.2221 -1.0289
   39POPC  C212 5242   1.917   3.817   7.548  0.3100  0.7067 -0.2446
   39POPC  H12R 5243   1.817   3.807   7.501  0.5538 -0.2141 -0.5887
   39POPC  H12S 5244   1.900   3.774   7.650  1.6122  0.7070 -0.0100
   39POPC  C213 5245   2.024   3.747   7.479 -0.0663  0.3416  0.1748
   39POPC  H13R 5246   2.118   3.746   7.539  0.6199  3.9978 -0.5857
   39POPC  H13S 5247   2.056   3.802   7.387  2.4214 -1.7407 -0.3124
   39POPC  C214 5248   1.977   3.616   7.431 -0.0528 -0.0484  0.1125
   39POPC  H14R 5249   1.881   3.614   7.376  0.3687  0.4598 -0.6553
   39POPC  H14S 5250   1.971   3.544   7.516 -2.7845 -2.2787 -1.7950
   39POPC  C215 5251   2.081   3.557   7.329 -0.3600 -0.1691  0.8633
   39POPC  H15R 5252   2.068   3.628   7.244  1.4060 -1.2756 -0.4123
   39POPC  H15S 5253   2.045   3.456   7.299 -3.4398  1.1812 -0.4467
   39POPC  C216 5254   2.231   3.561   7.372 -0.2877  0.3260  0.3129
   39POPC  H16R 5255   2.267   3.665   7.388  2.7068 -0.6207  0.4106
   39POPC  H16S 5256   2.287   3.523   7.284 -0.9104  1.1599 -0.4658
   39POPC  C217 5257   2.266   3.479   7.489 -0.1542  0.3218  0.3853
   39POPC  H17R 5258   2.265   3.372   7.459 -0.8352  0.3967  0.1104
   39POPC  H17S 5259   2.183   3.482   7.564 -0.7015  1.0466 -0.2417
   39POPC  C218 5260   2.391   3.526   7.562  0.2415 -1.1562 -0.4714
   39POPC  H18R 5261   2.372   3.632   7.591 -0.3747 -1.4117  0.0898
   39POPC  H18S 5262   2.477   3.527   7.492  0.3223 -1.1275 -0.3731
   39POPC  H18T 5263   2.413   3.463   7.651 -0.0458 -0.5048  0.0733
   39POPC   C33 5264   1.357   3.924   6.809  0.0646  0.4619 -0.0680
   39POPC   H3X 5265   1.367   3.864   6.902  1.4160  0.3946 -0.2473
   39POPC   H3Y 5266   1.285   3.876   6.739  1.0652  0.3840 -1.0762
   39POPC   C34 5267   1.305   4.063   6.845 -0.7913  0.3543  0.1015
   39POPC   H4X 5268   1.321   4.124   6.753  2.1383 -1.9482 -1.1303
   39POPC   H4Y 5269   1.380   4.107   6.915  0.2899  1.2578 -1.5369
   39POPC   C35 5270   1.157   4.062   6.881  0.1113 -0.6539 -0.0481
   39POPC   H5X 5271   1.097   4.032   6.792 -2.7337  1.2809  1.0436
   39POPC   H5Y 5272   1.128   4.168   6.898 -2.5755 -1.4803  1.0242
   39POPC   C36 5273   1.112   3.977   6.991  0.0646 -0.0220 -0.3676
   39POPC   H6X 5274   1.157   3.876   6.979 -1.5574 -0.7596 -0.6204
   39POPC   H6Y 5275   1.003   3.958   6.998 -0.0612  0.5433 -0.7057
   39POPC   C37 5276   1.171   4.024   7.123 -0.0350 -0.0147  0.0696
   39POPC   H7X 5277   1.168   4.135   7.127  3.0991  0.1179  2.9541
   39POPC   H7Y 5278   1.277   3.990   7.121  0.7502  2.3128 -0.8305
   39POPC   C38 5279   1.105   3.962   7.244  0.0025 -0.2518 -0.1544
   39POPC   H8X 5280   1.096   3.852   7.242  2.1518 -0.4477 -0.9547
   39POPC   H8Y 5281   1.000   3.997   7.235  0.2822  0.4268 -0.9232
   39POPC   C39 5282   1.170   4.016   7.374  0.6553  0.1380 -0.1976
   39POPC   H9X 5283   1.152   4.123   7.398 -0.9357 -0.1511  0.0094
   39POPC   H9Y 5284   1.278   4.001   7.352  0.5389  0.1637 -0.8227
   39POPC  C310 5285   1.113   3.942   7.497 -0.3559 -0.2162 -0.6847
   39POPC  H10X 5286   1.111   3.835   7.467  0.6483 -0.2762 -0.6019
   39POPC  H10Y 5287   1.007   3.968   7.516 -0.6348 -1.0508 -1.0570
   39POPC  C311 5288   1.202   3.960   7.619 -0.1744  0.1087 -0.1851
   39POPC  H11X 5289   1.205   4.068   7.644  0.3454 -0.1021  0.7042
   39POPC  H11Y 5290   1.305   3.932   7.590  0.4458  1.4484  0.6193
   39POPC  C312 5291   1.150   3.870   7.740  0.4093 -0.0251 -1.1866
   39POPC  H12X 5292   1.167   3.764   7.712 -1.5769 -0.6315 -0.2913
   39POPC  H12Y 5293   1.039   3.878   7.750  0.5784  0.4607  0.5494
   39POPC  C313 5294   1.205   3.884   7.882 -0.3297  0.0165  0.0188
   39POPC  H13X 5295   1.191   3.992   7.902  0.8031 -0.1206  1.8524
   39POPC  H13Y 5296   1.313   3.855   7.885 -0.5060 -0.6822 -0.2875
   39POPC  C314 5297   1.139   3.801   7.996  0.0084 -0.5880 -0.3140
   39POPC  H14X 5298   1.156   3.693   7.972  1.1012  0.0908 -2.9153
   39POPC  H14Y 5299   1.028   3.808   7.990  0.0710  1.1661  0.2278
   39POPC  C315 5300   1.189   3.840   8.133  0.4335 -0.1175 -0.4717
   39POPC  H15X 5301   1.195   3.950   8.143  0.6290 -0.2498  1.2171
   39POPC  H15Y 5302   1.294   3.804   8.144  0.7529  0.9883  0.2974
   39POPC  C316 5303   1.109   3.794   8.259 -0.7396  0.0301 -0.3749
   39POPC  H16X 5304   1.039   3.878   8.277 -0.8005  0.1616 -1.2080
   39POPC  H16Y 5305   1.180   3.794   8.345  1.0699  0.9868 -1.7951
   39POPC  H16Z 5306   1.045   3.704   8.248 -0.1455 -0.5311  0.5729
   40POPC     N 5307   0.992   2.832   6.147 -0.0517 -0.1913 -0.4771
   40POPC   C12 5308   0.875   2.832   6.239  0.4088  0.7616  0.6337
   40POPC  H12A 5309   0.823   2.738   6.241 -0.0017  0.6492 -4.0685
   40POPC  H12B 5310   0.797   2.904   6.219 -3.1392 -2.7278  0.9494
   40POPC   C13 5311   1.056   2.967   6.142 -0.2079  0.0641  0.0381
   40POPC  H13A 5312   1.144   2.969   6.079  0.0169  0.5512  0.3636
   40POPC  H13B 5313   0.992   3.046   6.105 -0.8835 -0.6299 -0.3005
   40POPC  H13C 5314   1.065   2.989   6.247  2.4044  1.4071 -0.3895
   40POPC   C14 5315   1.102   2.738   6.191  0.2519  0.6845  0.6977
   40POPC  H14A 5316   1.189   2.740   6.127 -0.9566 -1.5538 -1.1683
   40POPC  H14B 5317   1.136   2.755   6.293 -0.4825  1.3089  0.8422
   40POPC  H14C 5318   1.068   2.635   6.188 -2.3015  1.4880 -0.9169
   40POPC   C15 5319   0.959   2.802   6.008 -0.0987 -0.3685  0.6557
   40POPC  H15A 5320   0.943   2.888   5.945 -0.5333 -0.3488  0.7896
   40POPC  H15B 5321   0.858   2.764   6.005 -0.2767  0.0807 -3.1286
   40POPC  H15C 5322   1.025   2.727   5.967 -1.2918 -0.8499 -0.4290
   40POPC   C11 5323   0.922   2.852   6.385  0.7107 -0.4964  0.2513
   40POPC  H11A 5324   0.984   2.945   6.393  2.0556 -1.3748  0.3748
   40POPC  H11B 5325   0.985   2.773   6.429  0.0523 -1.1236  0.0749
   40POPC     P 5326   0.727   2.752   6.519 -0.1649  0.2660  0.8606
   40POPC   O13 5327   0.728   2.651   6.410  0.0440  0.5703  0.3759
   40POPC   O14 5328   0.592   2.806   6.548  0.6019  1.1471  0.0722
   40POPC   O12 5329   0.801   2.875   6.471 -0.7204  0.6190  0.0767
   40POPC   O11 5330   0.806   2.707   6.647  0.0505 -0.4091  0.1602
   40POPC    C1 5331   0.881   2.782   6.737 -1.0852 -0.3503 -0.1794
   40POPC    HA 5332   0.846   2.888   6.741  0.4320  0.1780  3.6489
   40POPC    HB 5333   0.991   2.787   6.722 -0.7969 -2.2608  1.0676
   40POPC    C2 5334   0.851   2.748   6.892 -0.3085 -0.8646  0.5540
   40POPC    HS 5335   0.900   2.830   6.949 -0.5944 -0.2565 -0.0715
   40POPC   O21 5336   0.890   2.612   6.933 -0.0089  0.2922  0.1313
   40POPC   C21 5337   1.019   2.608   6.965  0.2139 -0.1214 -0.2584
   40POPC   O22 5338   1.090   2.706   6.971  0.5729 -0.0263 -0.4391
   40POPC   C22 5339   1.060   2.462   6.994 -0.6645  0.2684 -0.0878
   40POPC   H2R 5340   1.102   2.431   6.896 -0.4846 -2.2226  0.7018
   40POPC   H2S 5341   0.968   2.401   7.009 -0.5874  0.2228  0.2006
   40POPC    C3 5342   0.704   2.763   6.920  0.4185  0.4059  0.3434
   40POPC    HX 5343   0.653   2.678   6.870  3.5270 -2.9128  2.3676
   40POPC    HY 5344   0.676   2.861   6.874  0.9785  0.9694  1.1718
   40POPC   O31 5345   0.682   2.777   7.058  0.2405  0.1943 -0.1539
   40POPC   C31 5346   0.602   2.689   7.118  0.1052  0.0946 -0.1175
   40POPC   O32 5347   0.543   2.600   7.061  0.1386 -0.5452 -0.1771
   40POPC   C32 5348   0.599   2.699   7.271  0.0567  0.1074 -0.4045
   40POPC   H2X 5349   0.545   2.793   7.297  0.4135  0.1713  0.0993
   40POPC   H2Y 5350   0.700   2.722   7.309 -0.6939 -1.1230  2.5573
   40POPC   C23 5351   1.179   2.453   7.093 -0.1265  0.0859 -0.6356
   40POPC   H3R 5352   1.251   2.536   7.080 -1.0891  0.8279 -1.4484
   40POPC   H3S 5353   1.235   2.363   7.058  1.6557  0.8903  0.0360
   40POPC   C24 5354   1.130   2.425   7.236 -0.4779 -0.0269  0.4547
   40POPC   H4R 5355   1.145   2.317   7.257  1.6128  0.7713  4.0035
   40POPC   H4S 5356   1.019   2.431   7.239 -0.6727 -1.6470 -1.2768
   40POPC   C25 5357   1.190   2.506   7.352  0.2678 -0.1472 -0.6339
   40POPC   H5R 5358   1.180   2.617   7.342  1.0126  0.0596  0.6533
   40POPC   H5S 5359   1.294   2.477   7.378 -0.4774 -2.0975  0.3073
   40POPC   C26 5360   1.120   2.473   7.484  0.1933  0.2359 -1.1269
   40POPC   H6R 5361   1.015   2.504   7.462 -0.6084 -1.8886 -0.5599
   40POPC   H6S 5362   1.162   2.541   7.560 -1.1305  0.8364 -0.9019
   40POPC   C27 5363   1.131   2.322   7.527 -0.0385  0.3101 -0.3831
   40POPC   H7R 5364   1.235   2.281   7.536  0.4421  1.1539 -1.8150
   40POPC   H7S 5365   1.097   2.257   7.443  1.6720 -1.0208 -0.1168
   40POPC   C28 5366   1.030   2.287   7.636  0.1810 -0.2640  0.2157
   40POPC   H8R 5367   1.029   2.177   7.655  1.1454 -0.8816 -2.7704
   40POPC   H8S 5368   0.926   2.320   7.614  0.9842  0.6648 -2.5332
   40POPC   C29 5369   1.080   2.355   7.764  0.5587  0.3243 -0.2126
   40POPC   H91 5370   1.177   2.407   7.759  1.6885 -1.7452 -1.3965
   40POPC  C210 5371   1.026   2.364   7.886  0.2054 -0.1530 -0.0763
   40POPC  H101 5372   1.070   2.437   7.955  0.3176  1.3765 -1.7132
   40POPC  C211 5373   0.896   2.301   7.935 -0.2590 -1.0283 -0.2965
   40POPC  H11R 5374   0.814   2.320   7.863 -0.7740  0.0774  0.5492
   40POPC  H11S 5375   0.856   2.337   8.032 -0.7968 -2.4602  0.0387
   40POPC  C212 5376   0.916   2.147   7.965  0.3973 -0.6060 -0.2434
   40POPC  H12R 5377   1.012   2.134   8.018 -0.2681 -1.0145  0.8982
   40POPC  H12S 5378   0.911   2.082   7.874  0.5727  0.8599 -1.3441
   40POPC  C213 5379   0.807   2.091   8.050  0.2212  0.0480  0.2013
   40POPC  H13R 5380   0.816   1.981   8.035 -2.4819 -0.1491 -0.4761
   40POPC  H13S 5381   0.708   2.111   8.003 -0.1078 -0.9658  0.4339
   40POPC  C214 5382   0.808   2.142   8.195  0.1788 -0.0716  0.0483
   40POPC  H14R 5383   0.759   2.241   8.206 -1.2407 -0.8046  0.6244
   40POPC  H14S 5384   0.915   2.156   8.222  0.2650  3.8655 -1.6097
   40POPC  C215 5385   0.727   2.042   8.282 -0.1304 -0.0479 -0.5517
   40POPC  H15R 5386   0.793   1.953   8.294  0.2783 -0.0721 -2.5756
   40POPC  H15S 5387   0.631   2.019   8.231 -1.2915  1.7256  0.7313
   40POPC  C216 5388   0.703   2.084   8.434  0.3104 -0.1557  0.5879
   40POPC  H16R 5389   0.786   2.148   8.470 -0.5908  1.7981 -0.5789
   40POPC  H16S 5390   0.685   1.996   8.498  1.0817 -0.8142 -0.0857
   40POPC  C217 5391   0.570   2.171   8.461  0.5943  0.2122  0.2169
   40POPC  H17R 5392   0.480   2.107   8.445  1.8137 -1.6643  0.5881
   40POPC  H17S 5393   0.567   2.257   8.390 -0.3408  0.6353  0.7404
   40POPC  C218 5394   0.574   2.214   8.607  0.4028 -0.4038  0.3880
   40POPC  H18R 5395   0.607   2.131   8.674  0.5566  0.6123  1.5911
   40POPC  H18S 5396   0.470   2.207   8.647  0.9803  0.8055  2.2005
   40POPC  H18T 5397   0.635   2.301   8.638 -0.8360  0.4921  0.4135
   40POPC   C33 5398   0.557   2.571   7.353  0.0739 -0.1442  0.0765
   40POPC   H3X 5399   0.622   2.490   7.313  1.5026  1.3462 -0.7836
   40POPC   H3Y 5400   0.449   2.549   7.346  0.0996 -0.3843  0.4549
   40POPC   C34 5401   0.574   2.589   7.504 -0.0209 -0.3709  0.7147
   40POPC   H4X 5402   0.678   2.619   7.527  0.2464  0.0164 -0.8655
   40POPC   H4Y 5403   0.572   2.492   7.557  0.0203  0.1566  1.6931
   40POPC   C35 5404   0.469   2.684   7.568 -0.1128 -0.2052  0.0373
   40POPC   H5X 5405   0.476   2.778   7.509 -0.5511 -0.0317  0.2649
   40POPC   H5Y 5406   0.504   2.687   7.673 -0.1152 -3.0065  0.1795
   40POPC   C36 5407   0.324   2.633   7.560 -0.1851  0.3162 -0.7549
   40POPC   H6X 5408   0.332   2.524   7.581  3.9272  0.3804 -1.1731
   40POPC   H6Y 5409   0.271   2.634   7.463 -3.3673  0.8217  0.8501
   40POPC   C37 5410   0.221   2.695   7.660 -0.2254  0.4253 -0.2146
   40POPC   H7X 5411   0.128   2.635   7.664 -0.3207  0.5239 -0.9128
   40POPC   H7Y 5412   0.186   2.791   7.617  2.1807  1.3569 -0.2683
   40POPC   C38 5413   0.285   2.733   7.797 -0.5629  0.1501 -0.0755
   40POPC   H8X 5414   0.349   2.821   7.777 -1.5061  0.8769  0.0680
   40POPC   H8Y 5415   0.346   2.650   7.841  1.7092  1.6207 -0.2787
   40POPC   C39 5416   0.193   2.778   7.903 -0.5540  0.4418 -0.1647
   40POPC   H9X 5417   0.120   2.695   7.914 -0.1930  0.3714  2.2885
   40POPC   H9Y 5418   0.151   2.878   7.875  2.4109  1.3574 -1.8081
   40POPC  C310 5419   0.262   2.793   8.042 -0.1312  0.3880 -0.2389
   40POPC  H10X 5420   0.350   2.860   8.031  0.2069 -0.0082  0.0359
   40POPC  H10Y 5421   0.303   2.699   8.086  1.7587  0.4947 -1.6541
   40POPC  C311 5422   0.178   2.852   8.164 -0.1188 -0.0742 -0.2764
   40POPC  H11X 5423   0.134   2.930   8.098  2.5332  0.1670 -1.9164
   40POPC  H11Y 5424   0.244   2.901   8.239  0.3581 -0.7321 -0.2522
   40POPC  C312 5425   0.067   2.770   8.218 -0.1078  0.2540  0.2260
   40POPC  H12X 5426   0.030   2.701   8.140  0.5223  0.7507 -0.5265
   40POPC  H12Y 5427  -0.013   2.848   8.227  0.8772  1.4576 -1.0437
   40POPC  C313 5428   0.104   2.715   8.356 -0.4032 -0.2384  0.3232
   40POPC  H13X 5429   0.013   2.695   8.417  0.1328  1.2625  1.6983
   40POPC  H13Y 5430   0.157   2.799   8.407 -0.4293  0.7861 -1.2722
   40POPC  C314 5431   0.197   2.594   8.359 -0.6184 -0.0026  0.2892
   40POPC  H14X 5432   0.295   2.636   8.329 -0.6112 -1.2387 -1.6012
   40POPC  H14Y 5433   0.182   2.503   8.296  2.8568 -3.0297  3.3691
   40POPC  C315 5434   0.210   2.538   8.496 -0.5469  0.3467  0.3060
   40POPC  H15X 5435   0.114   2.499   8.536  0.0977  0.3732  1.9698
   40POPC  H15Y 5436   0.232   2.626   8.562 -1.0566  0.8218 -0.1515
   40POPC  C316 5437   0.297   2.410   8.517  0.1793  0.3695  0.5461
   40POPC  H16X 5438   0.248   2.334   8.452  1.0501  0.8284 -0.6841
   40POPC  H16Y 5439   0.293   2.369   8.620 -4.3755 -1.3524 -0.0641
   40POPC  H16Z 5440   0.402   2.435   8.493 -0.4188  1.7364 -0.8233
   41CHL1    C3 5441   1.943   0.057   9.745  0.9369 -0.0078  0.2106
   41CHL1    H3 5442   1.864  -0.021   9.740  0.5574  0.2078  2.0984
   41CHL1    O3 5443   1.955   0.066   9.885 -0.5479  0.2219 -0.3541
   41CHL1   H3' 5444   1.862   0.074   9.910 -0.2137 -3.4942  3.1276
   41CHL1    C4 5445   2.085   0.021   9.684 -0.2641 -0.0002 -0.3129
   41CHL1   H4A 5446   2.161   0.084   9.734 -1.2111 -0.4952  1.8872
   41CHL1   H4B 5447   2.110  -0.078   9.728 -1.3361 -0.0070  0.3380
   41CHL1    C5 5448   2.099   0.026   9.538  0.1747 -0.2365 -0.3589
   41CHL1    C6 5449   2.144  -0.070   9.460  0.0323 -0.7420 -0.2979
   41CHL1    H6 5450   2.185  -0.158   9.511 -0.9933 -1.3964 -0.5615
   41CHL1    C7 5451   2.138  -0.070   9.313  0.2571 -0.5142  0.1497
   41CHL1   H7A 5452   2.229  -0.118   9.273  0.5487 -0.3572  0.6225
   41CHL1   H7B 5453   2.048  -0.130   9.284  0.1168  0.7537 -2.2958
   41CHL1    C8 5454   2.118   0.073   9.243  0.0974  0.3154 -0.3624
   41CHL1    H8 5455   2.205   0.136   9.269 -0.1508 -0.0541  1.5228
   41CHL1   C14 5456   2.103   0.064   9.087 -0.8946 -0.1121  0.1340
   41CHL1   H14 5457   2.023  -0.012   9.079 -0.0892 -1.2512  2.1729
   41CHL1   C15 5458   2.217   0.011   9.002 -0.2508  0.4343  0.1104
   41CHL1  H15A 5459   2.314   0.052   9.036  0.4281  1.6901 -2.9991
   41CHL1  H15B 5460   2.215  -0.100   9.007 -1.0127  0.4729  1.1473
   41CHL1   C16 5461   2.191   0.067   8.863 -0.5451  0.6631 -0.3639
   41CHL1  H16A 5462   2.291   0.112   8.843 -0.0342  0.1009  0.8432
   41CHL1  H16B 5463   2.174  -0.022   8.798  1.0645 -1.8889  2.4820
   41CHL1   C17 5464   2.079   0.169   8.871 -0.0957 -0.3323 -0.2211
   41CHL1   H17 5465   1.989   0.107   8.849 -0.6561  0.7223 -0.9562
   41CHL1   C13 5466   2.066   0.195   9.024  0.5033 -0.3308  0.1862
   41CHL1   C18 5467   2.176   0.298   9.049  0.3139 -0.4408 -0.6379
   41CHL1  H18A 5468   2.275   0.264   9.012 -0.7517 -1.2718 -2.9396
   41CHL1  H18B 5469   2.154   0.392   8.994  0.1618  0.3202  0.6765
   41CHL1  H18C 5470   2.195   0.335   9.152  0.5096  2.4066 -1.6064
   41CHL1   C12 5471   1.940   0.245   9.090  0.1555  1.0958  0.5764
   41CHL1  H12A 5472   1.911   0.343   9.046 -0.5600  1.5841  2.0589
   41CHL1  H12B 5473   1.853   0.188   9.052  0.1191  1.6438 -0.1966
   41CHL1   C11 5474   1.952   0.261   9.239 -0.3504 -0.5405 -0.0951
   41CHL1  H11A 5475   2.011   0.352   9.266 -0.7862 -0.8445  2.0803
   41CHL1  H11B 5476   1.846   0.270   9.270 -0.5167  0.9447 -0.9933
   41CHL1    C9 5477   2.003   0.136   9.316 -0.8315  0.0620 -0.3218
   41CHL1    H9 5478   1.919   0.065   9.310 -0.7601  0.0162 -0.8930
   41CHL1   C10 5479   2.029   0.150   9.470  0.6121 -0.2797  0.3706
   41CHL1   C19 5480   2.121   0.270   9.506  0.2326 -1.0637 -0.1890
   41CHL1  H19A 5481   2.060   0.357   9.474  0.2623 -0.1737  2.0717
   41CHL1  H19B 5482   2.145   0.275   9.614 -2.6092 -0.4085  0.5124
   41CHL1  H19C 5483   2.216   0.267   9.449  0.3195 -1.3901 -0.0275
   41CHL1    C1 5484   1.889   0.173   9.536  0.1242 -0.6148 -0.4075
   41CHL1   H1A 5485   1.845   0.268   9.498  0.7178  0.0538  0.5575
   41CHL1   H1B 5486   1.819   0.090   9.511 -1.7686  0.9647 -0.5572
   41CHL1    C2 5487   1.882   0.186   9.684 -0.2287 -0.3869 -0.7409
   41CHL1   H2A 5488   1.779   0.190   9.726  0.8284  2.0227  2.0135
   41CHL1   H2B 5489   1.941   0.268   9.731  0.3310 -1.4391  0.4768
   41CHL1   C20 5490   2.078   0.273   8.759 -0.0795 -0.2415  0.7658
   41CHL1   H20 5491   2.150   0.354   8.782  0.7555 -1.0886  1.1783
   41CHL1   C21 5492   1.933   0.331   8.744  0.1506 -0.3375 -0.2733
   41CHL1  H21A 5493   1.919   0.412   8.669  1.2879  0.4718  0.3496
   41CHL1  H21B 5494   1.898   0.376   8.840  2.3809 -0.9067  0.8667
   41CHL1  H21C 5495   1.861   0.248   8.726  1.1103 -0.8231 -2.0538
   41CHL1   C22 5496   2.138   0.226   8.618 -0.0141  0.0171 -0.1050
   41CHL1  H22A 5497   2.247   0.247   8.632 -0.3534  1.0294  1.2212
   41CHL1  H22B 5498   2.111   0.123   8.587  1.3764 -0.2548 -0.5179
   41CHL1   C23 5499   2.111   0.322   8.495  0.6857  0.0530 -0.0289
   41CHL1  H23A 5500   2.008   0.289   8.470  1.3756 -2.9462  0.5826
   41CHL1  H23B 5501   2.116   0.431   8.512  1.3820  0.0839 -0.3649
   41CHL1   C24 5502   2.198   0.275   8.380  0.4150 -0.6597  0.1143
   41CHL1  H24A 5503   2.306   0.283   8.405  0.6875  0.7985 -1.3862
   41CHL1  H24B 5504   2.198   0.167   8.355  2.0983 -0.5048 -0.6656
   41CHL1   C25 5505   2.186   0.356   8.248 -0.8536 -0.0368  0.1804
   41CHL1   H25 5506   2.195   0.462   8.281 -2.4242  0.4318 -0.7350
   41CHL1   C26 5507   2.287   0.319   8.141  0.1728  0.5743 -0.5424
   41CHL1  H26A 5508   2.264   0.225   8.086 -1.8333  1.7016 -1.7460
   41CHL1  H26B 5509   2.283   0.398   8.063  0.7847 -0.1623 -1.3431
   41CHL1  H26C 5510   2.390   0.316   8.182 -1.0202  0.3339  2.7369
   41CHL1   C27 5511   2.040   0.353   8.192 -0.3907 -0.2121 -0.1076
   41CHL1  H27A 5512   1.982   0.417   8.262 -0.8383  0.3858 -1.0079
   41CHL1  H27B 5513   2.017   0.386   8.089 -0.9345  2.4602  0.7841
   41CHL1  H27C 5514   2.016   0.244   8.192 -1.1515 -0.0570  0.5833
   42CHL1    C3 5515   2.215   5.877   9.815  0.6106 -0.0096 -0.1579
   42CHL1    H3 5516   2.129   5.846   9.751  1.3729 -2.4164 -0.1228
   42CHL1    O3 5517   2.198   5.789   9.924 -0.2939  0.0197  0.0451
   42CHL1   H3' 5518   2.278   5.796   9.976  0.3825 -2.6243 -0.4752
   42CHL1    C4 5519   2.344   5.824   9.737 -0.4112 -0.9958  0.3121
   42CHL1   H4A 5520   2.426   5.822   9.812 -0.0544 -0.4189 -0.0523
   42CHL1   H4B 5521   2.326   5.715   9.720 -2.0377 -0.4424 -2.1219
   42CHL1    C5 5522   2.379   5.902   9.613 -0.3437  0.2610 -0.5124
   42CHL1    C6 5523   2.400   5.837   9.498 -0.4663 -0.5568  0.2307
   42CHL1    H6 5524   2.405   5.728   9.495  0.7135 -0.5303  0.5728
   42CHL1    C7 5525   2.430   5.918   9.373  0.6582  0.2319  0.1993
   42CHL1   H7A 5526   2.506   5.862   9.315  1.6338  0.1583  1.5041
   42CHL1   H7B 5527   2.338   5.928   9.311  1.7258  1.6051 -1.2377
   42CHL1    C8 5528   2.471   6.068   9.394 -1.2954  0.1180  0.4354
   42CHL1    H8 5529   2.568   6.074   9.447 -0.0953  2.6086 -1.7781
   42CHL1   C14 5530   2.469   6.142   9.256 -0.1953 -0.2362 -0.6046
   42CHL1   H14 5531   2.371   6.133   9.205 -0.6925  0.8091  0.1430
   42CHL1   C15 5532   2.562   6.090   9.149  0.0547 -0.1177  0.4134
   42CHL1  H15A 5533   2.661   6.092   9.199 -0.6497  1.2889  1.8465
   42CHL1  H15B 5534   2.536   5.995   9.097  0.0406  0.3447 -0.4460
   42CHL1   C16 5535   2.574   6.208   9.052  0.9829  0.4251  0.4921
   42CHL1  H16A 5536   2.681   6.235   9.048  1.4017 -1.1875 -0.2178
   42CHL1  H16B 5537   2.534   6.171   8.955 -0.9395 -1.4885  1.9210
   42CHL1   C17 5538   2.487   6.323   9.114  0.1499  0.6090 -0.5191
   42CHL1   H17 5539   2.384   6.310   9.075 -1.3755  4.1004  1.8802
   42CHL1   C13 5540   2.493   6.288   9.265  0.1929 -0.4272  0.9075
   42CHL1   C18 5541   2.645   6.326   9.317  0.3179  0.2795 -0.2022
   42CHL1  H18A 5542   2.720   6.274   9.253  1.7715  1.5106  0.4592
   42CHL1  H18B 5543   2.668   6.434   9.312 -0.0247  0.6642  3.6857
   42CHL1  H18C 5544   2.654   6.286   9.420 -3.8951 -1.3603 -0.2779
   42CHL1   C12 5545   2.380   6.348   9.354  0.0483 -0.2085 -0.5050
   42CHL1  H12A 5546   2.388   6.459   9.365  2.4437 -0.4310  0.5074
   42CHL1  H12B 5547   2.277   6.324   9.318  0.4586 -0.9752 -1.2022
   42CHL1   C11 5548   2.382   6.290   9.497 -0.1922  0.2232  0.1650
   42CHL1  H11A 5549   2.477   6.327   9.542 -1.4826  2.1744  1.4724
   42CHL1  H11B 5550   2.295   6.339   9.547  0.8254  2.9816 -0.5968
   42CHL1    C9 5551   2.366   6.132   9.497  0.0289 -0.1206  0.4854
   42CHL1    H9 5552   2.264   6.117   9.455 -0.3826  3.3014 -0.0693
   42CHL1   C10 5553   2.376   6.059   9.633 -0.3973 -0.1347 -0.4534
   42CHL1   C19 5554   2.509   6.089   9.704 -0.2125 -0.3988  0.0861
   42CHL1  H19A 5555   2.517   6.040   9.803 -0.9927  0.6473  0.6875
   42CHL1  H19B 5556   2.594   6.063   9.637 -1.4004 -1.9088 -0.9211
   42CHL1  H19C 5557   2.532   6.198   9.714  0.8439 -0.5094 -0.8234
   42CHL1    C1 5558   2.254   6.104   9.719  1.0520  0.9653 -0.4951
   42CHL1   H1A 5559   2.254   6.209   9.753  1.0451  0.7228  0.2710
   42CHL1   H1B 5560   2.167   6.085   9.653  1.1618 -2.2367  0.0942
   42CHL1    C2 5561   2.225   6.022   9.854 -0.5956 -0.0454  0.0413
   42CHL1   H2A 5562   2.125   6.056   9.890 -0.4853 -1.2571  1.5485
   42CHL1   H2B 5563   2.292   6.035   9.941  0.2964  0.2191 -0.6728
   42CHL1   C20 5564   2.544   6.461   9.068  0.5965  0.1441 -0.2437
   42CHL1   H20 5565   2.647   6.485   9.100 -0.1732  0.6096  2.0126
   42CHL1   C21 5566   2.454   6.576   9.125  0.4804  0.4998 -0.4275
   42CHL1  H21A 5567   2.460   6.573   9.235 -0.7154 -2.1079 -0.3548
   42CHL1  H21B 5568   2.349   6.548   9.098  0.3354 -0.8543  1.3456
   42CHL1  H21C 5569   2.481   6.676   9.087  0.1905  0.5316 -0.5589
   42CHL1   C22 5570   2.542   6.469   8.910  0.1474  0.0239  0.4338
   42CHL1  H22A 5571   2.616   6.395   8.873  0.2053  0.3225 -0.0523
   42CHL1  H22B 5572   2.437   6.446   8.881 -0.0436  2.4997 -1.0921
   42CHL1   C23 5573   2.582   6.600   8.840  0.5952  0.4390  0.2017
   42CHL1  H23A 5574   2.512   6.683   8.866  2.4207  2.0352  0.2716
   42CHL1  H23B 5575   2.678   6.639   8.881  1.2202 -1.2397  0.3897
   42CHL1   C24 5576   2.604   6.589   8.686  0.3644 -0.6846 -0.0459
   42CHL1  H24A 5577   2.692   6.523   8.669  0.3603 -1.1434  1.5872
   42CHL1  H24B 5578   2.513   6.561   8.629  1.2143 -1.7999 -0.9045
   42CHL1   C25 5579   2.655   6.725   8.631  0.1796  0.0310  0.4372
   42CHL1   H25 5580   2.725   6.771   8.704 -0.4007 -3.2125  3.2684
   42CHL1   C26 5581   2.730   6.711   8.494  0.2622  0.3321  0.2807
   42CHL1  H26A 5582   2.758   6.810   8.451  0.9757 -0.0485 -0.1403
   42CHL1  H26B 5583   2.815   6.640   8.492 -0.0311 -0.0066 -0.9891
   42CHL1  H26C 5584   2.650   6.665   8.432 -0.8067  1.1142  1.0545
   42CHL1   C27 5585   2.539   6.825   8.615  0.5248  0.1279 -0.4167
   42CHL1  H27A 5586   2.450   6.783   8.563 -0.7304 -0.3767  2.0031
   42CHL1  H27B 5587   2.504   6.853   8.717 -0.4753 -0.4006 -0.6039
   42CHL1  H27C 5588   2.574   6.917   8.563  0.0416  1.1370  0.9822
   43CHL1    C3 5589   2.718   6.132  10.090 -0.1528  0.0770 -0.6347
   43CHL1    H3 5590   2.622   6.134  10.035 -1.2757  0.0355  1.2375
   43CHL1    O3 5591   2.705   6.153  10.233  0.3033 -0.6187 -0.1116
   43CHL1   H3' 5592   2.790   6.167  10.274 -0.2221  0.2245  0.7372
   43CHL1    C4 5593   2.780   5.989  10.071 -0.4074 -0.1427 -0.0521
   43CHL1   H4A 5594   2.875   5.989  10.128 -1.8089  1.0368  2.4311
   43CHL1   H4B 5595   2.715   5.910  10.114 -1.1065 -0.1027 -1.0230
   43CHL1    C5 5596   2.804   5.967   9.922 -0.5016  0.2412  0.3851
   43CHL1    C6 5597   2.749   5.872   9.854  1.2506  0.1092 -0.1592
   43CHL1    H6 5598   2.687   5.798   9.906  2.6899 -1.8997 -1.1816
   43CHL1    C7 5599   2.777   5.847   9.708  0.2758  0.4472  0.2776
   43CHL1   H7A 5600   2.796   5.741   9.680 -1.4407  0.1054  0.3146
   43CHL1   H7B 5601   2.685   5.865   9.648  0.1944 -0.9410 -0.0570
   43CHL1    C8 5602   2.891   5.929   9.646  0.6081 -0.3865 -0.1993
   43CHL1    H8 5603   2.978   5.864   9.669  1.6539  0.6170 -1.1630
   43CHL1   C14 5604   2.878   5.941   9.495  0.4328  0.0580 -0.1112
   43CHL1   H14 5605   2.791   6.007   9.477  0.5953  0.3319  0.1102
   43CHL1   C15 5606   2.864   5.810   9.412  0.2657 -0.9987 -0.2405
   43CHL1  H15A 5607   2.925   5.727   9.454  2.8155  0.4465 -0.8346
   43CHL1  H15B 5608   2.755   5.792   9.407  0.0188  0.2765  0.0546
   43CHL1   C16 5609   2.904   5.844   9.272 -0.1556  0.3533 -0.2513
   43CHL1  H16A 5610   2.970   5.763   9.233  0.1955  0.4057  0.2254
   43CHL1  H16B 5611   2.817   5.832   9.204 -0.5990  0.5740  0.2706
   43CHL1   C17 5612   2.957   5.986   9.277  1.0088 -0.1026  0.2769
   43CHL1   H17 5613   2.872   6.052   9.250 -0.0649 -1.0047  1.2912
   43CHL1   C13 5614   2.993   6.008   9.429 -0.3095 -0.8059  0.3937
   43CHL1   C18 5615   3.117   5.922   9.454 -0.2321  0.5013 -0.0751
   43CHL1  H18A 5616   3.120   5.826   9.399  0.4913  0.7438 -0.4799
   43CHL1  H18B 5617   3.214   5.970   9.426 -0.6828  0.5654 -1.6092
   43CHL1  H18C 5618   3.137   5.905   9.562  0.3772 -1.6352 -0.4848
   43CHL1   C12 5619   3.017   6.150   9.474 -0.2944 -0.4238  0.1979
   43CHL1  H12A 5620   3.117   6.184   9.440 -1.0207  1.3151 -0.2721
   43CHL1  H12B 5621   2.944   6.224   9.436  1.5689  0.6133 -1.5417
   43CHL1   C11 5622   3.016   6.154   9.634 -0.1320  0.0149 -0.0868
   43CHL1  H11A 5623   3.114   6.110   9.661  0.0527  1.2622  1.4039
   43CHL1  H11B 5624   3.021   6.260   9.666 -0.8122 -0.3876  1.4899
   43CHL1    C9 5625   2.903   6.065   9.702 -0.6278 -0.7028 -0.5575
   43CHL1    H9 5626   2.812   6.114   9.660 -0.9009 -0.9056 -0.2164
   43CHL1   C10 5627   2.892   6.075   9.853 -0.7839 -0.6570 -0.1765
   43CHL1   C19 5628   3.035   6.051   9.921  0.0537 -0.0114  1.2599
   43CHL1  H19A 5629   3.112   6.112   9.870  1.2954 -1.5141  1.2529
   43CHL1  H19B 5630   3.035   6.078  10.028 -0.9249  0.9146  1.0445
   43CHL1  H19C 5631   3.072   5.949   9.896 -0.3538  0.0043  0.5483
   43CHL1    C1 5632   2.845   6.214   9.884 -0.0105  0.1047 -0.0371
   43CHL1   H1A 5633   2.937   6.271   9.858  0.4373 -0.0497  1.1392
   43CHL1   H1B 5634   2.764   6.236   9.811  1.2437  0.4263 -1.3913
   43CHL1    C2 5635   2.809   6.244  10.029 -0.2932  0.2254  0.6841
   43CHL1   H2A 5636   2.757   6.343  10.033  1.8473  1.4781 -0.6461
   43CHL1   H2B 5637   2.901   6.257  10.089  1.0050  1.5704 -1.4500
   43CHL1   C20 5638   3.060   6.029   9.176  0.3027  0.6090  0.5184
   43CHL1   H20 5639   3.161   6.017   9.220  0.6906  1.2400 -0.1694
   43CHL1   C21 5640   3.041   6.184   9.149  0.3393 -0.3974  0.0383
   43CHL1  H21A 5641   2.945   6.199   9.094 -0.0890 -3.8311 -0.3331
   43CHL1  H21B 5642   3.126   6.217   9.086 -0.3925  0.0457 -0.7404
   43CHL1  H21C 5643   3.057   6.241   9.243  0.1655  2.4182 -1.5309
   43CHL1   C22 5644   3.053   5.954   9.039  0.0598  0.7216 -0.4426
   43CHL1  H22A 5645   3.062   5.843   9.051  1.4893  0.9129  0.4615
   43CHL1  H22B 5646   2.951   5.969   8.997 -0.6651 -1.0931  0.5242
   43CHL1   C23 5647   3.172   5.982   8.942 -0.2415  0.2074 -0.0230
   43CHL1  H23A 5648   3.159   6.085   8.902 -0.5397 -0.2779 -1.2208
   43CHL1  H23B 5649   3.267   5.983   8.998 -1.2534  0.0278  1.7668
   43CHL1   C24 5650   3.184   5.880   8.824 -0.2161 -0.9454  0.5163
   43CHL1  H24A 5651   3.178   5.777   8.865  1.2953 -0.5665  1.7955
   43CHL1  H24B 5652   3.093   5.901   8.764  0.5044  0.6374 -0.0602
   43CHL1   C25 5653   3.303   5.902   8.737 -0.4980  0.8314 -0.0355
   43CHL1   H25 5654   3.322   6.011   8.729 -1.6854  1.1600  1.2629
   43CHL1   C26 5655   3.426   5.835   8.795 -0.4064  0.1509  0.3098
   43CHL1  H26A 5656   3.519   5.850   8.736 -0.3861  2.8289  0.9065
   43CHL1  H26B 5657   3.443   5.864   8.900  0.1563 -2.3390  0.9862
   43CHL1  H26C 5658   3.409   5.726   8.813 -1.4019  0.2198 -0.1171
   43CHL1   C27 5659   3.274   5.855   8.588 -0.1344 -0.1737 -0.2956
   43CHL1  H27A 5660   3.166   5.874   8.572 -0.2070  2.3062  2.3178
   43CHL1  H27B 5661   3.331   5.911   8.510  1.3396  0.7995  1.3961
   43CHL1  H27C 5662   3.289   5.746   8.577 -1.5213 -0.1942 -2.9670
   44CHL1    C3 5663   3.548   1.704  10.181 -0.2191 -0.8103 -0.3918
   44CHL1    H3 5664   3.630   1.645  10.134 -1.3795 -1.6705 -1.3901
   44CHL1    O3 5665   3.585   1.732  10.314 -0.3673 -0.5038 -0.0677
   44CHL1   H3' 5666   3.507   1.765  10.359  1.3109 -0.1038  2.8127
   44CHL1    C4 5667   3.540   1.840  10.115 -0.5262 -0.0482 -0.1890
   44CHL1   H4A 5668   3.461   1.905  10.159 -1.6463 -0.2139 -1.8708
   44CHL1   H4B 5669   3.637   1.893  10.130 -1.6983  2.3297 -0.5160
   44CHL1    C5 5670   3.514   1.812   9.966  0.3479 -0.0364 -0.6756
   44CHL1    C6 5671   3.600   1.865   9.881  0.0281 -0.0146 -0.1516
   44CHL1    H6 5672   3.691   1.907   9.926  0.2688 -2.2797  1.6551
   44CHL1    C7 5673   3.585   1.845   9.737  0.5086 -0.6638  0.5201
   44CHL1   H7A 5674   3.610   1.937   9.680  0.3346 -1.8205 -1.5160
   44CHL1   H7B 5675   3.662   1.770   9.709 -0.0639 -1.0239 -0.1159
   44CHL1    C8 5676   3.449   1.789   9.686  0.8478  0.5438 -0.4081
   44CHL1    H8 5677   3.381   1.876   9.696  0.3494  0.1546 -0.3602
   44CHL1   C14 5678   3.450   1.739   9.548 -0.1675  0.4830  0.0764
   44CHL1   H14 5679   3.515   1.649   9.548 -0.4984  0.1616 -2.6084
   44CHL1   C15 5680   3.507   1.823   9.427 -0.8523 -0.4527 -0.3305
   44CHL1  H15A 5681   3.470   1.928   9.427  2.9562  1.0558 -0.2861
   44CHL1  H15B 5682   3.617   1.833   9.430 -0.7393 -0.6143 -2.4061
   44CHL1   C16 5683   3.461   1.754   9.301 -0.5951  0.0986 -0.5633
   44CHL1  H16A 5684   3.419   1.825   9.227 -1.1418  0.1459 -0.2200
   44CHL1  H16B 5685   3.555   1.710   9.263  1.0141  0.0366  3.0862
   44CHL1   C17 5686   3.352   1.653   9.350  0.4991 -0.0707  0.0537
   44CHL1   H17 5687   3.407   1.557   9.359  1.6934  0.7153  1.5242
   44CHL1   C13 5688   3.319   1.694   9.496 -0.1317 -0.5000 -0.1678
   44CHL1   C18 5689   3.218   1.806   9.486 -0.1781 -0.2418 -0.1078
   44CHL1  H18A 5690   3.119   1.759   9.469 -0.2874  0.2904 -0.9701
   44CHL1  H18B 5691   3.211   1.858   9.584  3.5617 -2.1239  1.3574
   44CHL1  H18C 5692   3.250   1.878   9.408 -2.2463 -0.0800 -0.8648
   44CHL1   C12 5693   3.263   1.583   9.585  0.2595 -0.1065 -0.4441
   44CHL1  H12A 5694   3.167   1.534   9.557 -0.3267 -0.1211  1.4136
   44CHL1  H12B 5695   3.330   1.497   9.565 -0.2085 -0.7579  0.6919
   44CHL1   C11 5696   3.264   1.621   9.737 -0.4510 -0.7611 -0.0953
   44CHL1  H11A 5697   3.173   1.682   9.755 -1.8289 -2.3244 -1.4085
   44CHL1  H11B 5698   3.263   1.527   9.796  0.7715  0.0965  1.3443
   44CHL1    C9 5699   3.399   1.689   9.786 -0.5848  0.4759 -0.0792
   44CHL1    H9 5700   3.480   1.614   9.781  0.1480  0.9786  2.6180
   44CHL1   C10 5701   3.387   1.723   9.931  0.0856 -0.2769 -0.0033
   44CHL1   C19 5702   3.257   1.802   9.959 -0.0516 -0.2118 -0.7658
   44CHL1  H19A 5703   3.166   1.738   9.962 -0.6844  0.6857  0.0443
   44CHL1  H19B 5704   3.264   1.840  10.063 -0.6467 -3.6807  0.6995
   44CHL1  H19C 5705   3.242   1.885   9.887  0.7422 -0.6420 -1.4365
   44CHL1    C1 5706   3.394   1.598  10.020 -0.0664  0.2187  0.1662
   44CHL1   H1A 5707   3.291   1.557  10.014 -0.5527  0.9762  2.4432
   44CHL1   H1B 5708   3.468   1.523   9.987 -0.2743  0.2517 -0.3831
   44CHL1    C2 5709   3.418   1.624  10.167  0.6136 -1.2805  0.2732
   44CHL1   H2A 5710   3.432   1.529  10.223  1.0423 -0.8466  0.9105
   44CHL1   H2B 5711   3.337   1.678  10.219  0.3999 -0.8396 -0.5068
   44CHL1   C20 5712   3.235   1.635   9.244  0.2075 -0.2338  0.0816
   44CHL1   H20 5713   3.178   1.731   9.244 -0.5618 -0.6121  2.4681
   44CHL1   C21 5714   3.150   1.518   9.286 -0.0971  0.2762 -0.6095
   44CHL1  H21A 5715   3.069   1.491   9.214  0.0601 -1.2214 -0.2718
   44CHL1  H21B 5716   3.093   1.561   9.371  1.6597  0.7320  0.3785
   44CHL1  H21C 5717   3.219   1.434   9.310  0.1968  0.5014 -0.6712
   44CHL1   C22 5718   3.290   1.605   9.107 -0.2018  0.2189  0.0252
   44CHL1  H22A 5719   3.354   1.686   9.065 -0.6691  2.1597  2.7821
   44CHL1  H22B 5720   3.358   1.517   9.112 -1.6173 -0.8708  0.9776
   44CHL1   C23 5721   3.186   1.583   8.992 -0.8074 -0.2058 -0.8510
   44CHL1  H23A 5722   3.129   1.488   8.995 -1.0266 -0.0525 -0.0887
   44CHL1  H23B 5723   3.116   1.668   9.003 -0.5752 -0.0560 -0.5331
   44CHL1   C24 5724   3.253   1.581   8.850 -0.0340  0.2815 -0.3703
   44CHL1  H24A 5725   3.326   1.664   8.845 -2.8952  2.9134 -1.3199
   44CHL1  H24B 5726   3.295   1.480   8.826 -3.1941 -1.2462 -0.0085
   44CHL1   C25 5727   3.149   1.606   8.741 -0.4013 -0.4139 -0.3230
   44CHL1   H25 5728   3.099   1.704   8.759  2.0322  0.6030  1.4442
   44CHL1   C26 5729   3.228   1.611   8.611 -0.4471 -0.3123 -0.3068
   44CHL1  H26A 5730   3.283   1.517   8.587 -0.3984 -0.2935 -0.2708
   44CHL1  H26B 5731   3.154   1.617   8.529  0.0748 -1.1748 -0.8581
   44CHL1  H26C 5732   3.293   1.701   8.614  0.2096 -0.7806 -0.0986
   44CHL1   C27 5733   3.040   1.495   8.736  0.1599  0.4100 -0.1558
   44CHL1  H27A 5734   3.066   1.389   8.718  0.6743  0.2848  1.2090
   44CHL1  H27B 5735   2.977   1.502   8.828  0.6230  0.0636  0.1915
   44CHL1  H27C 5736   2.974   1.527   8.652  1.8479  1.3129 -1.1913
   45CHL1    C3 5737   0.171   0.404  10.068  0.1177 -0.3030  0.3652
   45CHL1    H3 5738   0.080   0.465  10.088  1.2209  1.7237 -0.4164
   45CHL1    O3 5739   0.249   0.388  10.186 -0.3372 -0.3031  0.1943
   45CHL1   H3' 5740   0.310   0.317  10.162 -0.7792  0.3324 -3.2786
   45CHL1    C4 5741   0.125   0.275   9.999 -0.2094 -0.7244  0.0949
   45CHL1   H4A 5742   0.221   0.218   9.996  2.9171  3.8851  1.4494
   45CHL1   H4B 5743   0.057   0.230  10.075 -0.5858 -0.8179 -0.2960
   45CHL1    C5 5744   0.062   0.266   9.865  0.2250 -0.0338  0.2412
   45CHL1    C6 5745  -0.053   0.211   9.831 -0.0303  0.2636  0.0262
   45CHL1    H6 5746  -0.106   0.154   9.910 -1.8474  2.6608  0.6365
   45CHL1    C7 5747  -0.101   0.195   9.693  0.4184 -0.4221  0.0391
   45CHL1   H7A 5748  -0.110   0.087   9.670  0.8434 -0.4608  0.0538
   45CHL1   H7B 5749  -0.202   0.241   9.690 -0.0837 -1.5055 -0.2274
   45CHL1    C8 5750  -0.034   0.273   9.577  0.3710  0.4042  0.1960
   45CHL1    H8 5751  -0.119   0.316   9.519  0.5434  0.2962 -0.1342
   45CHL1   C14 5752   0.031   0.173   9.483  0.4843  0.2133  0.4114
   45CHL1   H14 5753   0.101   0.109   9.541  1.1812  0.5371 -0.0670
   45CHL1   C15 5754  -0.079   0.095   9.415 -0.2239 -0.5234  0.3724
   45CHL1  H15A 5755  -0.042  -0.002   9.374  2.7172  0.8714 -0.5183
   45CHL1  H15B 5756  -0.172   0.073   9.472 -0.0737  1.7130  1.5590
   45CHL1   C16 5757  -0.130   0.176   9.296  0.5394 -0.3759 -0.2244
   45CHL1  H16A 5758  -0.144   0.104   9.212 -1.0799 -1.8447  1.2192
   45CHL1  H16B 5759  -0.231   0.216   9.319 -0.5355 -2.5500 -0.8165
   45CHL1   C17 5760  -0.013   0.280   9.270  0.6122  0.0019 -0.1245
   45CHL1   H17 5761  -0.047   0.374   9.317  1.8937  0.0531  0.7688
   45CHL1   C13 5762   0.104   0.235   9.372  0.0096 -0.1576 -0.1885
   45CHL1   C18 5763   0.195   0.123   9.306 -0.3175  0.0519  0.4081
   45CHL1  H18A 5764   0.248   0.168   9.219 -1.2320 -0.2994 -0.3400
   45CHL1  H18B 5765   0.279   0.096   9.374  0.5884  0.4646 -0.5283
   45CHL1  H18C 5766   0.143   0.028   9.279 -0.7729  0.4052  0.0496
   45CHL1   C12 5767   0.207   0.339   9.414 -0.1886  0.3548  0.2637
   45CHL1  H12A 5768   0.301   0.297   9.455 -0.7214  0.1590  1.3381
   45CHL1  H12B 5769   0.234   0.414   9.336 -0.0984  0.5093  0.4415
   45CHL1   C11 5770   0.142   0.437   9.513 -0.7734 -0.0731 -0.3530
   45CHL1  H11A 5771   0.215   0.517   9.538  0.4143  0.1228 -3.8835
   45CHL1  H11B 5772   0.061   0.487   9.455 -1.7908 -1.2178  0.0335
   45CHL1    C9 5773   0.058   0.384   9.629  0.1127 -0.0292 -0.0273
   45CHL1    H9 5774  -0.018   0.459   9.658  1.4870  0.8607  1.3713
   45CHL1   C10 5775   0.140   0.348   9.761 -0.2601 -0.0485 -0.4993
   45CHL1   C19 5776   0.272   0.274   9.721 -0.0947  0.4384 -0.1783
   45CHL1  H19A 5777   0.246   0.198   9.644  0.4003  1.2103 -1.1160
   45CHL1  H19B 5778   0.339   0.337   9.659  0.7824  0.0523  0.3538
   45CHL1  H19C 5779   0.336   0.248   9.808  4.2525  2.7003 -2.3819
   45CHL1    C1 5780   0.174   0.488   9.824  0.4838  0.5012  0.1887
   45CHL1   H1A 5781   0.238   0.551   9.759  1.3470 -1.3938 -0.8793
   45CHL1   H1B 5782   0.080   0.542   9.847  0.4857  0.4218  0.3835
   45CHL1    C2 5783   0.246   0.483   9.958  0.0819 -0.0877  0.2845
   45CHL1   H2A 5784   0.268   0.585   9.996 -2.9882  1.3947 -1.4739
   45CHL1   H2B 5785   0.341   0.429   9.943 -0.5554 -1.0358 -0.4598
   45CHL1   C20 5786   0.014   0.326   9.129  0.2685 -0.2979 -0.3104
   45CHL1   H20 5787   0.106   0.389   9.133  0.3965 -0.5778  1.8422
   45CHL1   C21 5788  -0.096   0.423   9.079 -0.0408  0.0381  0.2191
   45CHL1  H21A 5789  -0.125   0.493   9.160  0.7645  2.1053 -1.1855
   45CHL1  H21B 5790  -0.190   0.365   9.062  0.7346 -1.4792  0.9679
   45CHL1  H21C 5791  -0.062   0.463   8.981 -1.3133 -0.0170 -0.2672
   45CHL1   C22 5792   0.034   0.207   9.031  0.3651  0.3339  0.5921
   45CHL1  H22A 5793   0.045   0.114   9.091 -1.6507  0.0492  0.5858
   45CHL1  H22B 5794  -0.055   0.181   8.970  0.6909 -1.0573  0.6735
   45CHL1   C23 5795   0.152   0.235   8.948 -0.1949 -0.2576  0.4337
   45CHL1  H23A 5796   0.146   0.339   8.911  3.3780 -0.1304 -0.1243
   45CHL1  H23B 5797   0.242   0.233   9.013 -0.6692 -1.8493  1.0895
   45CHL1   C24 5798   0.168   0.152   8.820 -0.0601 -0.4223 -0.4314
   45CHL1  H24A 5799   0.077   0.165   8.758 -1.8326 -0.9519  1.9207
   45CHL1  H24B 5800   0.264   0.166   8.766  0.8062 -0.4246  1.0558
   45CHL1   C25 5801   0.161   0.004   8.865 -0.1943 -0.0558  0.1185
   45CHL1   H25 5802   0.085  -0.003   8.946  0.7214  1.8450  1.2201
   45CHL1   C26 5803   0.122  -0.092   8.748  0.0730 -0.7312  1.2990
   45CHL1  H26A 5804   0.032  -0.055   8.695  2.8655  0.1972 -3.3930
   45CHL1  H26B 5805   0.200  -0.093   8.669 -1.3460 -1.2137 -0.1291
   45CHL1  H26C 5806   0.114  -0.198   8.779  2.7970 -1.8671 -1.3628
   45CHL1   C27 5807   0.291  -0.043   8.924 -0.4742  0.1616 -0.4118
   45CHL1  H27A 5808   0.264  -0.141   8.968  3.3824 -1.1058 -0.5090
   45CHL1  H27B 5809   0.375  -0.058   8.852  0.8467 -0.1293  1.1429
   45CHL1  H27C 5810   0.332   0.025   9.002  1.6995 -0.5034 -0.8948
   46CHL1    C3 5811   1.270   0.218   9.851 -0.4580  0.6531 -0.4425
   46CHL1    H3 5812   1.161   0.237   9.849 -0.4255  0.8662 -0.1912
   46CHL1    O3 5813   1.295   0.160   9.981 -0.1431  0.0709  0.1733
   46CHL1   H3' 5814   1.338   0.236  10.020  1.2576 -1.3202  1.4754
   46CHL1    C4 5815   1.312   0.118   9.742  0.8163  0.1828  1.1422
   46CHL1   H4A 5816   1.417   0.083   9.757  1.8040  2.0936 -0.7403
   46CHL1   H4B 5817   1.252   0.027   9.760 -1.2552  1.0921 -0.7910
   46CHL1    C5 5818   1.304   0.178   9.608  0.2430  0.0366 -0.2515
   46CHL1    C6 5819   1.225   0.120   9.518 -0.6343  0.3147 -0.1303
   46CHL1    H6 5820   1.173   0.027   9.544  0.9699 -0.8547 -0.9133
   46CHL1    C7 5821   1.234   0.172   9.372 -0.0973  0.7357  0.5484
   46CHL1   H7A 5822   1.253   0.083   9.309 -0.4067 -0.6204  2.2800
   46CHL1   H7B 5823   1.141   0.225   9.340  0.6989  0.4365 -2.5450
   46CHL1    C8 5824   1.357   0.270   9.350 -0.4336 -0.4643 -0.0394
   46CHL1    H8 5825   1.446   0.206   9.367  0.6541  0.9170 -0.3544
   46CHL1   C14 5826   1.345   0.334   9.211  0.0931  0.8860 -0.6028
   46CHL1   H14 5827   1.254   0.398   9.217 -0.3050  0.2436  0.2190
   46CHL1   C15 5828   1.320   0.251   9.092  0.5862  0.0824 -0.0117
   46CHL1  H15A 5829   1.394   0.168   9.089  0.1079 -0.3742  0.3692
   46CHL1  H15B 5830   1.223   0.202   9.068  0.5831 -1.1821  2.2536
   46CHL1   C16 5831   1.360   0.340   8.977  0.1521  0.6327  0.1721
   46CHL1  H16A 5832   1.429   0.292   8.905  0.4821  1.0747  0.1862
   46CHL1  H16B 5833   1.271   0.366   8.915  0.1796 -0.5238 -0.3721
   46CHL1   C17 5834   1.416   0.470   9.041 -0.8092  0.5183 -0.4918
   46CHL1   H17 5835   1.325   0.534   9.042 -0.5755  0.8550 -0.1270
   46CHL1   C13 5836   1.456   0.438   9.188 -0.2212  0.4849 -0.0372
   46CHL1   C18 5837   1.598   0.372   9.200  0.6728  0.1714 -0.7753
   46CHL1  H18A 5838   1.595   0.266   9.165  2.8540  0.1979 -1.1239
   46CHL1  H18B 5839   1.677   0.429   9.147 -0.4745  1.3044 -1.3448
   46CHL1  H18C 5840   1.625   0.361   9.307 -1.3570  2.1484  0.0300
   46CHL1   C12 5841   1.439   0.553   9.284 -1.0258 -0.1159 -0.0161
   46CHL1  H12A 5842   1.519   0.629   9.269 -0.5950 -0.2436  1.4319
   46CHL1  H12B 5843   1.340   0.600   9.268 -1.6525 -0.7526  1.7859
   46CHL1   C11 5844   1.439   0.509   9.426  0.7192  0.1464  0.4831
   46CHL1  H11A 5845   1.543   0.486   9.460  0.1389 -0.3556  2.0177
   46CHL1  H11B 5846   1.392   0.585   9.492  0.5733 -1.0299  1.7893
   46CHL1    C9 5847   1.356   0.376   9.458  0.4050 -0.3983 -0.7727
   46CHL1    H9 5848   1.253   0.416   9.469 -0.0693 -1.3021 -1.7490
   46CHL1   C10 5849   1.389   0.307   9.593 -0.0051 -0.4415  0.5049
   46CHL1   C19 5850   1.540   0.272   9.615 -0.0097  0.0070  0.1802
   46CHL1  H19A 5851   1.613   0.356   9.618  0.6229 -0.5196 -0.2004
   46CHL1  H19B 5852   1.561   0.218   9.709  2.7052  2.1161  0.9281
   46CHL1  H19C 5853   1.558   0.200   9.532 -0.9983  1.3988 -1.3058
   46CHL1    C1 5854   1.345   0.414   9.701  0.2509  0.2167  0.4911
   46CHL1   H1A 5855   1.420   0.496   9.706  3.6723 -2.7209  1.7707
   46CHL1   H1B 5856   1.241   0.444   9.677  0.1112  0.3992  1.3047
   46CHL1    C2 5857   1.342   0.354   9.843  0.0464 -0.5699 -0.4901
   46CHL1   H2A 5858   1.297   0.421   9.919 -1.2691 -2.0812  0.1122
   46CHL1   H2B 5859   1.445   0.331   9.877 -0.2985  0.2147  1.1823
   46CHL1   C20 5860   1.526   0.534   8.953 -0.5051 -0.5984  0.4332
   46CHL1   H20 5861   1.615   0.468   8.944 -0.9873 -1.4624  1.6901
   46CHL1   C21 5862   1.575   0.668   9.005  0.3344  1.0983  0.3085
   46CHL1  H21A 5863   1.482   0.717   9.039 -0.1580  1.1241 -1.0039
   46CHL1  H21B 5864   1.604   0.728   8.916 -0.1308  1.0839  0.1408
   46CHL1  H21C 5865   1.656   0.659   9.080 -1.8341 -1.0828  2.6090
   46CHL1   C22 5866   1.472   0.556   8.808 -0.3277  0.3940 -0.0448
   46CHL1  H22A 5867   1.416   0.468   8.770  2.3263 -1.5367  0.2074
   46CHL1  H22B 5868   1.409   0.648   8.808 -0.3035  0.4884  2.8310
   46CHL1   C23 5869   1.584   0.584   8.706 -0.0382 -0.0718 -0.2476
   46CHL1  H23A 5870   1.616   0.690   8.694  2.0578 -0.6046  0.2364
   46CHL1  H23B 5871   1.674   0.534   8.748 -0.1449  1.8150  2.4942
   46CHL1   C24 5872   1.554   0.528   8.566  0.1259  0.4806  0.3615
   46CHL1  H24A 5873   1.495   0.436   8.587  0.8273  0.5269  2.8736
   46CHL1  H24B 5874   1.506   0.606   8.504  0.9459 -0.0095 -0.9328
   46CHL1   C25 5875   1.677   0.482   8.493  0.2375  0.0616  0.0645
   46CHL1   H25 5876   1.722   0.399   8.553  0.4657  0.8504  1.0058
   46CHL1   C26 5877   1.633   0.424   8.356  0.6356 -0.4847 -0.1787
   46CHL1  H26A 5878   1.559   0.342   8.368  2.2301 -2.0779 -0.6698
   46CHL1  H26B 5879   1.588   0.509   8.301  0.6360  0.6423  1.4915
   46CHL1  H26C 5880   1.720   0.379   8.303 -0.1184 -1.5549 -0.5423
   46CHL1   C27 5881   1.785   0.583   8.469  0.2664  0.1592 -0.2342
   46CHL1  H27A 5882   1.812   0.645   8.558 -1.5355 -0.9491  1.1649
   46CHL1  H27B 5883   1.877   0.536   8.428 -0.6984 -0.7145 -1.4519
   46CHL1  H27C 5884   1.747   0.646   8.386 -3.0216 -1.3459 -0.0406
   47CHL1    C3 5885   0.665   0.841   9.966 -0.4343 -0.5137 -0.5531
   47CHL1    H3 5886   0.762   0.793   9.940  0.1429  0.1258  0.3598
   47CHL1    O3 5887   0.681   0.889  10.104 -0.6265  0.8227 -0.1041
   47CHL1   H3' 5888   0.601   0.937  10.129 -3.1002 -1.6693 -2.5029
   47CHL1    C4 5889   0.640   0.958   9.868 -0.0596 -0.6136  0.5143
   47CHL1   H4A 5890   0.546   1.008   9.900  0.6983  0.5891  0.9576
   47CHL1   H4B 5891   0.731   1.018   9.889  0.6109 -0.7925 -1.6553
   47CHL1    C5 5892   0.639   0.904   9.732 -0.2818 -0.7694 -0.0370
   47CHL1    C6 5893   0.733   0.953   9.647 -0.3714 -0.2372  0.3087
   47CHL1    H6 5894   0.802   1.034   9.678  0.5395 -1.1884  0.8234
   47CHL1    C7 5895   0.740   0.909   9.508 -0.4964 -0.0646  0.7030
   47CHL1   H7A 5896   0.742   0.999   9.443  0.8512 -0.2650  0.4390
   47CHL1   H7B 5897   0.831   0.846   9.495 -0.6273  0.2572 -2.2926
   47CHL1    C8 5898   0.616   0.825   9.462  0.5966  0.1355 -0.5876
   47CHL1    H8 5899   0.533   0.899   9.467  0.9046  0.4260  0.3141
   47CHL1   C14 5900   0.640   0.774   9.322 -0.9403  0.7634 -0.5236
   47CHL1   H14 5901   0.736   0.718   9.319 -0.9888  0.6145  0.4048
   47CHL1   C15 5902   0.658   0.881   9.214  0.3327 -0.6080 -0.6222
   47CHL1  H15A 5903   0.586   0.963   9.235  1.0479 -0.0015 -0.4846
   47CHL1  H15B 5904   0.759   0.927   9.209 -0.2984  0.8019 -0.7842
   47CHL1   C16 5905   0.634   0.805   9.088  0.5553  0.3582 -0.9950
   47CHL1  H16A 5906   0.594   0.846   8.993  0.3296 -0.4056 -1.2367
   47CHL1  H16B 5907   0.735   0.772   9.055  0.8230 -0.5459  0.6202
   47CHL1   C17 5908   0.567   0.669   9.132 -0.6947  0.8346  0.1500
   47CHL1   H17 5909   0.650   0.595   9.134 -1.1397  0.2910 -0.8277
   47CHL1   C13 5910   0.521   0.689   9.277 -0.4679  0.3247  1.0085
   47CHL1   C18 5911   0.387   0.758   9.271 -0.4081  0.1761 -0.9545
   47CHL1  H18A 5912   0.361   0.813   9.363  1.2099 -0.2842 -0.2037
   47CHL1  H18B 5913   0.388   0.837   9.192  0.8515 -0.4196 -1.5580
   47CHL1  H18C 5914   0.307   0.683   9.250  0.6374 -1.4319  0.5736
   47CHL1   C12 5915   0.514   0.571   9.369  1.0870  0.7335 -0.3635
   47CHL1  H12A 5916   0.435   0.503   9.330  1.0778  0.7311 -0.3405
   47CHL1  H12B 5917   0.605   0.507   9.378 -0.2732 -1.0726  1.7356
   47CHL1   C11 5918   0.482   0.609   9.514 -0.8674 -0.7305 -0.7075
   47CHL1  H11A 5919   0.382   0.658   9.520 -1.0194 -1.1259  0.1021
   47CHL1  H11B 5920   0.468   0.517   9.574  0.8160 -1.1691 -0.9546
   47CHL1    C9 5921   0.584   0.714   9.567  0.2490 -0.2595  0.5621
   47CHL1    H9 5922   0.678   0.661   9.591 -0.2459 -0.7050  1.5861
   47CHL1   C10 5923   0.543   0.777   9.704 -0.3939 -0.2288 -0.2331
   47CHL1   C19 5924   0.397   0.831   9.703  0.6183  0.0690 -0.4403
   47CHL1  H19A 5925   0.358   0.883   9.793  2.0853 -1.9291  1.4689
   47CHL1  H19B 5926   0.400   0.905   9.621  1.8416 -0.4726 -0.9143
   47CHL1  H19C 5927   0.313   0.761   9.680 -2.1657  1.8304  3.4201
   47CHL1    C1 5928   0.559   0.681   9.815 -0.0988 -0.1106  0.0028
   47CHL1   H1A 5929   0.476   0.609   9.800 -1.5386  1.7738 -1.6241
   47CHL1   H1B 5930   0.657   0.628   9.814  0.2139  0.3802  1.4095
   47CHL1    C2 5931   0.560   0.731   9.960  0.9290 -0.5288 -0.4885
   47CHL1   H2A 5932   0.578   0.658  10.042 -3.7891  1.1435  2.4399
   47CHL1   H2B 5933   0.461   0.774   9.988  1.0721 -0.5790  0.1134
   47CHL1   C20 5934   0.468   0.620   9.026 -0.4164 -0.5065 -0.0141
   47CHL1   H20 5935   0.380   0.685   9.010 -0.3049 -0.5074 -0.6341
   47CHL1   C21 5936   0.407   0.482   9.066  0.0424 -0.6441  0.3535
   47CHL1  H21A 5937   0.479   0.402   9.095 -0.9101 -0.8693  2.2752
   47CHL1  H21B 5938   0.354   0.441   8.978 -0.2845 -1.1921  0.7988
   47CHL1  H21C 5939   0.338   0.496   9.152  0.1142 -0.5237  0.3919
   47CHL1   C22 5940   0.527   0.618   8.883  0.2014  0.0221  0.0561
   47CHL1  H22A 5941   0.589   0.708   8.868 -1.4955  1.0392 -1.3118
   47CHL1  H22B 5942   0.586   0.525   8.870 -0.9301 -0.9304  1.4653
   47CHL1   C23 5943   0.424   0.635   8.764  0.1877 -0.0568 -0.2022
   47CHL1  H23A 5944   0.375   0.538   8.742  1.4797 -0.8772  0.4083
   47CHL1  H23B 5945   0.337   0.698   8.791 -0.3823 -0.9182  0.0174
   47CHL1   C24 5946   0.498   0.700   8.644  0.3543  0.0729 -0.0867
   47CHL1  H24A 5947   0.551   0.796   8.659  0.6666  0.3187 -2.4445
   47CHL1  H24B 5948   0.572   0.623   8.613 -1.0653 -0.9835 -0.9153
   47CHL1   C25 5949   0.412   0.709   8.516 -0.3886  1.0443  0.2989
   47CHL1   H25 5950   0.365   0.609   8.504  0.2635  0.7988 -0.3461
   47CHL1   C26 5951   0.315   0.826   8.524  1.0037  0.0965  0.6814
   47CHL1  H26A 5952   0.233   0.809   8.598  1.1789  0.7718  1.0431
   47CHL1  H26B 5953   0.264   0.857   8.430  0.0009  0.7284  1.4004
   47CHL1  H26C 5954   0.369   0.919   8.550 -1.7947  2.5316 -1.4692
   47CHL1   C27 5955   0.504   0.748   8.395 -0.1871 -0.8901 -0.6765
   47CHL1  H27A 5956   0.572   0.662   8.374  1.1213 -0.1695  0.4860
   47CHL1  H27B 5957   0.449   0.775   8.303 -0.8514  0.2835  0.0471
   47CHL1  H27C 5958   0.570   0.835   8.417  0.0144 -1.3798  0.7289
   48CHL1    C3 5959   4.702   6.134   9.848 -0.5172  0.9544 -0.2385
   48CHL1    H3 5960   4.642   6.040   9.854 -0.0896  0.7407  1.1107
   48CHL1    O3 5961   4.749   6.157   9.976 -0.6473  0.7647 -0.4807
   48CHL1   H3' 5962   4.845   6.152   9.980 -0.5745  2.3254  3.6070
   48CHL1    C4 5963   4.807   6.119   9.738 -0.4570  0.5521  0.7494
   48CHL1   H4A 5964   4.879   6.203   9.745 -0.2937  0.4212  0.6349
   48CHL1   H4B 5965   4.863   6.024   9.752  0.5502  1.0428  0.1986
   48CHL1    C5 5966   4.767   6.117   9.597 -0.2419 -0.5118  0.8576
   48CHL1    C6 5967   4.801   6.018   9.512  0.4838 -0.5950  0.8384
   48CHL1    H6 5968   4.861   5.933   9.548  0.7817 -0.1810  1.3237
   48CHL1    C7 5969   4.765   6.006   9.364 -0.1673 -0.1209 -0.7002
   48CHL1   H7A 5970   4.860   5.992   9.308  0.3844  1.3718 -0.1917
   48CHL1   H7B 5971   4.690   5.925   9.353 -0.0117 -0.3920  0.1753
   48CHL1    C8 5972   4.711   6.138   9.326 -0.2205 -0.4388 -0.6840
   48CHL1    H8 5973   4.796   6.207   9.311  2.2828 -3.3320 -0.6709
   48CHL1   C14 5974   4.631   6.121   9.199 -0.0626 -0.1739  0.3791
   48CHL1   H14 5975   4.551   6.048   9.227  1.0424 -1.2315  0.8607
   48CHL1   C15 5976   4.699   6.049   9.085  0.0858  0.5443  0.6974
   48CHL1  H15A 5977   4.803   6.087   9.075  1.4644 -2.8610  0.5965
   48CHL1  H15B 5978   4.717   5.941   9.104 -0.8771  0.0050 -1.2170
   48CHL1   C16 5979   4.620   6.070   8.952  0.2622 -0.3756 -0.0817
   48CHL1  H16A 5980   4.681   6.108   8.867  1.0696 -1.3133  0.0524
   48CHL1  H16B 5981   4.575   5.974   8.920 -0.1451 -0.1133 -0.2991
   48CHL1   C17 5982   4.517   6.173   9.006  0.0328 -0.7917 -0.3808
   48CHL1   H17 5983   4.433   6.110   9.043 -1.8525  1.9543  0.3346
   48CHL1   C13 5984   4.571   6.241   9.134 -0.1975  0.4830 -0.1822
   48CHL1   C18 5985   4.671   6.346   9.091 -0.5151 -0.1581  0.7608
   48CHL1  H18A 5986   4.620   6.434   9.046 -2.7508 -2.0577 -0.6243
   48CHL1  H18B 5987   4.741   6.374   9.172  0.4249  0.0649 -0.1041
   48CHL1  H18C 5988   4.727   6.300   9.007 -2.1461 -2.8950  1.0714
   48CHL1   C12 5989   4.466   6.299   9.230 -0.7874  0.3162 -0.1401
   48CHL1  H12A 5990   4.412   6.385   9.184 -0.6981  1.0423  1.0710
   48CHL1  H12B 5991   4.388   6.225   9.255  0.0965  0.0779  2.1470
   48CHL1   C11 5992   4.531   6.321   9.361  0.4911 -0.4780  0.2617
   48CHL1  H11A 5993   4.587   6.415   9.347 -0.7955  0.3324  0.3877
   48CHL1  H11B 5994   4.451   6.344   9.434 -0.0215 -1.2999 -0.0237
   48CHL1    C9 5995   4.608   6.207   9.423 -0.4145  0.2876 -0.1758
   48CHL1    H9 5996   4.532   6.130   9.446  2.1574 -2.0137  1.0851
   48CHL1   C10 5997   4.668   6.235   9.559  0.7506  0.3932 -0.7099
   48CHL1   C19 5998   4.747   6.366   9.553 -0.1006 -0.0968 -0.2149
   48CHL1  H19A 5999   4.700   6.463   9.528 -0.0862  0.0051  0.1480
   48CHL1  H19B 6000   4.797   6.382   9.651 -0.4148  0.5098 -0.1451
   48CHL1  H19C 6001   4.833   6.355   9.483  0.7009 -1.3253  0.9179
   48CHL1    C1 6002   4.558   6.248   9.672  0.3251  0.6244 -0.1052
   48CHL1   H1A 6003   4.491   6.335   9.653  0.5086  0.8239  0.1470
   48CHL1   H1B 6004   4.492   6.159   9.674 -0.2148  0.9739 -1.4757
   48CHL1    C2 6005   4.614   6.253   9.819  0.1131  0.0940  0.0124
   48CHL1   H2A 6006   4.522   6.241   9.881 -0.3091 -2.5042 -0.9939
   48CHL1   H2B 6007   4.658   6.355   9.821 -2.9003  1.6479 -2.8785
   48CHL1   C20 6008   4.448   6.264   8.908 -0.0324 -0.2631  0.5404
   48CHL1   H20 6009   4.412   6.355   8.960 -2.0740 -0.3139 -0.6620
   48CHL1   C21 6010   4.319   6.199   8.855  0.6927  0.0542 -0.6539
   48CHL1  H21A 6011   4.277   6.251   8.766  2.1934  1.7776 -0.4051
   48CHL1  H21B 6012   4.247   6.181   8.939  1.5202 -1.4400 -0.2222
   48CHL1  H21C 6013   4.334   6.092   8.829  0.6277 -0.7925  2.3266
   48CHL1   C22 6014   4.530   6.300   8.786 -0.1237  0.5101  0.4388
   48CHL1  H22A 6015   4.625   6.338   8.828 -0.2290  1.9079 -0.5358
   48CHL1  H22B 6016   4.553   6.216   8.717  1.9181  1.9363 -0.6878
   48CHL1   C23 6017   4.466   6.413   8.696 -0.4694  0.0327  0.0484
   48CHL1  H23A 6018   4.395   6.370   8.622  0.9004  0.5451 -1.6399
   48CHL1  H23B 6019   4.409   6.485   8.758 -1.6667  1.9917 -3.1052
   48CHL1   C24 6020   4.575   6.494   8.616  0.1735 -0.2477  0.2726
   48CHL1  H24A 6021   4.617   6.416   8.549 -1.5987 -1.1794  0.1961
   48CHL1  H24B 6022   4.523   6.573   8.558  0.3732  0.7560  1.4213
   48CHL1   C25 6023   4.683   6.570   8.691 -0.0338  0.4917  0.2403
   48CHL1   H25 6024   4.744   6.492   8.742  0.0526  0.8869  0.7521
   48CHL1   C26 6025   4.770   6.651   8.599 -0.1435  0.2503  0.0077
   48CHL1  H26A 6026   4.811   6.588   8.518 -0.0801  1.1626 -0.6827
   48CHL1  H26B 6027   4.721   6.731   8.539  0.7475  0.3245 -0.6382
   48CHL1  H26C 6028   4.860   6.695   8.648  0.4404 -1.6948  0.7502
   48CHL1   C27 6029   4.634   6.656   8.810  0.9156 -0.1815 -0.2561
   48CHL1  H27A 6030   4.563   6.737   8.783 -1.1784 -1.6463  0.6530
   48CHL1  H27B 6031   4.584   6.601   8.893  0.4792  1.6689  0.7699
   48CHL1  H27C 6032   4.731   6.690   8.853  0.9957  0.0608 -0.6261
   49CHL1    C3 6033   0.984   1.624   9.895 -0.2102  0.0056 -0.7833
   49CHL1    H3 6034   0.875   1.638   9.909  0.2068  1.9784  1.0935
   49CHL1    O3 6035   1.044   1.650  10.020 -0.0941  0.1345 -0.2597
   49CHL1   H3' 6036   0.984   1.622  10.089  0.0209  1.5333  0.4488
   49CHL1    C4 6037   1.010   1.476   9.849 -0.0384  0.0555 -0.2269
   49CHL1   H4A 6038   1.117   1.454   9.868 -0.7956 -3.8262  0.6062
   49CHL1   H4B 6039   0.947   1.403   9.906 -2.5226  0.4546 -2.2480
   49CHL1    C5 6040   0.991   1.456   9.695 -0.0228 -0.0650  0.5294
   49CHL1    C6 6041   0.921   1.345   9.651  0.0166  0.4151  0.4822
   49CHL1    H6 6042   0.870   1.274   9.717 -1.9651  0.8540 -0.5296
   49CHL1    C7 6043   0.905   1.313   9.504  0.1396  0.2434 -0.0894
   49CHL1   H7A 6044   0.922   1.205   9.485  1.9405  0.5115 -0.0933
   49CHL1   H7B 6045   0.803   1.320   9.461  0.3211  1.5640 -0.3366
   49CHL1    C8 6046   0.997   1.392   9.412  0.5201  0.0007 -0.2477
   49CHL1    H8 6047   1.101   1.352   9.414  0.7978  0.6736  2.9737
   49CHL1   C14 6048   0.949   1.386   9.271 -0.0244  0.1680  0.3100
   49CHL1   H14 6049   0.857   1.448   9.279 -0.7036 -0.6651 -0.7909
   49CHL1   C15 6050   0.915   1.246   9.203  0.3849 -0.4064 -0.1232
   49CHL1  H15A 6051   0.992   1.168   9.218 -0.0838 -0.9321 -0.4415
   49CHL1  H15B 6052   0.824   1.196   9.244 -0.2547  1.7538  1.2731
   49CHL1   C16 6053   0.883   1.280   9.061 -0.4033 -0.1054 -0.3787
   49CHL1  H16A 6054   0.953   1.223   8.997  2.4403  0.9410  1.5929
   49CHL1  H16B 6055   0.778   1.273   9.024  0.5963 -0.0995 -3.4468
   49CHL1   C17 6056   0.930   1.433   9.044  0.6158 -0.4408 -0.5746
   49CHL1   H17 6057   0.842   1.498   9.059  1.0561  0.7490 -2.6868
   49CHL1   C13 6058   1.023   1.463   9.164  0.2514 -0.2142  0.2075
   49CHL1   C18 6059   1.162   1.410   9.148  0.1767  0.4297 -0.0683
   49CHL1  H18A 6060   1.220   1.400   9.242 -0.2126 -0.5750  0.0808
   49CHL1  H18B 6061   1.154   1.305   9.112  0.9694  0.4882 -0.4304
   49CHL1  H18C 6062   1.212   1.462   9.064 -1.7066  1.9434 -0.3150
   49CHL1   C12 6063   1.035   1.617   9.205 -0.6240 -0.9503 -0.4308
   49CHL1  H12A 6064   1.106   1.673   9.140 -0.4506  3.6168  3.1474
   49CHL1  H12B 6065   0.934   1.663   9.207  0.1347  0.7597  0.6948
   49CHL1   C11 6066   1.080   1.622   9.347  0.0439 -0.4763 -0.4538
   49CHL1  H11A 6067   1.183   1.582   9.353 -0.3772 -1.5506 -0.0364
   49CHL1  H11B 6068   1.088   1.722   9.395 -0.7707 -0.6470  0.0629
   49CHL1    C9 6069   1.008   1.540   9.454  0.0656  0.2377 -0.5887
   49CHL1    H9 6070   0.907   1.586   9.446  0.3086  0.4681 -3.2652
   49CHL1   C10 6071   1.056   1.564   9.603 -0.0233  0.4553 -0.1604
   49CHL1   C19 6072   1.214   1.554   9.604  0.0072 -0.1250  0.2814
   49CHL1  H19A 6073   1.258   1.641   9.550 -2.1839 -0.4077 -2.1618
   49CHL1  H19B 6074   1.260   1.566   9.704  1.7398 -0.9855 -0.3705
   49CHL1  H19C 6075   1.243   1.460   9.553 -1.3499  0.0267 -0.8387
   49CHL1    C1 6076   1.017   1.707   9.657  0.0636 -0.2710  0.5770
   49CHL1   H1A 6077   1.065   1.785   9.594 -1.8571 -1.6001 -2.8011
   49CHL1   H1B 6078   0.910   1.720   9.631  0.0434 -1.7878 -0.1782
   49CHL1    C2 6079   1.041   1.733   9.803  0.3033  0.4709 -0.4814
   49CHL1   H2A 6080   1.010   1.837   9.825  2.4292  1.3322 -1.2918
   49CHL1   H2B 6081   1.151   1.725   9.818  0.3137 -0.8908 -1.1041
   49CHL1   C20 6082   0.974   1.485   8.903  1.0310 -0.3054 -0.0251
   49CHL1   H20 6083   1.029   1.579   8.923  1.4351 -0.8129  1.3902
   49CHL1   C21 6084   0.841   1.508   8.826 -0.1281 -0.1338  0.1619
   49CHL1  H21A 6085   0.856   1.545   8.722  1.5290 -0.8680  0.1102
   49CHL1  H21B 6086   0.764   1.575   8.871 -0.7336  0.7215 -2.0298
   49CHL1  H21C 6087   0.794   1.407   8.825  0.6316 -0.4887 -0.9476
   49CHL1   C22 6088   1.077   1.393   8.833 -0.5235 -0.3903 -0.2775
   49CHL1  H22A 6089   1.141   1.329   8.898  0.6837 -2.1497 -3.0078
   49CHL1  H22B 6090   1.021   1.322   8.768 -1.7497 -0.0333  0.3500
   49CHL1   C23 6091   1.157   1.471   8.743  0.2036 -0.6998  0.5633
   49CHL1  H23A 6092   1.102   1.537   8.672 -0.8160 -2.7275 -0.5971
   49CHL1  H23B 6093   1.211   1.550   8.800  0.1632 -0.7804  0.7144
   49CHL1   C24 6094   1.257   1.388   8.661 -0.8218 -0.1198  0.3359
   49CHL1  H24A 6095   1.329   1.457   8.612  0.1841 -1.3664 -0.0146
   49CHL1  H24B 6096   1.311   1.318   8.729 -1.3097 -1.9384 -1.0454
   49CHL1   C25 6097   1.198   1.305   8.544 -0.3035 -0.2066  0.1784
   49CHL1   H25 6098   1.137   1.226   8.593  1.0090 -2.0252 -1.0135
   49CHL1   C26 6099   1.128   1.394   8.438 -0.2673 -0.0553 -0.3048
   49CHL1  H26A 6100   1.039   1.447   8.479  0.8107  0.8972  0.8719
   49CHL1  H26B 6101   1.196   1.473   8.401  0.9089 -0.7504  0.3421
   49CHL1  H26C 6102   1.108   1.333   8.347  2.1331  0.4647 -1.2642
   49CHL1   C27 6103   1.312   1.230   8.472  0.1744 -0.5592  0.6479
   49CHL1  H27A 6104   1.405   1.290   8.487 -0.3849 -0.1053  2.6076
   49CHL1  H27B 6105   1.337   1.135   8.523 -1.0022 -0.4528  1.4598
   49CHL1  H27C 6106   1.287   1.207   8.366  0.2198  0.6755  0.3532
   50CHL1    C3 6107   5.009   1.960  10.143  0.3570 -0.6038  0.0562
   50CHL1    H3 6108   4.999   2.071  10.143 -2.1984 -0.7125 -2.1566
   50CHL1    O3 6109   5.072   1.929  10.262  0.0686  0.1121  0.5468
   50CHL1   H3' 6110   5.005   1.947  10.329 -0.3559  1.8565 -0.2763
   50CHL1    C4 6111   4.874   1.895  10.144  0.2772  0.0609  0.2616
   50CHL1   H4A 6112   4.889   1.785  10.152  1.6499  0.2559  0.4787
   50CHL1   H4B 6113   4.812   1.924  10.231 -1.1246  3.0592 -1.5575
   50CHL1    C5 6114   4.795   1.934  10.018 -0.0753  0.0969  0.3843
   50CHL1    C6 6115   4.673   1.986  10.028 -0.0690  0.2990 -0.0073
   50CHL1    H6 6116   4.630   2.004  10.127  0.1551  1.7471 -0.1589
   50CHL1    C7 6117   4.582   2.009   9.912  0.1475 -0.1178  0.2257
   50CHL1   H7A 6118   4.489   1.950   9.928  1.7184 -3.2843 -1.5046
   50CHL1   H7B 6119   4.560   2.117   9.903  0.6892  0.0036  0.2958
   50CHL1    C8 6120   4.641   1.953   9.774 -0.0846 -0.1811  0.1077
   50CHL1    H8 6121   4.625   1.843   9.770 -0.0046 -0.1893  0.0239
   50CHL1   C14 6122   4.564   2.007   9.654  0.3805 -0.0383  0.1109
   50CHL1   H14 6123   4.593   2.114   9.663  0.5014  0.1498 -2.1099
   50CHL1   C15 6124   4.410   2.014   9.657  0.9651  0.6746 -0.1366
   50CHL1  H15A 6125   4.365   1.927   9.709  0.2174  1.0582 -0.1271
   50CHL1  H15B 6126   4.365   2.103   9.707 -0.2959  1.0045 -1.7762
   50CHL1   C16 6127   4.368   2.009   9.514 -0.1561 -0.2688  0.3475
   50CHL1  H16A 6128   4.326   1.911   9.483  0.8676 -0.4071 -0.6732
   50CHL1  H16B 6129   4.297   2.091   9.489 -0.8758 -0.8949  0.3272
   50CHL1   C17 6130   4.507   2.019   9.433  0.4033  0.4040 -0.2332
   50CHL1   H17 6131   4.541   2.124   9.438  2.7109 -0.3129  0.2994
   50CHL1   C13 6132   4.611   1.947   9.528  0.2800 -0.3710  0.2923
   50CHL1   C18 6133   4.603   1.793   9.518  0.0168  0.8176 -0.1274
   50CHL1  H18A 6134   4.672   1.745   9.590  0.3771  1.8898  0.2655
   50CHL1  H18B 6135   4.497   1.767   9.540 -0.2665  3.0403  1.4768
   50CHL1  H18C 6136   4.638   1.769   9.416 -0.8771  0.2006 -0.2924
   50CHL1   C12 6137   4.756   1.996   9.514 -0.2517  0.7545  0.2152
   50CHL1  H12A 6138   4.787   1.952   9.417 -0.0356 -1.3425  1.1811
   50CHL1  H12B 6139   4.759   2.107   9.509  0.8764  0.6811 -2.4355
   50CHL1   C11 6140   4.847   1.956   9.630  0.1203 -0.7796  0.0450
   50CHL1  H11A 6141   4.881   1.852   9.609  0.9165 -0.3349 -0.8999
   50CHL1  H11B 6142   4.941   2.010   9.609  1.7809 -3.2084  0.7433
   50CHL1    C9 6143   4.793   1.989   9.769  1.0251  0.3821 -0.0891
   50CHL1    H9 6144   4.812   2.097   9.787  1.0146  0.0053  2.7385
   50CHL1   C10 6145   4.866   1.909   9.879 -0.0671  1.3450 -0.3624
   50CHL1   C19 6146   4.870   1.748   9.861 -0.0126  0.4411  0.2201
   50CHL1  H19A 6147   4.942   1.722   9.781 -2.6336 -1.0550 -1.7817
   50CHL1  H19B 6148   4.901   1.701   9.957  0.2854  0.0114 -0.0835
   50CHL1  H19C 6149   4.776   1.698   9.830  0.6027 -0.5610 -0.0674
   50CHL1    C1 6150   5.014   1.958   9.891 -0.4920  0.0050 -0.2850
   50CHL1   H1A 6151   5.075   1.921   9.806  2.3602  1.5765  0.9408
   50CHL1   H1B 6152   5.025   2.068   9.890  1.2986  0.0368  3.4536
   50CHL1    C2 6153   5.088   1.917  10.021  0.0916 -0.4849 -0.1230
   50CHL1   H2A 6154   5.191   1.958  10.011  0.7600 -2.3314 -1.3733
   50CHL1   H2B 6155   5.104   1.808  10.035 -0.1563 -0.4417  0.5462
   50CHL1   C20 6156   4.498   1.987   9.289 -0.4328 -0.5880 -0.4746
   50CHL1   H20 6157   4.545   1.890   9.262 -0.2128 -0.9654  1.1189
   50CHL1   C21 6158   4.583   2.096   9.218 -0.1373  0.5551 -0.4122
   50CHL1  H21A 6159   4.574   2.076   9.109  0.4016 -1.2056 -0.1669
   50CHL1  H21B 6160   4.689   2.100   9.250 -0.3018 -1.4839  0.5628
   50CHL1  H21C 6161   4.528   2.191   9.238  1.1196  1.7543 -2.3615
   50CHL1   C22 6162   4.355   1.986   9.232 -0.3269 -0.0531  0.1052
   50CHL1  H22A 6163   4.303   1.898   9.275 -0.5790 -0.4950 -1.0547
   50CHL1  H22B 6164   4.285   2.066   9.262 -2.7034 -1.3024 -1.7985
   50CHL1   C23 6165   4.353   1.971   9.081  0.1295 -0.5366  0.7521
   50CHL1  H23A 6166   4.371   2.070   9.033 -0.2027 -1.7240 -2.0685
   50CHL1  H23B 6167   4.433   1.899   9.051 -0.1530  0.1638 -1.9843
   50CHL1   C24 6168   4.212   1.943   9.024  0.1890  0.3393 -0.3041
   50CHL1  H24A 6169   4.207   1.835   9.051  2.1703 -0.0186 -1.2179
   50CHL1  H24B 6170   4.131   1.993   9.081  1.5317  1.6647  0.5259
   50CHL1   C25 6171   4.194   1.958   8.875  0.0705  0.6583 -0.1984
   50CHL1   H25 6172   4.281   1.905   8.831 -1.7000 -0.9205 -1.9932
   50CHL1   C26 6173   4.074   1.877   8.814 -0.3507 -0.4408 -0.8256
   50CHL1  H26A 6174   3.981   1.911   8.864 -1.9441 -0.8878 -3.3157
   50CHL1  H26B 6175   4.068   1.895   8.705  0.1944  0.5142 -0.7093
   50CHL1  H26C 6176   4.084   1.768   8.832  0.3360 -0.4073 -0.9578
   50CHL1   C27 6177   4.204   2.099   8.819  0.0059  0.0185 -0.4295
   50CHL1  H27A 6178   4.106   2.151   8.828 -0.0845 -0.2701  0.3310
   50CHL1  H27B 6179   4.280   2.157   8.877 -1.2798  0.5818  0.7681
   50CHL1  H27C 6180   4.242   2.091   8.715  0.8169  1.5397 -0.2813
   51CHL1    C3 6181   4.862   0.451  10.196  0.0982 -0.0528  0.0040
   51CHL1    H3 6182   4.885   0.344  10.210 -1.2875 -0.1714  1.8567
   51CHL1    O3 6183   4.801   0.515  10.308  0.3859 -0.2141 -0.4983
   51CHL1   H3' 6184   4.766   0.597  10.271  1.6776  0.0263 -1.2314
   51CHL1    C4 6185   4.985   0.541  10.151 -0.1215 -0.0352  0.3678
   51CHL1   H4A 6186   4.960   0.645  10.123 -1.0165 -0.1879  0.5781
   51CHL1   H4B 6187   5.053   0.554  10.238 -1.3177  2.5258  1.0022
   51CHL1    C5 6188   5.057   0.491  10.026  0.6028  0.4474 -0.1028
   51CHL1    C6 6189   5.187   0.461  10.022 -0.4898 -0.4278 -0.7460
   51CHL1    H6 6190   5.234   0.456  10.122 -2.8137  2.5467  0.6615
   51CHL1    C7 6191   5.252   0.384   9.915  0.5471 -0.9405  0.7216
   51CHL1   H7A 6192   5.351   0.430   9.900 -0.3719  0.7256 -0.5888
   51CHL1   H7B 6193   5.266   0.279   9.949 -0.6500 -1.7153 -0.9977
   51CHL1    C8 6194   5.168   0.395   9.788  0.6129  0.1477  0.5395
   51CHL1    H8 6195   5.176   0.499   9.750 -0.5500  0.4315  1.0396
   51CHL1   C14 6196   5.225   0.300   9.675  0.0277 -0.2332  0.4684
   51CHL1   H14 6197   5.197   0.200   9.714 -0.4946 -1.6267 -3.0784
   51CHL1   C15 6198   5.373   0.299   9.653 -0.6263 -0.0236  0.7868
   51CHL1  H15A 6199   5.424   0.397   9.648 -2.1533  0.7655  0.1878
   51CHL1  H15B 6200   5.421   0.238   9.734 -1.8561  2.5255  3.6333
   51CHL1   C16 6201   5.380   0.232   9.514 -0.0100 -0.6438 -0.4344
   51CHL1  H16A 6202   5.430   0.314   9.458 -1.0297  0.6770  0.5185
   51CHL1  H16B 6203   5.446   0.143   9.511  1.2746  0.2930 -1.0043
   51CHL1   C17 6204   5.238   0.224   9.450  0.1293  0.4513  0.1867
   51CHL1   H17 6205   5.208   0.118   9.468 -0.5336  0.5980 -0.0207
   51CHL1   C13 6206   5.154   0.316   9.541  0.3456 -0.2482 -0.0990
   51CHL1   C18 6207   5.162   0.455   9.486  0.2699  0.0303  0.4915
   51CHL1  H18A 6208   5.106   0.522   9.555 -0.2566 -2.5425  2.7313
   51CHL1  H18B 6209   5.259   0.507   9.473  1.4598 -2.4668 -1.6848
   51CHL1  H18C 6210   5.108   0.458   9.389  2.8821 -1.0502 -1.1038
   51CHL1   C12 6211   4.998   0.279   9.555 -0.4930  0.4625  0.3923
   51CHL1  H12A 6212   4.946   0.302   9.460 -1.7360  1.4348  1.2733
   51CHL1  H12B 6213   4.983   0.171   9.578 -1.3986  0.4207 -0.3126
   51CHL1   C11 6214   4.936   0.355   9.671 -0.6196  0.4522 -0.5818
   51CHL1  H11A 6215   4.929   0.456   9.625  0.8682  1.0359  0.3941
   51CHL1  H11B 6216   4.840   0.308   9.701 -0.8303 -0.6577 -2.8142
   51CHL1    C9 6217   5.018   0.364   9.800 -0.2041  0.1116  0.3030
   51CHL1    H9 6218   5.015   0.263   9.846  0.4718 -0.7669 -1.4676
   51CHL1   C10 6219   4.968   0.457   9.907  0.4395  0.3891  0.6032
   51CHL1   C19 6220   4.932   0.589   9.848 -0.2193  0.5521 -0.0885
   51CHL1  H19A 6221   4.904   0.665   9.924 -0.9152  1.5455 -1.2988
   51CHL1  H19B 6222   5.018   0.631   9.793  0.5803 -1.4977 -0.4825
   51CHL1  H19C 6223   4.841   0.595   9.784 -1.7686  1.9999  2.0758
   51CHL1    C1 6224   4.826   0.395   9.961 -0.5664 -0.3111 -0.2444
   51CHL1   H1A 6225   4.760   0.403   9.872 -0.4522 -0.3638 -0.3330
   51CHL1   H1B 6226   4.851   0.289   9.979  3.6001 -0.3780 -4.5262
   51CHL1    C2 6227   4.757   0.451  10.088  0.1945  0.3746  0.2790
   51CHL1   H2A 6228   4.666   0.400  10.124 -0.9219  0.0816 -2.6900
   51CHL1   H2B 6229   4.724   0.556  10.072  0.6778  0.3930 -0.6862
   51CHL1   C20 6230   5.224   0.230   9.291  0.3085 -0.6017  0.4253
   51CHL1   H20 6231   5.266   0.329   9.264  1.9831 -0.7545  2.2088
   51CHL1   C21 6232   5.083   0.210   9.243 -0.2992  0.5859 -0.6996
   51CHL1  H21A 6233   5.021   0.300   9.262 -1.9773 -0.6605 -0.0361
   51CHL1  H21B 6234   5.048   0.115   9.288 -1.5894  1.4353  0.1490
   51CHL1  H21C 6235   5.086   0.193   9.133 -1.0150 -3.3345 -0.2344
   51CHL1   C22 6236   5.321   0.131   9.220 -0.3469  0.2119  0.3381
   51CHL1  H22A 6237   5.411   0.122   9.284 -0.5142 -1.8838  0.3431
   51CHL1  H22B 6238   5.272   0.032   9.230  2.2592 -1.0392  1.6637
   51CHL1   C23 6239   5.366   0.167   9.079  0.0741  0.4596 -0.7896
   51CHL1  H23A 6240   5.424   0.086   9.029  1.4825  2.3632 -2.3984
   51CHL1  H23B 6241   5.279   0.170   9.010 -0.3106 -0.3821 -0.3549
   51CHL1   C24 6242   5.449   0.297   9.079  0.1673  0.3217  0.1871
   51CHL1  H24A 6243   5.372   0.377   9.085 -2.2701 -1.8189 -0.3939
   51CHL1  H24B 6244   5.515   0.311   9.167 -1.4276  2.0106  1.1812
   51CHL1   C25 6245   5.541   0.321   8.956 -0.0249  0.2532 -0.2886
   51CHL1   H25 6246   5.610   0.234   8.946 -2.8818 -2.2191  0.0444
   51CHL1   C26 6247   5.453   0.316   8.824  0.1855 -0.2214  0.8007
   51CHL1  H26A 6248   5.517   0.318   8.734  0.5739  1.3795  1.0824
   51CHL1  H26B 6249   5.396   0.221   8.820  0.3209 -0.2816  0.1667
   51CHL1  H26C 6250   5.404   0.416   8.820 -0.0210 -0.3636 -0.6824
   51CHL1   C27 6251   5.614   0.451   8.982  0.2712 -0.7505 -0.4518
   51CHL1  H27A 6252   5.665   0.479   8.888 -1.5514  0.7166 -1.0708
   51CHL1  H27B 6253   5.536   0.528   8.999 -1.3481 -2.4176  0.0745
   51CHL1  H27C 6254   5.689   0.445   9.063 -0.6482  0.0564  0.4979
   52CHL1    C3 6255   2.499   4.070  10.065  0.9227 -0.2013 -0.1632
   52CHL1    H3 6256   2.388   4.076  10.053  0.8771 -1.1400 -0.2872
   52CHL1    O3 6257   2.530   4.051  10.202  0.5086 -0.1906 -0.6925
   52CHL1   H3' 6258   2.531   4.137  10.244 -3.6883 -0.2212 -0.0869
   52CHL1    C4 6259   2.551   3.949   9.979 -0.3276 -1.1390 -0.7742
   52CHL1   H4A 6260   2.656   3.927  10.006 -0.4804 -2.2024 -1.0172
   52CHL1   H4B 6261   2.495   3.862  10.019  0.0682  0.0087  2.6792
   52CHL1    C5 6262   2.544   3.965   9.830  0.1807 -0.1091  0.5262
   52CHL1    C6 6263   2.488   3.865   9.758 -0.2414 -0.7258 -0.1434
   52CHL1    H6 6264   2.463   3.772   9.811 -1.5771  0.4375  1.3457
   52CHL1    C7 6265   2.471   3.861   9.611 -0.4215  0.3019  0.3878
   52CHL1   H7A 6266   2.514   3.767   9.570  1.9347  1.9661 -1.2760
   52CHL1   H7B 6267   2.366   3.873   9.579  0.6600  2.9017 -2.7471
   52CHL1    C8 6268   2.560   3.964   9.547  0.1165 -0.1443 -0.1084
   52CHL1    H8 6269   2.668   3.935   9.547 -0.6939 -3.5774 -0.7087
   52CHL1   C14 6270   2.514   3.982   9.396  0.5244  0.3917 -0.6286
   52CHL1   H14 6271   2.406   4.011   9.393 -0.1232 -1.8063 -0.4253
   52CHL1   C15 6272   2.503   3.858   9.308 -0.0861  0.2101 -0.8062
   52CHL1  H15A 6273   2.583   3.787   9.337  0.1914  0.6339 -0.5347
   52CHL1  H15B 6274   2.402   3.811   9.317  1.0176 -1.9635  1.7274
   52CHL1   C16 6275   2.528   3.915   9.167  0.8753 -0.1079 -0.2063
   52CHL1  H16A 6276   2.625   3.882   9.125  1.9420  0.8157  1.4373
   52CHL1  H16B 6277   2.445   3.889   9.097  2.1313  2.2562 -2.7649
   52CHL1   C17 6278   2.525   4.071   9.188 -0.3998  0.4448  0.5652
   52CHL1   H17 6279   2.418   4.100   9.197 -0.5147  0.6173 -1.0988
   52CHL1   C13 6280   2.581   4.097   9.328 -0.6807  0.9068  0.0929
   52CHL1   C18 6281   2.735   4.070   9.319 -0.0393  0.0529 -0.1665
   52CHL1  H18A 6282   2.764   3.981   9.260  0.1059 -2.0642  2.8266
   52CHL1  H18B 6283   2.775   4.156   9.262 -1.3881  0.6017 -0.3176
   52CHL1  H18C 6284   2.786   4.060   9.417  1.0733 -1.0076 -0.8289
   52CHL1   C12 6285   2.548   4.234   9.394  0.7455  0.5703 -0.3738
   52CHL1  H12A 6286   2.612   4.309   9.344 -0.4595  0.9522 -1.3915
   52CHL1  H12B 6287   2.441   4.265   9.388  0.0900 -1.2074  0.9655
   52CHL1   C11 6288   2.579   4.226   9.552  0.4199  0.0698 -0.5181
   52CHL1  H11A 6289   2.687   4.249   9.567  1.0168 -1.0350 -2.8294
   52CHL1  H11B 6290   2.526   4.307   9.608  1.2146  0.3287 -0.1127
   52CHL1    C9 6291   2.543   4.100   9.625  0.4925 -0.0271  0.3272
   52CHL1    H9 6292   2.432   4.103   9.634  0.1304 -1.1749 -2.6517
   52CHL1   C10 6293   2.589   4.096   9.774  0.7355 -0.6794  0.2432
   52CHL1   C19 6294   2.741   4.103   9.784  0.0718  0.0840  0.5912
   52CHL1  H19A 6295   2.768   4.084   9.890 -0.4699  0.4192  0.7937
   52CHL1  H19B 6296   2.780   4.019   9.723  0.4296 -0.4134  1.4968
   52CHL1  H19C 6297   2.780   4.202   9.750 -1.0254  0.3357  0.0161
   52CHL1    C1 6298   2.526   4.207   9.866 -0.7321  0.3016  0.3330
   52CHL1   H1A 6299   2.568   4.307   9.839 -0.3026  0.7334  2.4669
   52CHL1   H1B 6300   2.415   4.213   9.858 -0.9759 -0.6856  2.3713
   52CHL1    C2 6301   2.555   4.194  10.014 -0.1638 -0.0775  0.5353
   52CHL1   H2A 6302   2.526   4.284  10.072 -0.6097  0.9271 -1.1901
   52CHL1   H2B 6303   2.665   4.191  10.028  0.0663  1.5073 -0.6272
   52CHL1   C20 6304   2.574   4.160   9.072 -0.1151  0.2065 -0.0555
   52CHL1   H20 6305   2.662   4.218   9.108 -0.0633 -0.2453  0.5520
   52CHL1   C21 6306   2.465   4.260   9.037  0.8050 -0.0391  0.5411
   52CHL1  H21A 6307   2.504   4.326   8.956 -3.3383 -0.0413 -1.7226
   52CHL1  H21B 6308   2.422   4.324   9.116 -1.6618  1.1196 -1.6180
   52CHL1  H21C 6309   2.381   4.205   8.988  1.2750 -0.7660  0.5223
   52CHL1   C22 6310   2.617   4.087   8.949 -0.5540  0.6130 -0.1696
   52CHL1  H22A 6311   2.697   4.013   8.972 -1.3770 -0.8718 -1.8302
   52CHL1  H22B 6312   2.541   4.015   8.912  0.4353 -0.1627 -0.7804
   52CHL1   C23 6313   2.672   4.176   8.833  0.9940 -0.3982  0.0673
   52CHL1  H23A 6314   2.596   4.240   8.783  1.1357 -2.4044 -2.9175
   52CHL1  H23B 6315   2.748   4.246   8.874  2.2656 -2.1568  0.8619
   52CHL1   C24 6316   2.743   4.086   8.727 -0.1559 -0.3134  0.3074
   52CHL1  H24A 6317   2.814   4.022   8.784 -1.1629 -1.6861  0.0612
   52CHL1  H24B 6318   2.664   4.022   8.682  0.1541  1.4098 -3.0547
   52CHL1   C25 6319   2.808   4.161   8.613 -0.1715  0.1467 -0.2293
   52CHL1   H25 6320   2.862   4.246   8.659 -0.7021  0.6957 -0.6061
   52CHL1   C26 6321   2.911   4.072   8.537  0.2442 -0.3826  0.1092
   52CHL1  H26A 6322   2.972   4.038   8.624 -0.3134  1.9826  1.5322
   52CHL1  H26B 6323   2.855   3.984   8.500  0.6030 -0.4592 -0.2584
   52CHL1  H26C 6324   2.963   4.118   8.450  1.4067 -1.0924  0.3957
   52CHL1   C27 6325   2.708   4.228   8.511  0.2439  0.7393 -0.8086
   52CHL1  H27A 6326   2.632   4.269   8.581  1.1703  0.2062  0.5768
   52CHL1  H27B 6327   2.757   4.307   8.451 -0.2067  1.7511  0.1170
   52CHL1  H27C 6328   2.656   4.148   8.454  2.0229 -0.7858 -0.4064
   53CHL1    C3 6329   3.724   4.230  10.165 -0.1444 -0.1319 -0.4620
   53CHL1    H3 6330   3.835   4.237  10.164 -0.0974  0.0804  1.5181
   53CHL1    O3 6331   3.675   4.196  10.294 -0.1870  0.3365  0.3067
   53CHL1   H3' 6332   3.691   4.102  10.295  1.2292  0.5396 -0.5078
   53CHL1    C4 6333   3.665   4.369  10.130  0.5232  0.0631 -0.8289
   53CHL1   H4A 6334   3.558   4.368  10.158  0.7203  1.6572  0.1655
   53CHL1   H4B 6335   3.702   4.441  10.207 -1.5198  0.0073  0.2792
   53CHL1    C5 6336   3.685   4.411   9.985  0.3530 -0.3763  0.1521
   53CHL1    C6 6337   3.745   4.528   9.945 -0.8448  0.3445 -0.2405
   53CHL1    H6 6338   3.764   4.601  10.025 -1.9004  0.5356 -0.1430
   53CHL1    C7 6339   3.782   4.571   9.806  0.7636 -0.0630 -0.2767
   53CHL1   H7A 6340   3.768   4.679   9.784  0.9681  0.0998  0.3931
   53CHL1   H7B 6341   3.889   4.544   9.799  0.5624 -1.1004  0.4616
   53CHL1    C8 6342   3.692   4.490   9.702 -0.3103 -0.3443  0.3371
   53CHL1    H8 6343   3.588   4.531   9.708 -0.6679 -1.1341 -0.1954
   53CHL1   C14 6344   3.752   4.509   9.562 -0.0238 -0.4921  0.6360
   53CHL1   H14 6345   3.860   4.488   9.576  0.9581  0.7330 -3.4553
   53CHL1   C15 6346   3.762   4.659   9.513 -0.6521  0.1671  0.2147
   53CHL1  H15A 6347   3.655   4.677   9.537 -0.4458  0.0322  1.2535
   53CHL1  H15B 6348   3.840   4.724   9.557 -2.3789  1.9167  0.8284
   53CHL1   C16 6349   3.789   4.647   9.360 -0.0295  0.5053 -0.6981
   53CHL1  H16A 6350   3.713   4.704   9.303 -0.1432  1.5073  0.4058
   53CHL1  H16B 6351   3.892   4.680   9.334 -0.5706  2.2085 -0.7894
   53CHL1   C17 6352   3.783   4.490   9.331 -0.0567  0.0065 -0.2631
   53CHL1   H17 6353   3.890   4.460   9.331  0.7196  2.4444  1.7913
   53CHL1   C13 6354   3.701   4.432   9.450 -0.3776  0.4919  0.7981
   53CHL1   C18 6355   3.549   4.469   9.433 -0.0012 -0.0703 -0.1374
   53CHL1  H18A 6356   3.503   4.402   9.358 -2.1762  0.9405  0.2131
   53CHL1  H18B 6357   3.491   4.451   9.526  2.5471 -0.7126  1.4581
   53CHL1  H18C 6358   3.547   4.576   9.402 -2.2580  0.5460  1.8698
   53CHL1   C12 6359   3.710   4.281   9.485  0.1765  0.3573 -0.1374
   53CHL1  H12A 6360   3.659   4.219   9.408  0.3670  1.4064 -1.1355
   53CHL1  H12B 6361   3.818   4.256   9.494  0.4212  1.7191  0.9178
   53CHL1   C11 6362   3.644   4.251   9.625  0.8554  0.6200 -0.1135
   53CHL1  H11A 6363   3.536   4.275   9.612  0.8783  1.0608  0.4612
   53CHL1  H11B 6364   3.664   4.142   9.636 -2.1469  0.1646  2.2484
   53CHL1    C9 6365   3.697   4.344   9.737 -0.0413 -0.8525 -0.9966
   53CHL1    H9 6366   3.805   4.318   9.735  0.4646  1.0319 -0.1056
   53CHL1   C10 6367   3.651   4.301   9.879 -0.4981  0.6058 -0.0780
   53CHL1   C19 6368   3.497   4.272   9.879  0.4161 -0.0148  0.4894
   53CHL1  H19A 6369   3.463   4.205   9.798 -0.3698  1.0766 -0.1031
   53CHL1  H19B 6370   3.464   4.235   9.978  0.6683 -0.7842  0.2932
   53CHL1  H19C 6371   3.450   4.367   9.845  0.0420 -0.3409  0.0806
   53CHL1    C1 6372   3.713   4.164   9.918 -0.3591 -0.0595  0.3161
   53CHL1   H1A 6373   3.673   4.080   9.859 -2.3242  1.5611 -0.7601
   53CHL1   H1B 6374   3.824   4.173   9.911 -0.1624  1.0415  3.4164
   53CHL1    C2 6375   3.682   4.122  10.063 -0.2393  0.8826  0.6298
   53CHL1   H2A 6376   3.740   4.031  10.088 -1.5658 -0.5058 -1.0746
   53CHL1   H2B 6377   3.580   4.078  10.064  0.1265  0.0144  0.5979
   53CHL1   C20 6378   3.727   4.470   9.185  0.8214 -0.6749 -0.2253
   53CHL1   H20 6379   3.632   4.527   9.191  0.9227 -0.5679  0.5076
   53CHL1   C21 6380   3.708   4.319   9.154  0.5251 -1.1704 -0.4045
   53CHL1  H21A 6381   3.798   4.257   9.178  0.7478 -0.3623  0.9557
   53CHL1  H21B 6382   3.681   4.293   9.050  0.2736  0.7067 -0.8453
   53CHL1  H21C 6383   3.626   4.278   9.217  0.6711  0.6210  1.0331
   53CHL1   C22 6384   3.822   4.533   9.074  0.1387  0.0156 -0.4515
   53CHL1  H22A 6385   3.858   4.633   9.106 -0.3915  0.5183 -1.3845
   53CHL1  H22B 6386   3.913   4.472   9.059  0.1408  0.1341 -0.9263
   53CHL1   C23 6387   3.762   4.534   8.931 -0.0635  0.4740 -0.3228
   53CHL1  H23A 6388   3.845   4.574   8.868 -0.2143 -0.2255 -0.9826
   53CHL1  H23B 6389   3.745   4.429   8.900  1.8477 -0.8050  2.5486
   53CHL1   C24 6390   3.635   4.625   8.907 -0.2691 -0.1839 -0.0459
   53CHL1  H24A 6391   3.556   4.601   8.981 -0.5748 -1.7637 -0.8252
   53CHL1  H24B 6392   3.661   4.730   8.930  1.3771 -0.3767 -0.8764
   53CHL1   C25 6393   3.569   4.617   8.761 -0.5896 -0.0359  0.3740
   53CHL1   H25 6394   3.560   4.508   8.747  0.1672 -0.0518 -0.0489
   53CHL1   C26 6395   3.435   4.696   8.761  0.0186 -0.4115  0.0270
   53CHL1  H26A 6396   3.375   4.674   8.671  1.7302 -0.1292 -1.2209
   53CHL1  H26B 6397   3.380   4.660   8.851 -3.0895  1.7280 -0.8600
   53CHL1  H26C 6398   3.443   4.805   8.782  0.1131 -0.5710  0.8902
   53CHL1   C27 6399   3.655   4.666   8.640  0.1208  0.4933 -0.5383
   53CHL1  H27A 6400   3.664   4.777   8.635  2.0779  0.5924  2.5834
   53CHL1  H27B 6401   3.759   4.629   8.654 -0.4304 -1.1767 -0.6244
   53CHL1  H27C 6402   3.608   4.623   8.549  0.5861 -0.6495 -0.2453
   54CHL1    C3 6403   3.601   5.150  10.302 -0.4176  0.3017  0.5484
   54CHL1    H3 6404   3.704   5.191  10.307  0.6628 -2.3546  2.7521
   54CHL1    O3 6405   3.563   5.137  10.438 -0.5712  0.7373 -0.1813
   54CHL1   H3' 6406   3.600   5.213  10.485 -2.2593 -1.3673  5.3669
   54CHL1    C4 6407   3.513   5.262  10.235 -0.4566  0.2999  0.3639
   54CHL1   H4A 6408   3.407   5.235  10.254 -0.6998  0.4396 -0.7302
   54CHL1   H4B 6409   3.534   5.358  10.287 -1.5292  0.1178  1.1666
   54CHL1    C5 6410   3.537   5.273  10.088  0.0150  0.5191 -0.8595
   54CHL1    C6 6411   3.570   5.394  10.037  0.5660 -0.5110 -0.1422
   54CHL1    H6 6412   3.577   5.486  10.098  0.6606 -0.8207  0.3207
   54CHL1    C7 6413   3.590   5.411   9.885 -0.2068  0.2322 -0.1391
   54CHL1   H7A 6414   3.543   5.505   9.848 -1.4790  0.1629  1.2386
   54CHL1   H7B 6415   3.696   5.427   9.858  0.0125  2.7886  1.9176
   54CHL1    C8 6416   3.543   5.286   9.797  0.3051  0.3154 -0.1461
   54CHL1    H8 6417   3.432   5.288   9.796  0.2994  0.1827 -1.6603
   54CHL1   C14 6418   3.598   5.298   9.649  0.0910 -0.2199  0.0556
   54CHL1   H14 6419   3.709   5.301   9.661  0.2603  3.6570 -1.0669
   54CHL1   C15 6420   3.565   5.426   9.563 -0.2076  0.5928 -0.3001
   54CHL1  H15A 6421   3.458   5.449   9.583 -0.9246 -0.7098 -2.3128
   54CHL1  H15B 6422   3.630   5.506   9.604 -0.2776  0.0172  0.9894
   54CHL1   C16 6423   3.585   5.384   9.423  0.1043 -0.3886  0.2431
   54CHL1  H16A 6424   3.490   5.403   9.368  0.4509  0.5988 -0.0213
   54CHL1  H16B 6425   3.665   5.441   9.371 -1.5818 -0.5924 -2.8246
   54CHL1   C17 6426   3.620   5.233   9.428  0.7956  0.2461 -0.0237
   54CHL1   H17 6427   3.730   5.229   9.438  1.0803  0.8616 -2.2322
   54CHL1   C13 6428   3.564   5.182   9.560  0.0357  0.7828  0.2795
   54CHL1   C18 6429   3.407   5.173   9.548 -0.2586  0.0796  0.1372
   54CHL1  H18A 6430   3.352   5.173   9.644  1.4103  0.5755  1.1457
   54CHL1  H18B 6431   3.366   5.253   9.483  0.5635  1.4793  1.2821
   54CHL1  H18C 6432   3.393   5.072   9.504 -1.3915  0.3817 -0.2131
   54CHL1   C12 6433   3.624   5.062   9.631  0.2082  0.2821  0.4641
   54CHL1  H12A 6434   3.591   4.966   9.584  2.0531 -0.2945  0.2702
   54CHL1  H12B 6435   3.734   5.069   9.641  0.5248 -3.1805  0.8047
   54CHL1   C11 6436   3.563   5.040   9.774 -0.0223 -0.6534  0.6218
   54CHL1  H11A 6437   3.456   5.013   9.761 -0.5690  1.1065  1.2793
   54CHL1  H11B 6438   3.602   4.946   9.817 -2.1969 -2.2307 -0.6254
   54CHL1    C9 6439   3.590   5.160   9.867 -0.3947  0.6045  0.0955
   54CHL1    H9 6440   3.699   5.178   9.880 -0.1664 -0.4865 -0.1264
   54CHL1   C10 6441   3.526   5.138  10.005  0.7041 -0.0049  0.0329
   54CHL1   C19 6442   3.385   5.085   9.985  0.0961 -0.8518  0.1743
   54CHL1  H19A 6443   3.338   5.078  10.086 -2.3264  0.3816 -0.7842
   54CHL1  H19B 6444   3.342   5.153   9.908  0.5789 -0.3503  0.3410
   54CHL1  H19C 6445   3.384   4.982   9.945  1.1444 -1.0964  0.7357
   54CHL1    C1 6446   3.606   5.025  10.086  0.6873 -0.0466  0.1478
   54CHL1   H1A 6447   3.582   4.929  10.037 -0.0844 -0.1101  0.6186
   54CHL1   H1B 6448   3.710   5.058  10.064 -0.0743  1.5817 -1.2457
   54CHL1    C2 6449   3.581   5.010  10.232  0.2457 -0.0267  0.0445
   54CHL1   H2A 6450   3.654   4.929  10.250 -0.6860 -1.3142 -1.6849
   54CHL1   H2B 6451   3.480   4.973  10.261  0.0568  0.5214  0.1061
   54CHL1   C20 6452   3.604   5.157   9.297  0.1368 -0.9485  0.4011
   54CHL1   H20 6453   3.499   5.120   9.302 -0.3910  0.2724 -1.1831
   54CHL1   C21 6454   3.700   5.038   9.294 -0.1388 -0.5714  0.5161
   54CHL1  H21A 6455   3.661   4.969   9.216 -0.3180 -1.0016  0.9820
   54CHL1  H21B 6456   3.701   4.987   9.392  2.6173 -0.9373  0.3557
   54CHL1  H21C 6457   3.801   5.071   9.262  0.1090  1.0253  2.7124
   54CHL1   C22 6458   3.626   5.246   9.163  0.0494  0.5189 -0.5889
   54CHL1  H22A 6459   3.543   5.321   9.161 -0.1133  0.3948  0.8012
   54CHL1  H22B 6460   3.719   5.305   9.174 -1.2628  2.6589 -0.2764
   54CHL1   C23 6461   3.636   5.158   9.032  0.2173  0.0283  0.3022
   54CHL1  H23A 6462   3.722   5.087   9.039 -0.9671 -1.3759  1.1153
   54CHL1  H23B 6463   3.543   5.101   9.010  0.8391 -0.7183 -0.4537
   54CHL1   C24 6464   3.663   5.241   8.911 -0.2926  0.0676  0.4643
   54CHL1  H24A 6465   3.571   5.283   8.866 -0.5672 -0.5144  0.4701
   54CHL1  H24B 6466   3.735   5.320   8.939 -1.7680  0.6760  2.8498
   54CHL1   C25 6467   3.736   5.170   8.795  0.4478  0.2899  0.1336
   54CHL1   H25 6468   3.827   5.119   8.833 -0.8235 -1.2768  1.1889
   54CHL1   C26 6469   3.654   5.051   8.733 -0.4616 -0.4046 -0.1480
   54CHL1  H26A 6470   3.719   4.973   8.688  0.1932  0.4301 -0.6892
   54CHL1  H26B 6471   3.578   5.009   8.802 -0.6790  1.2711  0.6902
   54CHL1  H26C 6472   3.587   5.092   8.654 -1.3991 -3.7749 -1.2851
   54CHL1   C27 6473   3.799   5.266   8.696 -0.4707  0.2067 -0.7630
   54CHL1  H27A 6474   3.851   5.352   8.745 -2.3006  1.0902 -0.2675
   54CHL1  H27B 6475   3.860   5.207   8.626 -1.2784 -0.8745 -0.5799
   54CHL1  H27C 6476   3.719   5.316   8.636 -0.5273  2.3303  0.9366
   55CHL1    C3 6477   3.441   3.605  10.145  0.0097  0.0508  0.2231
   55CHL1    H3 6478   3.339   3.561  10.144  0.5239 -1.1780 -0.8545
   55CHL1    O3 6479   3.488   3.580  10.276  0.2268 -0.4907  0.0434
   55CHL1   H3' 6480   3.527   3.658  10.317 -0.1667 -0.0935 -0.3262
   55CHL1    C4 6481   3.533   3.528  10.048  0.1567  0.3344 -0.4904
   55CHL1   H4A 6482   3.642   3.550  10.054  0.0746  0.5838  0.1574
   55CHL1   H4B 6483   3.513   3.421  10.069  0.6454 -0.0737 -1.9775
   55CHL1    C5 6484   3.488   3.566   9.905 -0.0403  0.8194 -0.8252
   55CHL1    C6 6485   3.462   3.475   9.811 -0.0487 -0.1886  0.3420
   55CHL1    H6 6486   3.464   3.370   9.842 -1.1131 -0.9920 -2.0476
   55CHL1    C7 6487   3.431   3.512   9.669 -0.5237  0.4902  0.2998
   55CHL1   H7A 6488   3.483   3.448   9.595 -0.1375  0.4317  0.6129
   55CHL1   H7B 6489   3.322   3.509   9.652 -0.4551 -1.2894  0.0828
   55CHL1    C8 6490   3.487   3.653   9.627 -0.5344  0.9741 -0.2372
   55CHL1    H8 6491   3.598   3.663   9.629 -0.5891  1.6242 -0.2285
   55CHL1   C14 6492   3.443   3.693   9.490  0.2603 -0.5963 -0.1824
   55CHL1   H14 6493   3.332   3.691   9.498  0.2593 -1.4304 -0.3541
   55CHL1   C15 6494   3.458   3.607   9.365 -0.3989 -0.1019 -0.3029
   55CHL1  H15A 6495   3.560   3.563   9.362 -0.5484 -0.4755 -0.0513
   55CHL1  H15B 6496   3.382   3.526   9.358 -2.0674  1.3435  0.3454
   55CHL1   C16 6497   3.432   3.699   9.245  0.3059 -0.1563 -0.6197
   55CHL1  H16A 6498   3.517   3.689   9.174 -0.6387 -0.3363 -1.7605
   55CHL1  H16B 6499   3.334   3.668   9.202 -0.0886 -1.4893  1.1171
   55CHL1   C17 6500   3.427   3.846   9.297  1.4620 -1.2212 -0.5208
   55CHL1   H17 6501   3.322   3.866   9.325  2.3733  3.5614  0.4089
   55CHL1   C13 6502   3.481   3.837   9.441  0.8171  0.3013 -0.4687
   55CHL1   C18 6503   3.643   3.845   9.419 -0.2330 -0.1023 -0.7382
   55CHL1  H18A 6504   3.667   3.952   9.400  1.1429 -0.0072  1.2173
   55CHL1  H18B 6505   3.701   3.816   9.509  0.5670  1.6128 -0.6659
   55CHL1  H18C 6506   3.667   3.782   9.331  0.1440 -0.7450 -0.1826
   55CHL1   C12 6507   3.424   3.941   9.542 -0.4866 -0.4306 -0.3796
   55CHL1  H12A 6508   3.454   4.048   9.539  0.1543 -0.4976  1.6794
   55CHL1  H12B 6509   3.313   3.941   9.549 -0.5032  1.6404 -0.0667
   55CHL1   C11 6510   3.485   3.901   9.688  0.0978  0.0116  0.2075
   55CHL1  H11A 6511   3.594   3.918   9.703  0.1452 -2.0949  3.3342
   55CHL1  H11B 6512   3.431   3.964   9.761 -1.6281  0.9181 -1.7589
   55CHL1    C9 6513   3.444   3.752   9.728  0.3023 -0.6572 -0.1033
   55CHL1    H9 6514   3.333   3.757   9.723  0.3284 -1.4635 -2.2796
   55CHL1   C10 6515   3.486   3.719   9.871 -0.0973 -0.3389  0.4612
   55CHL1   C19 6516   3.633   3.769   9.887  1.0257 -0.1355  0.3068
   55CHL1  H19A 6517   3.697   3.752   9.798 -1.5192 -1.2252 -1.4190
   55CHL1  H19B 6518   3.632   3.879   9.898 -1.5559  0.2884 -2.9630
   55CHL1  H19C 6519   3.684   3.728   9.977  1.1583 -1.7312 -0.4598
   55CHL1    C1 6520   3.390   3.785   9.977  0.7666 -0.5140  0.3173
   55CHL1   H1A 6521   3.397   3.896   9.967  0.8310 -0.6141 -0.8696
   55CHL1   H1B 6522   3.284   3.756   9.966  1.0283 -1.1715 -0.6047
   55CHL1    C2 6523   3.436   3.758  10.113  0.2936  0.2065  0.6232
   55CHL1   H2A 6524   3.366   3.799  10.189 -0.1416 -0.6263  0.6904
   55CHL1   H2B 6525   3.543   3.788  10.122  1.5755 -1.7522 -4.5683
   55CHL1   C20 6526   3.465   3.952   9.193  0.1687 -0.0385 -0.1528
   55CHL1   H20 6527   3.572   3.945   9.163  0.1565  0.8543 -0.4483
   55CHL1   C21 6528   3.427   4.089   9.239 -0.1997  0.2911 -0.0783
   55CHL1  H21A 6529   3.512   4.125   9.300  0.9796  0.5880 -1.8176
   55CHL1  H21B 6530   3.331   4.093   9.295 -1.0281  0.1699 -1.4354
   55CHL1  H21C 6531   3.421   4.163   9.156 -2.9249  0.8631  0.5336
   55CHL1   C22 6532   3.390   3.923   9.054  0.3500 -0.1754 -0.6810
   55CHL1  H22A 6533   3.365   3.816   9.037  2.5514 -0.7338 -0.6733
   55CHL1  H22B 6534   3.291   3.973   9.057  0.9462  1.0220 -0.3954
   55CHL1   C23 6535   3.467   3.960   8.917  0.0546  0.2179  0.1271
   55CHL1  H23A 6536   3.500   4.066   8.909 -0.9263  0.5060 -0.3771
   55CHL1  H23B 6537   3.557   3.895   8.916  1.3974  1.9448  1.5137
   55CHL1   C24 6538   3.379   3.926   8.796  0.0644  0.4518 -0.3992
   55CHL1  H24A 6539   3.345   3.820   8.793 -0.0948  0.4572  0.8049
   55CHL1  H24B 6540   3.284   3.981   8.811 -0.9186 -1.3553  0.3370
   55CHL1   C25 6541   3.457   3.955   8.672 -0.6272  0.8584  0.4098
   55CHL1   H25 6542   3.510   4.050   8.690  1.0345  0.1372 -0.4643
   55CHL1   C26 6543   3.569   3.853   8.646  0.4529  1.2351  0.1521
   55CHL1  H26A 6544   3.513   3.758   8.654  2.1631  0.3111  1.9165
   55CHL1  H26B 6545   3.624   3.870   8.550  2.5135  0.4803  1.1435
   55CHL1  H26C 6546   3.644   3.839   8.726  1.5213  0.3155 -0.9582
   55CHL1   C27 6547   3.371   3.965   8.543 -0.4442 -0.1253  0.1013
   55CHL1  H27A 6548   3.428   4.006   8.458 -0.2457 -0.7859 -0.0934
   55CHL1  H27B 6549   3.340   3.861   8.516  1.5658 -0.8514  0.3920
   55CHL1  H27C 6550   3.281   4.026   8.566 -1.6865 -1.8539  0.0644
   56CHL1    C3 6551   2.100   1.507  10.087 -0.1800 -0.4678 -0.2807
   56CHL1    H3 6552   2.150   1.408  10.078  0.3234 -0.0909 -2.1340
   56CHL1    O3 6553   2.075   1.525  10.228  0.4442 -0.0244  0.1769
   56CHL1   H3' 6554   2.158   1.549  10.271 -0.6451  0.3576  2.2103
   56CHL1    C4 6555   2.191   1.627  10.041 -0.0264 -0.0658  0.8211
   56CHL1   H4A 6556   2.141   1.723  10.064 -1.0789 -0.2490 -0.5022
   56CHL1   H4B 6557   2.286   1.618  10.098 -0.1609  0.2728  1.1004
   56CHL1    C5 6558   2.214   1.627   9.890  0.2160 -0.6325 -0.6498
   56CHL1    C6 6559   2.343   1.626   9.836  0.3037  0.1730  0.2429
   56CHL1    H6 6560   2.428   1.645   9.903  1.7126  3.7241 -2.2112
   56CHL1    C7 6561   2.370   1.632   9.692 -0.9255 -0.2085 -0.3333
   56CHL1   H7A 6562   2.442   1.716   9.684 -0.6965 -0.0928  2.1994
   56CHL1   H7B 6563   2.421   1.543   9.650 -1.9071  0.3719 -2.9462
   56CHL1    C8 6564   2.241   1.678   9.612 -0.0072  0.0463 -1.0179
   56CHL1    H8 6565   2.231   1.788   9.622  2.4022  0.2372 -0.0525
   56CHL1   C14 6566   2.256   1.631   9.472  0.6969 -0.8747  0.1577
   56CHL1   H14 6567   2.264   1.521   9.477 -2.1404 -1.1196  1.4417
   56CHL1   C15 6568   2.386   1.672   9.402  0.1925  0.5005 -0.2986
   56CHL1  H15A 6569   2.418   1.771   9.440 -3.1474  1.5484  0.1682
   56CHL1  H15B 6570   2.466   1.600   9.429 -2.0713 -3.5552 -3.2819
   56CHL1   C16 6571   2.357   1.685   9.253 -0.2567 -0.3404 -0.0060
   56CHL1  H16A 6572   2.361   1.793   9.230 -1.2340 -0.3957 -0.4653
   56CHL1  H16B 6573   2.439   1.637   9.194 -0.2458  0.5146 -0.7041
   56CHL1   C17 6574   2.217   1.627   9.237  0.2420 -0.2682 -0.3017
   56CHL1   H17 6575   2.224   1.517   9.250  0.2507 -0.4484 -1.6356
   56CHL1   C13 6576   2.139   1.663   9.372 -0.5675 -0.2919  0.3813
   56CHL1   C18 6577   2.107   1.816   9.368  1.1285  0.0708 -0.5306
   56CHL1  H18A 6578   2.012   1.828   9.312 -0.1987 -2.1698  1.0550
   56CHL1  H18B 6579   2.082   1.851   9.470 -0.9881 -1.3700 -0.4849
   56CHL1  H18C 6580   2.195   1.870   9.327  1.0559  0.5290 -0.0857
   56CHL1   C12 6581   2.016   1.588   9.421  0.9402  0.2579 -0.3570
   56CHL1  H12A 6582   1.927   1.618   9.361  1.3801 -1.4301 -1.9097
   56CHL1  H12B 6583   2.040   1.481   9.403  4.0905  0.8579 -0.2890
   56CHL1   C11 6584   1.982   1.616   9.566  0.2827  0.1555  0.1961
   56CHL1  H11A 6585   1.952   1.723   9.571 -0.1294 -0.0177  2.1660
   56CHL1  H11B 6586   1.897   1.556   9.603  0.6599 -1.2320 -1.0939
   56CHL1    C9 6587   2.116   1.598   9.661  0.2672 -0.5548 -0.0581
   56CHL1    H9 6588   2.142   1.490   9.655  2.4387 -0.0809 -0.2653
   56CHL1   C10 6589   2.085   1.622   9.809  0.8253  0.8118 -0.8489
   56CHL1   C19 6590   2.023   1.762   9.816  0.1075  0.1952 -0.0344
   56CHL1  H19A 6591   1.916   1.768   9.789  0.2957 -1.0471 -1.1768
   56CHL1  H19B 6592   2.001   1.793   9.920 -0.3804 -0.9528  0.2269
   56CHL1  H19C 6593   2.077   1.832   9.750 -0.4047 -0.4775 -1.2084
   56CHL1    C1 6594   1.998   1.502   9.863  0.3796 -0.0459  0.0994
   56CHL1   H1A 6595   1.896   1.495   9.818  0.5703  3.3946 -1.2233
   56CHL1   H1B 6596   2.048   1.405   9.847  2.3567  0.6692  1.6306
   56CHL1    C2 6597   1.970   1.513  10.014 -0.0055  0.0496 -0.6057
   56CHL1   H2A 6598   1.905   1.433  10.057 -1.3256  1.8424  0.8925
   56CHL1   H2B 6599   1.909   1.604  10.031  1.7564  1.4210 -1.2510
   56CHL1   C20 6600   2.140   1.659   9.103 -0.3697  0.0623 -0.1435
   56CHL1   H20 6601   2.089   1.757   9.115  0.8114  0.6159  0.4864
   56CHL1   C21 6602   2.040   1.537   9.085  0.2504  0.1041 -0.6056
   56CHL1  H21A 6603   1.982   1.559   8.993  0.3366  1.6929 -0.3086
   56CHL1  H21B 6604   1.963   1.512   9.161  1.1515  0.2360  0.3742
   56CHL1  H21C 6605   2.103   1.450   9.059  0.1298 -0.0792 -0.2875
   56CHL1   C22 6606   2.237   1.673   8.984  0.2534  0.0907  0.1267
   56CHL1  H22A 6607   2.303   1.762   8.994  0.3209 -0.1093  1.6838
   56CHL1  H22B 6608   2.295   1.578   8.981  0.4964  0.2471 -2.4770
   56CHL1   C23 6609   2.173   1.696   8.845  0.5819  0.1838  0.7400
   56CHL1  H23A 6610   2.101   1.615   8.823  1.3911  0.1407 -2.1837
   56CHL1  H23B 6611   2.125   1.796   8.837 -0.1656 -0.3204 -3.1075
   56CHL1   C24 6612   2.274   1.709   8.727 -0.4770  0.1358  0.2130
   56CHL1  H24A 6613   2.336   1.800   8.738  0.7563 -0.7050  0.4330
   56CHL1  H24B 6614   2.343   1.623   8.712 -1.5919 -0.5841 -1.0060
   56CHL1   C25 6615   2.201   1.729   8.589 -0.1223 -0.2619 -0.2509
   56CHL1   H25 6616   2.129   1.647   8.567 -0.9744  0.6926 -1.1257
   56CHL1   C26 6617   2.116   1.864   8.584  0.2094  0.2472  0.3463
   56CHL1  H26A 6618   2.140   1.920   8.491  0.3954  2.7009  1.7792
   56CHL1  H26B 6619   2.006   1.848   8.596  0.0688 -1.5714 -2.5272
   56CHL1  H26C 6620   2.152   1.939   8.658 -1.5617 -0.0632  1.6023
   56CHL1   C27 6621   2.301   1.722   8.471  0.5241  0.4795  0.4007
   56CHL1  H27A 6622   2.351   1.820   8.457 -2.1992  1.7846 -0.9987
   56CHL1  H27B 6623   2.373   1.639   8.487  0.4538 -0.1561 -2.2387
   56CHL1  H27C 6624   2.255   1.694   8.374  2.5105 -1.6559  0.0007
   57CHL1    C3 6625   4.949   5.052  10.204  0.9792  0.3674 -0.4855
   57CHL1    H3 6626   4.850   5.061  10.153  1.1833 -1.0599 -1.1671
   57CHL1    O3 6627   4.922   5.048  10.344 -0.1805 -0.1222 -0.8703
   57CHL1   H3' 6628   5.004   5.017  10.385 -1.1790  0.4063  1.6664
   57CHL1    C4 6629   5.020   4.922  10.167 -0.8200 -0.1033 -0.1944
   57CHL1   H4A 6630   5.112   4.914  10.229 -1.6589 -0.5061  1.0543
   57CHL1   H4B 6631   4.953   4.837  10.195 -1.3715  0.6248  0.7522
   57CHL1    C5 6632   5.066   4.925  10.025  0.5967  0.1856 -0.1181
   57CHL1    C6 6633   5.021   4.828   9.941  0.0636  0.2464  0.2153
   57CHL1    H6 6634   4.949   4.752   9.974  0.3676 -0.2814 -0.3148
   57CHL1    C7 6635   5.074   4.815   9.800  0.0355  0.2183  0.7449
   57CHL1   H7A 6636   5.093   4.707   9.780  0.5175  0.3553  0.4489
   57CHL1   H7B 6637   4.988   4.839   9.733  0.4807  2.2873  0.8538
   57CHL1    C8 6638   5.196   4.902   9.775  0.3906  1.2457  0.1270
   57CHL1    H8 6639   5.281   4.854   9.827  0.1195  0.5922 -0.0115
   57CHL1   C14 6640   5.220   4.903   9.628 -0.4514  1.1190 -0.3092
   57CHL1   H14 6641   5.132   4.948   9.578  0.1815  3.2387  0.3807
   57CHL1   C15 6642   5.249   4.767   9.564  0.9370 -0.5197 -0.0695
   57CHL1  H15A 6643   5.317   4.709   9.630  0.4572  0.7413  1.6034
   57CHL1  H15B 6644   5.155   4.710   9.548  0.6038  0.2184 -0.8120
   57CHL1   C16 6645   5.316   4.805   9.424  0.2492 -0.3939  0.1607
   57CHL1  H16A 6646   5.404   4.737   9.413  1.0706  0.7224 -0.4337
   57CHL1  H16B 6647   5.246   4.789   9.340  2.9007 -2.0575 -1.9108
   57CHL1   C17 6648   5.351   4.958   9.439  0.7362  0.0961 -1.0981
   57CHL1   H17 6649   5.256   4.999   9.399 -0.4118 -1.2773  0.1255
   57CHL1   C13 6650   5.348   4.981   9.593 -0.0552 -0.8728  0.5457
   57CHL1   C18 6651   5.478   4.914   9.651  0.1293  0.0839  0.4959
   57CHL1  H18A 6652   5.468   4.885   9.758 -1.6389  0.3539  0.4426
   57CHL1  H18B 6653   5.507   4.824   9.593 -0.0903  0.4258 -0.1518
   57CHL1  H18C 6654   5.559   4.989   9.642 -0.0440  0.1039 -1.2875
   57CHL1   C12 6655   5.337   5.123   9.631  0.1525 -1.1980 -0.2485
   57CHL1  H12A 6656   5.431   5.183   9.627 -1.4783  1.5580 -0.0621
   57CHL1  H12B 6657   5.267   5.185   9.571  1.1377  1.2244  0.9428
   57CHL1   C11 6658   5.300   5.135   9.780  0.1220 -0.3656  0.4933
   57CHL1  H11A 6659   5.399   5.118   9.828  2.7888  1.1000 -3.8316
   57CHL1  H11B 6660   5.259   5.236   9.803 -2.3563 -0.9883 -0.8923
   57CHL1    C9 6661   5.181   5.042   9.828 -0.3772 -0.2545  0.1238
   57CHL1    H9 6662   5.095   5.095   9.782 -0.8142  0.5492  1.7916
   57CHL1   C10 6663   5.150   5.040   9.982 -0.4758 -0.5386  0.4395
   57CHL1   C19 6664   5.285   5.023  10.058  0.8947 -0.7332 -0.8630
   57CHL1  H19A 6665   5.369   5.089  10.026  0.5136  0.0601 -0.2651
   57CHL1  H19B 6666   5.280   5.033  10.168  0.9643  2.7698 -1.0642
   57CHL1  H19C 6667   5.316   4.919  10.037 -1.0205 -1.7591  1.0109
   57CHL1    C1 6668   5.068   5.163  10.019  0.5879 -0.6612  0.7854
   57CHL1   H1A 6669   5.113   5.258   9.983 -0.9657  0.2663  1.2155
   57CHL1   H1B 6670   4.971   5.165   9.965 -0.3400 -0.7269  2.3784
   57CHL1    C2 6671   5.032   5.177  10.164  0.0361  0.0500  0.2063
   57CHL1   H2A 6672   4.963   5.264  10.170 -3.9767 -2.9488  1.6679
   57CHL1   H2B 6673   5.121   5.184  10.230  0.4881 -1.3756 -0.2159
   57CHL1   C20 6674   5.466   5.009   9.349 -0.2278 -0.0240 -0.0532
   57CHL1   H20 6675   5.563   5.014   9.403  0.0216 -1.8912 -0.2711
   57CHL1   C21 6676   5.430   5.152   9.311  0.0596  0.2154  0.3593
   57CHL1  H21A 6677   5.513   5.207   9.260 -0.9856  0.8313 -0.7458
   57CHL1  H21B 6678   5.393   5.216   9.394  0.3870  1.6883 -0.5759
   57CHL1  H21C 6679   5.344   5.138   9.242 -0.0517  1.2965  0.2542
   57CHL1   C22 6680   5.501   4.918   9.227 -0.3596 -0.9999  0.0200
   57CHL1  H22A 6681   5.596   4.970   9.203 -1.4553  0.5977 -1.1517
   57CHL1  H22B 6682   5.520   4.812   9.254 -0.2119 -0.6726  1.2388
   57CHL1   C23 6683   5.411   4.923   9.101  0.2687 -0.8615  0.8093
   57CHL1  H23A 6684   5.310   4.880   9.119  0.3013 -1.6002 -0.6814
   57CHL1  H23B 6685   5.387   5.024   9.062  1.1368 -0.7376  0.5726
   57CHL1   C24 6686   5.469   4.839   8.985 -0.9096  0.2705  0.5521
   57CHL1  H24A 6687   5.553   4.896   8.938 -0.5518  0.5986  1.5547
   57CHL1  H24B 6688   5.505   4.741   9.023  0.8331  0.0765 -1.3744
   57CHL1   C25 6689   5.374   4.788   8.871 -0.2109  0.3904 -0.0979
   57CHL1   H25 6690   5.435   4.724   8.805  0.7864 -0.6728  1.7663
   57CHL1   C26 6691   5.263   4.699   8.933 -0.9435  0.0598  0.9114
   57CHL1  H26A 6692   5.233   4.742   9.031  1.5272  0.3858  1.5939
   57CHL1  H26B 6693   5.185   4.674   8.858  1.9329  0.2251 -2.4446
   57CHL1  H26C 6694   5.310   4.605   8.971 -0.8346 -0.4891 -0.4992
   57CHL1   C27 6695   5.312   4.903   8.786 -0.5251  0.4066 -0.1514
   57CHL1  H27A 6696   5.226   4.870   8.723  0.5281 -0.3540 -1.2504
   57CHL1  H27B 6697   5.274   4.988   8.845 -0.4479 -1.0748  2.1471
   57CHL1  H27C 6698   5.385   4.929   8.707  1.2673 -1.4839  0.8037
   58CHL1    C3 6699   5.682   4.446   9.900  0.1205  0.3751 -0.5301
   58CHL1    H3 6700   5.607   4.376   9.858  0.0520 -0.6843  1.2737
   58CHL1    O3 6701   5.680   4.442  10.046 -0.0133  0.0333  0.0912
   58CHL1   H3' 6702   5.712   4.527  10.075 -2.7808  0.8557  1.0719
   58CHL1    C4 6703   5.815   4.392   9.839 -0.0165  0.5233  0.6715
   58CHL1   H4A 6704   5.904   4.452   9.869  1.3518  0.5208 -2.8513
   58CHL1   H4B 6705   5.829   4.293   9.887  1.2502  1.2460  1.8892
   58CHL1    C5 6706   5.811   4.401   9.687 -0.4437 -0.1260 -1.0861
   58CHL1    C6 6707   5.829   4.296   9.608  0.8015 -0.1093 -0.3343
   58CHL1    H6 6708   5.843   4.194   9.645 -2.3830 -0.4351  0.2612
   58CHL1    C7 6709   5.850   4.301   9.458  0.2214  0.6094 -0.1645
   58CHL1   H7A 6710   5.943   4.242   9.441 -1.0404 -1.8216  0.7876
   58CHL1   H7B 6711   5.772   4.242   9.405  0.4246 -1.0822  1.3120
   58CHL1    C8 6712   5.862   4.435   9.399 -0.3356 -0.3806 -0.4331
   58CHL1    H8 6713   5.966   4.470   9.419 -0.4796  1.2076 -2.1641
   58CHL1   C14 6714   5.829   4.441   9.254 -0.1305  0.2053 -0.1109
   58CHL1   H14 6715   5.727   4.401   9.243  0.1268 -0.0512 -1.8017
   58CHL1   C15 6716   5.921   4.353   9.165  0.0462 -0.3963 -0.2108
   58CHL1  H15A 6717   6.029   4.358   9.191 -0.0193  0.4321 -0.0683
   58CHL1  H15B 6718   5.893   4.246   9.179  0.1127 -0.8196 -2.7246
   58CHL1   C16 6719   5.883   4.390   9.019  0.5166  0.1120  0.1764
   58CHL1  H16A 6720   5.971   4.376   8.953  0.9027  0.4278  0.6130
   58CHL1  H16B 6721   5.807   4.320   8.979  1.0802  0.0193 -0.7575
   58CHL1   C17 6722   5.813   4.527   9.039  0.4010  0.4244  0.4577
   58CHL1   H17 6723   5.705   4.505   9.025  0.4782 -0.6671  1.4471
   58CHL1   C13 6724   5.831   4.570   9.185  0.4699 -0.3588  0.1630
   58CHL1   C18 6725   5.971   4.634   9.199 -0.0457 -0.1978 -0.1718
   58CHL1  H18A 6726   5.985   4.726   9.139  2.1022  0.5449  1.3007
   58CHL1  H18B 6727   5.994   4.665   9.304  1.3030 -0.7929 -0.2660
   58CHL1  H18C 6728   6.056   4.570   9.166  0.0768 -0.3392  0.4029
   58CHL1   C12 6729   5.728   4.661   9.248 -0.5201 -0.1050 -0.4627
   58CHL1  H12A 6730   5.734   4.763   9.204 -1.1409  1.6935  3.1699
   58CHL1  H12B 6731   5.625   4.621   9.236  0.1125 -1.6279 -1.0598
   58CHL1   C11 6732   5.751   4.666   9.406  0.9393  0.3293  0.0795
   58CHL1  H11A 6733   5.849   4.714   9.427  2.1809 -1.5728 -1.0597
   58CHL1  H11B 6734   5.674   4.734   9.449  1.0458  0.8663 -0.5505
   58CHL1    C9 6735   5.765   4.529   9.480 -0.6745 -0.1792 -0.9712
   58CHL1    H9 6736   5.665   4.482   9.465 -0.2026 -0.3296 -4.8216
   58CHL1   C10 6737   5.794   4.542   9.630  0.7783  0.0288 -0.5758
   58CHL1   C19 6738   5.916   4.632   9.669 -0.3308  0.4731 -0.4863
   58CHL1  H19A 6739   6.005   4.600   9.611  1.3419  0.0742  2.1265
   58CHL1  H19B 6740   5.890   4.739   9.651  1.2113  1.1485  1.0364
   58CHL1  H19C 6741   5.950   4.622   9.774 -1.3438  1.5795 -0.0302
   58CHL1    C1 6742   5.673   4.614   9.707  0.0630  0.3975  0.4279
   58CHL1   H1A 6743   5.674   4.724   9.700  0.6391  0.3908  0.3568
   58CHL1   H1B 6744   5.582   4.566   9.665  1.3479 -0.9689 -0.9691
   58CHL1    C2 6745   5.672   4.595   9.863 -0.5595  0.0474 -0.4065
   58CHL1   H2A 6746   5.587   4.652   9.907  0.5351  1.1491  0.3259
   58CHL1   H2B 6747   5.762   4.650   9.895 -0.2624  0.2328 -1.5209
   58CHL1   C20 6748   5.832   4.626   8.923 -0.3731  0.3173  0.5850
   58CHL1   H20 6749   5.827   4.733   8.955  3.5773 -0.1292  3.4102
   58CHL1   C21 6750   5.715   4.606   8.820 -0.2381  0.0629  0.1838
   58CHL1  H21A 6751   5.618   4.613   8.872  0.0119  0.2071  0.6411
   58CHL1  H21B 6752   5.721   4.511   8.762 -1.0834  1.7273 -2.8266
   58CHL1  H21C 6753   5.712   4.684   8.741  0.8327 -1.7798 -1.8019
   58CHL1   C22 6754   5.960   4.618   8.841 -0.0393 -0.3398  0.0912
   58CHL1  H22A 6755   6.046   4.614   8.912 -0.1041  0.2421  0.2076
   58CHL1  H22B 6756   5.955   4.516   8.798  1.0635 -0.9104  1.2640
   58CHL1   C23 6757   5.972   4.720   8.731  0.3676 -0.1427 -0.1125
   58CHL1  H23A 6758   5.933   4.683   8.633  0.9955  1.2776 -0.9304
   58CHL1  H23B 6759   5.927   4.817   8.762  0.4587 -0.8007  2.3206
   58CHL1   C24 6760   6.120   4.744   8.703 -1.0367  0.0077  0.0169
   58CHL1  H24A 6761   6.125   4.821   8.622  2.4705 -1.0127 -0.9013
   58CHL1  H24B 6762   6.169   4.774   8.799 -1.4418  0.6175  0.0390
   58CHL1   C25 6763   6.196   4.619   8.645 -0.2394  0.1946  0.1212
   58CHL1   H25 6764   6.166   4.531   8.706  0.1178 -1.4543 -1.9598
   58CHL1   C26 6765   6.151   4.585   8.501 -0.3012 -0.9031  0.1808
   58CHL1  H26A 6766   6.207   4.497   8.464  1.2726  0.8104 -1.7793
   58CHL1  H26B 6767   6.043   4.560   8.493 -0.8294  1.0002  0.7783
   58CHL1  H26C 6768   6.178   4.664   8.427  0.3237 -0.8517  0.4563
   58CHL1   C27 6769   6.351   4.634   8.662 -0.9997  0.0400 -0.1632
   58CHL1  H27A 6770   6.399   4.553   8.603 -1.7881 -0.0052 -0.7619
   58CHL1  H27B 6771   6.388   4.732   8.625  0.2879 -0.9162 -1.5441
   58CHL1  H27C 6772   6.379   4.620   8.768 -0.9868 -0.6137 -0.2457
   59CHL1    C3 6773   0.912   2.444   9.957 -0.0226  0.4469  1.1073
   59CHL1    H3 6774   1.013   2.401   9.973  0.5360  1.8065  1.4307
   59CHL1    O3 6775   0.858   2.476  10.080  0.0174  0.0444  0.1232
   59CHL1   H3' 6776   0.858   2.402  10.141 -2.7523  1.3425  1.9269
   59CHL1    C4 6777   0.929   2.572   9.878  0.4976  0.6622 -0.4356
   59CHL1   H4A 6778   0.835   2.631   9.891  0.1585  0.0692 -0.2001
   59CHL1   H4B 6779   1.009   2.629   9.929  1.7893 -1.1114 -0.4090
   59CHL1    C5 6780   0.958   2.574   9.731  0.1676  0.4035 -0.4000
   59CHL1    C6 6781   1.051   2.642   9.663 -0.7727 -0.2223  0.1723
   59CHL1    H6 6782   1.123   2.704   9.719 -0.0797 -0.2733 -0.6523
   59CHL1    C7 6783   1.079   2.637   9.517 -0.0221 -0.4664 -0.0398
   59CHL1   H7A 6784   1.109   2.738   9.481  1.0656 -0.6275  0.3868
   59CHL1   H7B 6785   1.163   2.571   9.484 -0.9479 -1.1771 -1.0525
   59CHL1    C8 6786   0.963   2.585   9.434  0.2034  0.6401 -0.2572
   59CHL1    H8 6787   0.883   2.662   9.442 -0.5034 -0.2570  5.1677
   59CHL1   C14 6788   1.006   2.548   9.290  0.1666 -0.1872 -0.7736
   59CHL1   H14 6789   1.072   2.460   9.302 -0.5945 -0.7671 -0.7288
   59CHL1   C15 6790   1.072   2.658   9.203 -0.0622  0.3483 -0.0884
   59CHL1  H15A 6791   1.009   2.749   9.214  0.3742  0.3882  2.9644
   59CHL1  H15B 6792   1.172   2.687   9.239 -0.8038  0.4263  2.0360
   59CHL1   C16 6793   1.067   2.601   9.061 -0.0486 -0.5638 -0.7689
   59CHL1  H16A 6794   1.005   2.673   9.003  0.2213 -0.7822 -1.3363
   59CHL1  H16B 6795   1.168   2.572   9.024  0.0837 -2.8582  1.1188
   59CHL1   C17 6796   0.984   2.466   9.077 -0.2837  0.7142  0.4242
   59CHL1   H17 6797   1.064   2.390   9.093  1.0585  2.3338  1.7568
   59CHL1   C13 6798   0.897   2.489   9.202 -0.2611 -1.0458  0.0830
   59CHL1   C18 6799   0.778   2.595   9.177  0.1230 -0.6392  0.1484
   59CHL1  H18A 6800   0.820   2.678   9.116  2.4240 -1.1249  0.9542
   59CHL1  H18B 6801   0.696   2.545   9.120 -0.8384 -1.8948  2.4965
   59CHL1  H18C 6802   0.739   2.632   9.274  1.3168 -0.3949  0.5571
   59CHL1   C12 6803   0.837   2.368   9.270 -0.1760 -0.0204  0.3021
   59CHL1  H12A 6804   0.743   2.336   9.220  0.3028 -1.7964  0.4752
   59CHL1  H12B 6805   0.908   2.283   9.280  0.7379  0.7175  0.2824
   59CHL1   C11 6806   0.795   2.400   9.409  0.3871  0.0823 -1.0207
   59CHL1  H11A 6807   0.705   2.464   9.412  0.3422  0.0436 -1.4563
   59CHL1  H11B 6808   0.776   2.301   9.455 -2.0401  0.4957 -1.0427
   59CHL1    C9 6809   0.905   2.457   9.499  0.2905  0.1446  0.0175
   59CHL1    H9 6810   0.990   2.385   9.500 -0.2890 -0.5525 -0.1308
   59CHL1   C10 6811   0.852   2.482   9.655 -0.3214 -0.1898  0.0255
   59CHL1   C19 6812   0.712   2.545   9.649  0.0925 -0.9214 -0.1099
   59CHL1  H19A 6813   0.691   2.577   9.753  2.4924  1.2608 -0.2093
   59CHL1  H19B 6814   0.701   2.643   9.597 -2.9980  0.0387  2.0487
   59CHL1  H19C 6815   0.634   2.471   9.620 -1.5703 -0.5044  2.8947
   59CHL1    C1 6816   0.853   2.340   9.726  0.2664 -0.4309  0.0623
   59CHL1   H1A 6817   0.784   2.270   9.674 -3.0545  0.9390  2.2051
   59CHL1   H1B 6818   0.955   2.300   9.708 -0.9352 -3.4724 -0.7022
   59CHL1    C2 6819   0.813   2.346   9.877 -0.1410 -0.7036 -0.1663
   59CHL1   H2A 6820   0.822   2.249   9.930  0.7646 -0.2139  0.6206
   59CHL1   H2B 6821   0.711   2.385   9.895  0.2459 -0.6478  2.4010
   59CHL1   C20 6822   0.901   2.439   8.946  0.6296 -0.4888 -0.1774
   59CHL1   H20 6823   0.841   2.527   8.915  2.4502  0.7982 -0.2167
   59CHL1   C21 6824   0.805   2.317   8.967  0.6807  0.2249  0.0413
   59CHL1  H21A 6825   0.778   2.291   8.862 -0.8390  1.0072  0.2190
   59CHL1  H21B 6826   0.713   2.356   9.013  2.0892  1.5622  1.8604
   59CHL1  H21C 6827   0.844   2.229   9.023 -0.0304  0.5753  1.0930
   59CHL1   C22 6828   0.983   2.410   8.823 -0.6794 -0.2590  0.0331
   59CHL1  H22A 6829   1.089   2.439   8.836 -1.3937  2.1418  1.1488
   59CHL1  H22B 6830   0.983   2.300   8.808 -0.2245 -0.3020  0.3345
   59CHL1   C23 6831   0.937   2.480   8.707  0.0921 -0.1232  0.7457
   59CHL1  H23A 6832   0.827   2.469   8.702  0.1298 -0.0298 -0.4938
   59CHL1  H23B 6833   0.952   2.589   8.719 -1.1465  0.1990 -0.3465
   59CHL1   C24 6834   0.999   2.429   8.570  0.3509  1.0105 -0.5728
   59CHL1  H24A 6835   1.109   2.432   8.586  0.1197  0.4943  1.4813
   59CHL1  H24B 6836   0.963   2.325   8.559 -0.6185  0.6897  3.6936
   59CHL1   C25 6837   0.964   2.518   8.447  0.4051  0.5522  0.0636
   59CHL1   H25 6838   0.985   2.624   8.475  0.7356  0.3934  0.4240
   59CHL1   C26 6839   1.071   2.488   8.337 -0.3014 -0.6795 -0.2029
   59CHL1  H26A 6840   1.170   2.512   8.382  0.7827  0.9281 -3.1003
   59CHL1  H26B 6841   1.054   2.380   8.321 -1.1697 -0.3307 -1.8546
   59CHL1  H26C 6842   1.048   2.546   8.245 -1.2073  0.5259  0.7521
   59CHL1   C27 6843   0.820   2.490   8.397 -0.2903  0.0029  0.2553
   59CHL1  H27A 6844   0.792   2.556   8.312  1.1076 -0.5306 -0.6491
   59CHL1  H27B 6845   0.813   2.382   8.375 -0.1621 -0.6104  2.8943
   59CHL1  H27C 6846   0.753   2.508   8.484 -0.7566 -1.0103  0.1190
   60CHL1    C3 6847   0.555   1.405   9.967 -0.3066 -0.0634  0.3606
   60CHL1    H3 6848   0.657   1.373   9.937 -0.0485  2.6844 -2.0993
   60CHL1    O3 6849   0.547   1.435  10.105 -0.3361 -0.4597  0.5891
   60CHL1   H3' 6850   0.454   1.435  10.129 -0.1281 -1.7059  1.4711
   60CHL1    C4 6851   0.532   1.531   9.897  0.2400 -0.3674 -0.2843
   60CHL1   H4A 6852   0.431   1.567   9.927  0.1867 -2.0927  1.9222
   60CHL1   H4B 6853   0.603   1.612   9.923 -0.5932  0.9573 -1.9641
   60CHL1    C5 6854   0.526   1.502   9.750 -0.2058  0.1695  0.2679
   60CHL1    C6 6855   0.608   1.570   9.669  0.1175 -0.4399 -0.0444
   60CHL1    H6 6856   0.681   1.644   9.706 -0.9897  0.9213 -0.4861
   60CHL1    C7 6857   0.612   1.555   9.517  0.8000  0.0386 -0.7134
   60CHL1   H7A 6858   0.611   1.656   9.472 -0.6464  0.5616  0.4238
   60CHL1   H7B 6859   0.712   1.515   9.488  3.4888  2.7236  3.6794
   60CHL1    C8 6860   0.490   1.476   9.468 -0.0808  0.5017 -0.1258
   60CHL1    H8 6861   0.402   1.544   9.468  1.6793  3.0305  3.0107
   60CHL1   C14 6862   0.515   1.418   9.326 -0.2276 -1.0479 -0.2211
   60CHL1   H14 6863   0.606   1.356   9.339 -0.7068 -1.3897  1.8256
   60CHL1   C15 6864   0.555   1.514   9.216  0.1488  0.1213 -0.9252
   60CHL1  H15A 6865   0.504   1.612   9.228  1.5142  0.6580  1.0348
   60CHL1  H15B 6866   0.662   1.545   9.218  1.0568 -2.7603  0.6236
   60CHL1   C16 6867   0.524   1.442   9.088  0.3841 -0.6162 -0.2559
   60CHL1  H16A 6868   0.447   1.498   9.030 -0.5850 -1.2988  0.3550
   60CHL1  H16B 6869   0.610   1.438   9.018  0.8923 -0.0046  0.3249
   60CHL1   C17 6870   0.447   1.310   9.125 -0.4757 -0.1582  0.8458
   60CHL1   H17 6871   0.529   1.236   9.120  2.6762  3.1287 -1.7568
   60CHL1   C13 6872   0.399   1.340   9.268 -0.1714 -0.5026  0.3270
   60CHL1   C18 6873   0.279   1.426   9.257 -0.1853 -0.1311  0.2195
   60CHL1  H18A 6874   0.288   1.503   9.178 -3.2822  0.4179  0.3112
   60CHL1  H18B 6875   0.189   1.366   9.235 -1.5046  1.0731  1.9852
   60CHL1  H18C 6876   0.252   1.481   9.350  1.8277 -0.7665  1.2431
   60CHL1   C12 6877   0.377   1.215   9.351  0.3147 -0.7366  0.5544
   60CHL1  H12A 6878   0.285   1.160   9.322 -0.4946  0.7342  0.2241
   60CHL1  H12B 6879   0.457   1.138   9.343  1.0472  0.1752 -2.0824
   60CHL1   C11 6880   0.350   1.266   9.492  0.2266 -0.2968 -0.3899
   60CHL1  H11A 6881   0.252   1.319   9.496 -0.3562 -1.3905  0.7565
   60CHL1  H11B 6882   0.332   1.185   9.566  2.2584  0.6961  1.3007
   60CHL1    C9 6883   0.462   1.360   9.553 -0.6583 -0.3317 -0.3945
   60CHL1    H9 6884   0.549   1.293   9.570 -0.8239 -0.2770  0.7536
   60CHL1   C10 6885   0.432   1.398   9.705  0.5903  0.3660  0.5222
   60CHL1   C19 6886   0.292   1.463   9.720  0.4754 -0.2100 -0.1868
   60CHL1  H19A 6887   0.289   1.568   9.682  1.6330 -0.0657  0.0997
   60CHL1  H19B 6888   0.219   1.392   9.676  0.1561 -0.1590  0.2561
   60CHL1  H19C 6889   0.261   1.478   9.826 -0.8138 -0.3361 -0.5247
   60CHL1    C1 6890   0.428   1.270   9.792 -0.4016 -0.2126  0.6077
   60CHL1   H1A 6891   0.335   1.213   9.770  0.5177 -1.3935 -0.3793
   60CHL1   H1B 6892   0.523   1.217   9.771  0.7347  1.7942  0.3984
   60CHL1    C2 6893   0.440   1.308   9.940  0.5668  0.1298  0.3429
   60CHL1   H2A 6894   0.456   1.212   9.993  0.2658 -0.1627 -0.0965
   60CHL1   H2B 6895   0.348   1.353   9.984  0.9844  0.5981  0.7554
   60CHL1   C20 6896   0.351   1.277   9.018  0.8236  0.2577 -0.3653
   60CHL1   H20 6897   0.274   1.356   9.009 -2.1691 -2.3874  0.2158
   60CHL1   C21 6898   0.285   1.138   9.051 -0.3996  0.0176 -0.8814
   60CHL1  H21A 6899   0.357   1.062   9.088 -1.2530 -0.1082  0.5695
   60CHL1  H21B 6900   0.226   1.101   8.963 -2.1544  1.4305 -0.3664
   60CHL1  H21C 6901   0.214   1.153   9.135  2.7027  1.3932  1.6895
   60CHL1   C22 6902   0.412   1.264   8.871 -0.2059 -0.4714  0.5453
   60CHL1  H22A 6903   0.327   1.231   8.807 -0.8273  0.4489  0.8707
   60CHL1  H22B 6904   0.447   1.367   8.846 -2.0740 -0.5032 -2.6860
   60CHL1   C23 6905   0.528   1.157   8.852  0.1061  0.2414 -0.5381
   60CHL1  H23A 6906   0.600   1.155   8.936  1.1037 -0.4565 -1.3823
   60CHL1  H23B 6907   0.482   1.057   8.838 -2.3323  1.2757 -0.2526
   60CHL1   C24 6908   0.608   1.187   8.726 -0.3128 -0.3961 -0.4759
   60CHL1  H24A 6909   0.538   1.206   8.641 -0.2834  1.7742 -0.0788
   60CHL1  H24B 6910   0.662   1.282   8.742  2.3157 -1.9372  0.2693
   60CHL1   C25 6911   0.709   1.073   8.696 -0.3758  0.1765  0.1883
   60CHL1   H25 6912   0.656   0.979   8.672  0.7534 -0.9482  1.8661
   60CHL1   C26 6913   0.795   1.113   8.575 -0.4351 -0.2686  0.6936
   60CHL1  H26A 6914   0.842   1.213   8.586 -0.3131 -0.0950 -1.0488
   60CHL1  H26B 6915   0.867   1.029   8.571  0.8092  0.6917  1.9390
   60CHL1  H26C 6916   0.723   1.118   8.490 -1.6914  0.2913  1.7582
   60CHL1   C27 6917   0.808   1.036   8.811 -0.8048  0.1844 -0.0037
   60CHL1  H27A 6918   0.752   1.007   8.903 -0.8394 -0.8687 -0.3402
   60CHL1  H27B 6919   0.859   0.947   8.769 -0.5879  0.1032  0.4201
   60CHL1  H27C 6920   0.880   1.118   8.833 -3.1031  2.1511  0.7108
   61CHL1    C3 6921   3.714   0.534  10.404  0.3416  0.3360  0.3988
   61CHL1    H3 6922   3.791   0.613  10.422  0.0550  0.2562  2.1732
   61CHL1    O3 6923   3.659   0.479  10.522  0.2084  0.0856 -0.3158
   61CHL1   H3' 6924   3.588   0.538  10.548 -0.8274 -1.4987  0.6168
   61CHL1    C4 6925   3.601   0.601  10.322  0.0782  0.5482 -0.3779
   61CHL1   H4A 6926   3.509   0.539  10.321 -0.6313  1.5422 -1.6228
   61CHL1   H4B 6927   3.572   0.688  10.386 -2.7639 -0.6414  0.0844
   61CHL1    C5 6928   3.632   0.630  10.177  0.1600  0.2132 -0.3013
   61CHL1    C6 6929   3.611   0.757  10.125  0.0598  0.2582  0.2190
   61CHL1    H6 6930   3.559   0.837  10.181 -1.2256  0.3211 -1.0131
   61CHL1    C7 6931   3.637   0.796   9.983 -0.2799  0.5892  0.1665
   61CHL1   H7A 6932   3.558   0.854   9.930  0.3484  0.1840 -1.2722
   61CHL1   H7B 6933   3.732   0.854   9.978 -0.2060  0.3855 -1.3053
   61CHL1    C8 6934   3.682   0.680   9.892 -0.5066  0.2156 -0.5478
   61CHL1    H8 6935   3.584   0.630   9.879  0.7592 -2.6778  0.0514
   61CHL1   C14 6936   3.742   0.728   9.767 -0.1453 -0.2056  0.2804
   61CHL1   H14 6937   3.838   0.779   9.789  0.5285 -1.2153 -0.2221
   61CHL1   C15 6938   3.666   0.837   9.675  0.3838  0.7188 -0.0814
   61CHL1  H15A 6939   3.562   0.802   9.666  0.6188  0.0866 -0.3705
   61CHL1  H15B 6940   3.668   0.941   9.716 -0.4410  0.7819 -0.1834
   61CHL1   C16 6941   3.738   0.824   9.539  0.1729 -0.2765 -0.5673
   61CHL1  H16A 6942   3.661   0.805   9.461 -1.4067  1.2949  0.5157
   61CHL1  H16B 6943   3.779   0.923   9.510  0.7436 -0.3712 -0.0963
   61CHL1   C17 6944   3.825   0.700   9.557 -0.9242 -0.1878  0.8513
   61CHL1   H17 6945   3.921   0.731   9.603 -0.2829 -1.1458  0.1793
   61CHL1   C13 6946   3.765   0.616   9.671 -0.0848 -0.3190 -0.1745
   61CHL1   C18 6947   3.628   0.548   9.634  0.0773 -0.1896 -0.2712
   61CHL1  H18A 6948   3.655   0.452   9.584  0.4690 -0.4755  0.4849
   61CHL1  H18B 6949   3.585   0.509   9.728  0.5318 -3.0950 -1.1777
   61CHL1  H18C 6950   3.555   0.613   9.580 -0.8357 -1.2281 -0.3322
   61CHL1   C12 6951   3.870   0.519   9.734 -0.8510  0.1620  0.0410
   61CHL1  H12A 6952   3.885   0.439   9.658  0.7325  0.0431  0.4418
   61CHL1  H12B 6953   3.960   0.583   9.748 -1.1041  1.3548 -2.9456
   61CHL1   C11 6954   3.819   0.467   9.867  0.1951 -0.1396  0.4898
   61CHL1  H11A 6955   3.731   0.404   9.844  1.0012 -0.2004 -2.8652
   61CHL1  H11B 6956   3.901   0.409   9.916  0.8893 -0.8333 -1.4115
   61CHL1    C9 6957   3.769   0.581   9.962  0.6035  0.0111 -0.0241
   61CHL1    H9 6958   3.863   0.635   9.987  0.7033  0.1038 -0.5809
   61CHL1   C10 6959   3.709   0.523  10.089  0.6516  0.8789 -0.4948
   61CHL1   C19 6960   3.603   0.406  10.067  0.1765  0.5501  0.4766
   61CHL1  H19A 6961   3.662   0.313  10.060 -0.5384 -0.0077  1.6484
   61CHL1  H19B 6962   3.535   0.391  10.154  0.4729 -0.3889  0.5553
   61CHL1  H19C 6963   3.542   0.421   9.975  2.6562 -1.0072 -1.5307
   61CHL1    C1 6964   3.824   0.470  10.183 -0.2126  0.3582 -0.4935
   61CHL1   H1A 6965   3.873   0.389  10.125 -2.3049 -0.6398 -0.9633
   61CHL1   H1B 6966   3.895   0.552  10.203 -1.3230  1.3821 -0.6452
   61CHL1    C2 6967   3.783   0.421  10.318  0.3144 -0.3917 -0.1403
   61CHL1   H2A 6968   3.868   0.385  10.380  0.3747 -0.6405 -0.3662
   61CHL1   H2B 6969   3.718   0.330  10.315  0.5563 -0.6509  1.5494
   61CHL1   C20 6970   3.862   0.618   9.433 -0.5982 -0.0202  0.3395
   61CHL1   H20 6971   3.916   0.526   9.461 -0.8971 -0.4106 -0.3224
   61CHL1   C21 6972   3.971   0.705   9.374  0.4647  0.2967  0.1291
   61CHL1  H21A 6973   4.015   0.649   9.289 -0.8067  0.3410 -0.5717
   61CHL1  H21B 6974   4.063   0.717   9.436  0.9418  0.4820 -0.6005
   61CHL1  H21C 6975   3.936   0.808   9.352  3.1544  1.3427  0.3483
   61CHL1   C22 6976   3.750   0.579   9.329 -0.5373  0.1542 -0.3136
   61CHL1  H22A 6977   3.669   0.519   9.377  0.1009 -0.0110  0.5778
   61CHL1  H22B 6978   3.707   0.673   9.290 -1.4412 -0.2783 -0.3867
   61CHL1   C23 6979   3.810   0.495   9.218  0.0074  0.4396 -0.3367
   61CHL1  H23A 6980   3.881   0.556   9.159  1.1385  1.8591  2.3043
   61CHL1  H23B 6981   3.877   0.423   9.271  1.7909  1.6944 -0.7793
   61CHL1   C24 6982   3.697   0.437   9.130  0.1562 -0.9008  0.3843
   61CHL1  H24A 6983   3.624   0.376   9.188  1.6651 -2.7382  0.4431
   61CHL1  H24B 6984   3.639   0.525   9.094 -1.0032 -0.7062  2.5566
   61CHL1   C25 6985   3.750   0.376   9.004 -0.1560 -0.0750  0.4020
   61CHL1   H25 6986   3.829   0.438   8.957  2.4172 -3.5128 -0.1954
   61CHL1   C26 6987   3.819   0.245   9.031 -0.0713  0.1441 -0.2503
   61CHL1  H26A 6988   3.902   0.262   9.104 -1.0605  0.5748  0.8063
   61CHL1  H26B 6989   3.754   0.168   9.078  0.4178  0.6653  1.3434
   61CHL1  H26C 6990   3.851   0.187   8.942 -2.0619 -0.4337 -0.6320
   61CHL1   C27 6991   3.639   0.363   8.891  0.6610  0.4642 -0.9002
   61CHL1  H27A 6992   3.571   0.277   8.910  0.6710  0.2095 -1.9271
   61CHL1  H27B 6993   3.572   0.451   8.905 -1.2490 -1.1143  0.2798
   61CHL1  H27C 6994   3.696   0.367   8.795  1.3703  3.3496 -0.4527
   62CHL1    C3 6995   4.488   5.190  10.025 -0.6775 -0.5805 -0.3972
   62CHL1    H3 6996   4.556   5.278  10.018  0.7798 -1.7265 -1.1103
   62CHL1    O3 6997   4.437   5.213  10.153  0.5168  0.0693  0.2765
   62CHL1   H3' 6998   4.387   5.133  10.170 -2.4718  1.6287 -0.4114
   62CHL1    C4 6999   4.381   5.197   9.928  0.5792 -0.6716 -0.4826
   62CHL1   H4A 7000   4.312   5.112   9.941  0.5307 -0.1956  3.9475
   62CHL1   H4B 7001   4.334   5.297   9.942  0.2558 -0.6613 -1.5634
   62CHL1    C5 7002   4.446   5.186   9.793  0.7635  0.1670  0.2984
   62CHL1    C6 7003   4.432   5.274   9.689 -0.5842  0.5721  0.4271
   62CHL1    H6 7004   4.362   5.355   9.711  1.2111  2.3157 -0.0542
   62CHL1    C7 7005   4.492   5.267   9.550 -0.0761  0.4103  0.8130
   62CHL1   H7A 7006   4.412   5.289   9.477  0.7711  5.5756  1.0796
   62CHL1   H7B 7007   4.555   5.356   9.532  0.3966  0.1648  1.2115
   62CHL1    C8 7008   4.557   5.132   9.518 -0.1645 -0.0563 -0.5515
   62CHL1    H8 7009   4.482   5.057   9.485 -0.9009 -0.2398  1.4215
   62CHL1   C14 7010   4.655   5.154   9.410 -0.3926 -0.4127 -0.6498
   62CHL1   H14 7011   4.739   5.220   9.440 -0.9733  0.2028 -0.3355
   62CHL1   C15 7012   4.603   5.223   9.282 -0.4927  0.3248 -0.2110
   62CHL1  H15A 7013   4.505   5.183   9.248  0.4015 -2.5996  0.3968
   62CHL1  H15B 7014   4.593   5.333   9.295  3.5889  1.5236 -4.4201
   62CHL1   C16 7015   4.718   5.187   9.174  0.3405  0.2506 -0.6615
   62CHL1  H16A 7016   4.676   5.139   9.083  1.0072  0.7322 -1.2348
   62CHL1  H16B 7017   4.779   5.273   9.139 -0.6071  0.8558 -0.8586
   62CHL1   C17 7018   4.815   5.081   9.245 -0.5702  0.2230  0.0347
   62CHL1   H17 7019   4.898   5.142   9.286 -0.3732 -0.2135  0.2904
   62CHL1   C13 7020   4.730   5.027   9.358 -0.4760  0.1860 -0.1884
   62CHL1   C18 7021   4.641   4.914   9.296 -0.0472 -0.4613 -0.3074
   62CHL1  H18A 7022   4.575   4.951   9.215 -1.3006  0.0641  0.9093
   62CHL1  H18B 7023   4.699   4.822   9.272  0.4695 -0.6375  1.4926
   62CHL1  H18C 7024   4.570   4.882   9.375 -0.4653 -2.2622 -1.3599
   62CHL1   C12 7025   4.817   4.981   9.481  0.0724  0.2187  0.3726
   62CHL1  H12A 7026   4.875   4.888   9.462  1.0268 -0.0145  3.6997
   62CHL1  H12B 7027   4.902   5.051   9.500  1.6902 -0.9897 -1.8979
   62CHL1   C11 7028   4.722   4.957   9.598  0.2647 -0.9487  0.2426
   62CHL1  H11A 7029   4.653   4.873   9.574  0.9871 -0.6671 -3.3814
   62CHL1  H11B 7030   4.784   4.932   9.687 -0.3822 -0.3966  0.8638
   62CHL1    C9 7031   4.637   5.087   9.639 -0.7010  0.0935  0.0006
   62CHL1    H9 7032   4.709   5.164   9.674 -0.3644 -0.2745  0.1194
   62CHL1   C10 7033   4.548   5.066   9.763 -0.1691  0.5142  0.2689
   62CHL1   C19 7034   4.452   4.941   9.748  0.3174  0.4715  0.2397
   62CHL1  H19A 7035   4.398   4.923   9.844 -2.6782  0.7854 -1.2746
   62CHL1  H19B 7036   4.393   4.961   9.656  0.9767  1.6155  0.0541
   62CHL1  H19C 7037   4.507   4.848   9.721  1.2184  1.3384 -0.9750
   62CHL1    C1 7038   4.645   5.048   9.885 -0.0651  0.7564  0.0340
   62CHL1   H1A 7039   4.689   4.947   9.873 -0.6193  0.4969  0.1287
   62CHL1   H1B 7040   4.721   5.128   9.892 -0.1474  0.8361  0.0262
   62CHL1    C2 7041   4.571   5.058  10.018 -0.1940 -1.3813 -0.1348
   62CHL1   H2A 7042   4.638   5.060  10.106  0.0624 -1.0425 -0.3370
   62CHL1   H2B 7043   4.492   4.979  10.022 -0.8634 -0.8991 -2.4443
   62CHL1   C20 7044   4.892   4.985   9.150 -0.0293  0.3655 -0.2440
   62CHL1   H20 7045   4.818   4.908   9.120  0.8530 -0.5247 -0.1932
   62CHL1   C21 7046   5.003   4.908   9.227  0.2204 -0.1305  0.5260
   62CHL1  H21A 7047   4.963   4.824   9.288  0.6982 -1.3112 -0.7601
   62CHL1  H21B 7048   5.060   4.979   9.291 -1.4331 -0.1030  2.0690
   62CHL1  H21C 7049   5.074   4.864   9.154 -0.7339 -2.2825  0.8302
   62CHL1   C22 7050   4.933   5.061   9.021 -0.6781  0.3498  0.2753
   62CHL1  H22A 7051   4.989   4.989   8.958  0.1337  1.4846 -0.3350
   62CHL1  H22B 7052   4.840   5.099   8.975 -1.2147 -0.2688  0.8330
   62CHL1   C23 7053   5.029   5.181   9.043 -0.3540  0.5550 -0.0472
   62CHL1  H23A 7054   4.980   5.254   9.111  1.1913  1.8908 -0.3196
   62CHL1  H23B 7055   5.124   5.160   9.097  1.1476  2.9313 -1.5668
   62CHL1   C24 7056   5.073   5.248   8.912 -0.9268  0.3252 -0.5743
   62CHL1  H24A 7057   5.134   5.181   8.846 -0.5157  0.6073 -0.4841
   62CHL1  H24B 7058   4.977   5.272   8.863 -1.2433  0.0986 -0.0713
   62CHL1   C25 7059   5.154   5.384   8.921 -0.7316  0.0772  0.2289
   62CHL1   H25 7060   5.090   5.449   8.985 -0.0528 -0.5239  1.5347
   62CHL1   C26 7061   5.292   5.375   8.984 -0.4193 -0.6178 -0.0605
   62CHL1  H26A 7062   5.309   5.334   9.086  2.6919  0.5563 -0.0032
   62CHL1  H26B 7063   5.339   5.299   8.917 -0.9810  0.3513 -1.6089
   62CHL1  H26C 7064   5.352   5.468   8.986 -0.9466 -0.2804  2.1629
   62CHL1   C27 7065   5.167   5.447   8.775  0.3920 -0.0536 -0.3352
   62CHL1  H27A 7066   5.204   5.552   8.783 -1.2776  0.6223 -1.0858
   62CHL1  H27B 7067   5.229   5.386   8.706 -0.5584 -0.4798 -0.8169
   62CHL1  H27C 7068   5.063   5.463   8.740  0.4348  1.1216  0.0078
   63CHL1    C3 7069   5.414   5.473  10.308  0.0736  0.3435  0.2432
   63CHL1    H3 7070   5.402   5.363  10.310  2.4615 -0.0548 -1.7216
   63CHL1    O3 7071   5.409   5.527  10.431  0.0457 -0.2618  0.2761
   63CHL1   H3' 7072   5.316   5.546  10.442  0.4709  2.7052 -0.3825
   63CHL1    C4 7073   5.551   5.507  10.249  0.4990  0.3099  0.2773
   63CHL1   H4A 7074   5.585   5.613  10.262 -0.0197  0.5828 -0.5291
   63CHL1   H4B 7075   5.622   5.445  10.308  0.2506 -0.2230  0.0226
   63CHL1    C5 7076   5.558   5.486  10.100  0.1415 -0.3670  0.5809
   63CHL1    C6 7077   5.658   5.412  10.045  1.5034  0.2630 -0.0594
   63CHL1    H6 7078   5.732   5.364  10.110  0.2202 -0.3950  0.9748
   63CHL1    C7 7079   5.679   5.410   9.894 -0.0568 -0.5532  0.0164
   63CHL1   H7A 7080   5.786   5.435   9.878  0.2095 -0.2323  2.0211
   63CHL1   H7B 7081   5.650   5.309   9.857 -0.3800 -1.1979  1.9131
   63CHL1    C8 7082   5.598   5.512   9.813 -0.5679  0.9544  0.1115
   63CHL1    H8 7083   5.650   5.609   9.829 -1.1842  1.0180  1.9916
   63CHL1   C14 7084   5.603   5.490   9.669  0.3094  0.3300  0.0939
   63CHL1   H14 7085   5.548   5.395   9.651  0.3224 -0.2768  2.8727
   63CHL1   C15 7086   5.734   5.474   9.599  0.0934 -0.5194 -0.5956
   63CHL1  H15A 7087   5.810   5.543   9.641 -0.2085  1.3267 -2.8893
   63CHL1  H15B 7088   5.778   5.372   9.602  0.6296 -0.2730  0.2224
   63CHL1   C16 7089   5.707   5.506   9.453 -0.4277 -0.0030  0.4550
   63CHL1  H16A 7090   5.766   5.595   9.422 -0.1834 -0.3957 -0.2369
   63CHL1  H16B 7091   5.738   5.431   9.377 -1.4005  1.9515 -1.9800
   63CHL1   C17 7092   5.551   5.538   9.443 -0.6266 -0.8604  0.0733
   63CHL1   H17 7093   5.508   5.435   9.440 -0.9679 -0.7504  0.9159
   63CHL1   C13 7094   5.520   5.588   9.583  0.1059 -0.0656  0.2513
   63CHL1   C18 7095   5.574   5.739   9.596 -0.2231 -0.2979  0.9982
   63CHL1  H18A 7096   5.521   5.815   9.536  1.8811  2.3579  2.2939
   63CHL1  H18B 7097   5.570   5.771   9.702 -0.9433  2.4389  0.2084
   63CHL1  H18C 7098   5.679   5.749   9.561 -1.0161  0.2555 -1.3666
   63CHL1   C12 7099   5.377   5.571   9.632  0.3186 -0.5616 -0.1095
   63CHL1  H12A 7100   5.312   5.648   9.584 -0.0998 -0.0973  1.1554
   63CHL1  H12B 7101   5.334   5.477   9.592 -0.1885 -0.2853 -0.2331
   63CHL1   C11 7102   5.363   5.608   9.780  0.3766  0.0781  0.0217
   63CHL1  H11A 7103   5.389   5.716   9.777 -1.5076  0.5870 -2.9984
   63CHL1  H11B 7104   5.255   5.606   9.808  0.5115  0.8238  0.6092
   63CHL1    C9 7105   5.459   5.521   9.861  0.4985  0.5448 -0.5889
   63CHL1    H9 7106   5.410   5.421   9.855 -0.0528  0.8147 -0.6190
   63CHL1   C10 7107   5.457   5.565  10.010 -0.1794  0.3576  0.9101
   63CHL1   C19 7108   5.473   5.712  10.021 -0.5023  0.1006 -0.0175
   63CHL1  H19A 7109   5.468   5.740  10.128 -0.4278  2.3737 -0.5509
   63CHL1  H19B 7110   5.566   5.746   9.969 -0.8603 -1.2555 -1.6416
   63CHL1  H19C 7111   5.386   5.770   9.983  0.1954  0.0881 -1.7238
   63CHL1    C1 7112   5.314   5.525  10.067 -0.4671  0.1397 -0.4975
   63CHL1   H1A 7113   5.234   5.593  10.032  0.0120  0.8477 -0.2426
   63CHL1   H1B 7114   5.290   5.424  10.027  0.0775  0.3691 -1.4286
   63CHL1    C2 7115   5.306   5.531  10.224 -0.1526 -0.3708  0.5356
   63CHL1   H2A 7116   5.206   5.492  10.253 -0.3830 -0.1744  0.0118
   63CHL1   H2B 7117   5.311   5.642  10.236  1.2785 -0.5834  2.1849
   63CHL1   C20 7118   5.509   5.608   9.318  0.9004 -0.2215 -0.2305
   63CHL1   H20 7119   5.528   5.715   9.336  1.7198 -0.6604  1.7433
   63CHL1   C21 7120   5.351   5.590   9.284 -0.3998 -0.6170 -0.2241
   63CHL1  H21A 7121   5.327   5.647   9.191 -1.4743  1.0572  1.0344
   63CHL1  H21B 7122   5.292   5.638   9.364  0.6616  0.0558  0.1787
   63CHL1  H21C 7123   5.314   5.486   9.273  1.3696 -1.3113  0.0603
   63CHL1   C22 7124   5.591   5.567   9.186 -0.1015  0.0626  0.9839
   63CHL1  H22A 7125   5.699   5.586   9.204  0.7407  0.7403 -3.6324
   63CHL1  H22B 7126   5.582   5.457   9.170  3.2800 -0.0829 -0.7108
   63CHL1   C23 7127   5.566   5.647   9.056 -0.4938 -0.5440 -0.2362
   63CHL1  H23A 7128   5.457   5.659   9.036 -0.0865  1.2217 -1.7443
   63CHL1  H23B 7129   5.603   5.748   9.085  0.4127 -0.5305 -1.3478
   63CHL1   C24 7130   5.631   5.581   8.937 -0.0904  0.6183 -0.2767
   63CHL1  H24A 7131   5.740   5.598   8.937  0.4209 -1.9338  2.0530
   63CHL1  H24B 7132   5.609   5.472   8.945  2.6310  0.0638  0.5052
   63CHL1   C25 7133   5.594   5.647   8.803  0.5442 -0.7494 -0.5273
   63CHL1   H25 7134   5.489   5.615   8.789  0.8291 -0.8828 -2.6754
   63CHL1   C26 7135   5.598   5.798   8.803  0.4890 -0.3200 -0.3695
   63CHL1  H26A 7136   5.697   5.839   8.831 -0.3618  1.2502  0.5052
   63CHL1  H26B 7137   5.585   5.834   8.699  2.0982 -0.8115 -0.7737
   63CHL1  H26C 7138   5.516   5.835   8.868  0.1084 -1.9680  0.1634
   63CHL1   C27 7139   5.661   5.601   8.679 -0.3561 -0.5404 -0.3480
   63CHL1  H27A 7140   5.768   5.631   8.674 -0.4619 -0.2325 -0.8529
   63CHL1  H27B 7141   5.662   5.491   8.669 -1.5898 -0.5109 -0.9736
   63CHL1  H27C 7142   5.608   5.646   8.592 -0.2930 -0.1830 -0.2026
   64CHL1    C3 7143   4.596   4.528  10.058 -0.1981 -0.7558 -1.2011
   64CHL1    H3 7144   4.490   4.532  10.026 -0.2498 -1.7821 -1.1913
   64CHL1    O3 7145   4.603   4.547  10.196 -0.7121  0.2649  0.4466
   64CHL1   H3' 7146   4.535   4.614  10.201 -1.6514 -0.7364  2.3873
   64CHL1    C4 7147   4.645   4.393  10.013  0.2451  0.2978 -0.2646
   64CHL1   H4A 7148   4.741   4.379  10.066 -0.0641 -0.7835  0.0382
   64CHL1   H4B 7149   4.578   4.316  10.058  0.8427 -0.5709 -0.8090
   64CHL1    C5 7150   4.646   4.387   9.858  0.2780  0.0436  0.3578
   64CHL1    C6 7151   4.593   4.288   9.784  0.0101  0.0963 -0.3441
   64CHL1    H6 7152   4.538   4.201   9.824 -0.5509  0.2410 -0.7792
   64CHL1    C7 7153   4.617   4.270   9.643 -0.0300  0.3248  0.9270
   64CHL1   H7A 7154   4.633   4.161   9.626 -0.2504  0.0427  2.4247
   64CHL1   H7B 7155   4.522   4.301   9.594  1.0854  2.2735 -0.1184
   64CHL1    C8 7156   4.733   4.347   9.583  0.1837 -0.2809 -0.3766
   64CHL1    H8 7157   4.824   4.291   9.614 -0.2160 -0.9892 -0.4512
   64CHL1   C14 7158   4.721   4.343   9.432 -0.2568  0.0493  0.6556
   64CHL1   H14 7159   4.628   4.400   9.407 -1.7758 -1.2777  2.9197
   64CHL1   C15 7160   4.706   4.204   9.367  0.4062  0.0871  0.0843
   64CHL1  H15A 7161   4.761   4.129   9.427  0.4687  0.0014 -0.0815
   64CHL1  H15B 7162   4.601   4.170   9.367 -0.2212  1.8664  1.0066
   64CHL1   C16 7163   4.763   4.225   9.233  0.1549  0.8215 -0.3688
   64CHL1  H16A 7164   4.862   4.177   9.220  0.1715  0.7752 -0.0795
   64CHL1  H16B 7165   4.690   4.197   9.154  0.8189  0.7015 -0.9538
   64CHL1   C17 7166   4.801   4.377   9.217 -0.4143 -0.0327  0.5788
   64CHL1   H17 7167   4.711   4.440   9.200 -1.8927 -1.8608  1.3279
   64CHL1   C13 7168   4.837   4.412   9.369 -0.6440 -0.3073  0.6217
   64CHL1   C18 7169   4.974   4.353   9.414  0.5095  0.5246  0.1758
   64CHL1  H18A 7170   4.996   4.392   9.516  2.9871 -0.2453 -0.0059
   64CHL1  H18B 7171   4.965   4.242   9.410  0.3674  0.5770 -2.0010
   64CHL1  H18C 7172   5.054   4.394   9.349  0.1805  0.2376 -0.4159
   64CHL1   C12 7173   4.830   4.565   9.414 -0.4574  0.2606  0.8908
   64CHL1  H12A 7174   4.922   4.615   9.376  0.1108 -1.3182  0.1161
   64CHL1  H12B 7175   4.741   4.618   9.376 -0.7488  0.6305  2.0333
   64CHL1   C11 7176   4.831   4.581   9.568 -0.1298  0.8070 -0.0251
   64CHL1  H11A 7177   4.937   4.564   9.598  0.1021  0.1683 -1.1422
   64CHL1  H11B 7178   4.819   4.688   9.595 -0.7725  0.9612 -0.8826
   64CHL1    C9 7179   4.729   4.489   9.641 -0.7326 -0.0191  0.1886
   64CHL1    H9 7180   4.629   4.524   9.609 -0.2707  1.6581  0.4862
   64CHL1   C10 7181   4.741   4.494   9.793 -0.3418 -0.1084 -1.1632
   64CHL1   C19 7182   4.878   4.447   9.845 -0.2091  0.1590 -0.0571
   64CHL1  H19A 7183   4.953   4.514   9.797  0.2247 -0.2592  0.0314
   64CHL1  H19B 7184   4.892   4.464   9.954  0.7522  3.2660 -0.5770
   64CHL1  H19C 7185   4.890   4.341   9.815 -1.0527 -0.0291  0.2309
   64CHL1    C1 7186   4.692   4.637   9.839 -0.6295 -0.9237  0.0987
   64CHL1   H1A 7187   4.762   4.714   9.800 -2.0084  0.4551  0.2760
   64CHL1   H1B 7188   4.593   4.663   9.795 -0.1715 -0.5555 -0.7285
   64CHL1    C2 7189   4.668   4.651   9.991 -0.0301  0.3937  0.5045
   64CHL1   H2A 7190   4.628   4.751  10.017 -0.1875  0.9212 -1.5326
   64CHL1   H2B 7191   4.771   4.645  10.032  1.1484  0.6919 -2.1439
   64CHL1   C20 7192   4.909   4.395   9.115  0.1816  0.3873  0.9042
   64CHL1   H20 7193   5.000   4.344   9.154  2.0315  0.8317 -2.3689
   64CHL1   C21 7194   4.935   4.543   9.092 -0.1680 -0.0242 -0.0159
   64CHL1  H21A 7195   5.009   4.584   9.164  0.7920  1.2652 -1.6652
   64CHL1  H21B 7196   4.837   4.594   9.103 -0.6368 -0.5808 -1.3773
   64CHL1  H21C 7197   4.973   4.560   8.989  0.3659 -1.4891 -0.0811
   64CHL1   C22 7198   4.878   4.324   8.974 -0.9328 -0.2280  0.4201
   64CHL1  H22A 7199   4.968   4.340   8.910 -1.5677  0.4591 -0.3257
   64CHL1  H22B 7200   4.882   4.214   8.990 -0.5132 -0.3709 -0.5815
   64CHL1   C23 7201   4.757   4.357   8.884 -0.3461  0.1852 -0.5730
   64CHL1  H23A 7202   4.674   4.316   8.946  0.9393 -0.7909  0.5667
   64CHL1  H23B 7203   4.740   4.466   8.868  0.0316  0.3282 -0.0303
   64CHL1   C24 7204   4.768   4.284   8.751 -0.2228  0.4353 -0.2401
   64CHL1  H24A 7205   4.859   4.310   8.693  1.0956 -0.9397  1.1090
   64CHL1  H24B 7206   4.766   4.175   8.774 -5.0182  0.0646 -1.3614
   64CHL1   C25 7207   4.657   4.315   8.648 -0.2647  0.1884 -0.4049
   64CHL1   H25 7208   4.564   4.291   8.704 -0.9775  2.3641 -0.5501
   64CHL1   C26 7209   4.661   4.462   8.607 -0.3617  0.2701  0.5937
   64CHL1  H26A 7210   4.595   4.489   8.522 -0.0433 -2.5811 -0.7139
   64CHL1  H26B 7211   4.640   4.529   8.692  1.9883  0.3637  1.1650
   64CHL1  H26C 7212   4.769   4.482   8.588  0.0645 -1.3492  1.1376
   64CHL1   C27 7213   4.664   4.223   8.525 -0.1015  0.5280 -0.1694
   64CHL1  H27A 7214   4.571   4.218   8.464  0.3682  2.7318 -1.1472
   64CHL1  H27B 7215   4.743   4.244   8.450  0.0101 -2.7699 -1.1415
   64CHL1  H27C 7216   4.688   4.121   8.562 -3.6819 -1.1603 -1.9823
   65CHL1    C3 7217   5.729   2.524  10.263 -0.3797  0.0047 -0.1721
   65CHL1    H3 7218   5.822   2.465  10.279 -2.1734 -2.5514  1.6760
   65CHL1    O3 7219   5.675   2.545  10.394  0.5450  0.5333 -0.1956
   65CHL1   H3' 7220   5.591   2.591  10.384 -0.5238 -1.3597 -0.2936
   65CHL1    C4 7221   5.763   2.659  10.189 -0.9261 -0.1719 -0.0701
   65CHL1   H4A 7222   5.670   2.718  10.197 -1.9746 -1.7698 -0.1741
   65CHL1   H4B 7223   5.846   2.704  10.248 -0.5970 -2.3535  1.2494
   65CHL1    C5 7224   5.794   2.637  10.044  0.1575  0.2027  0.3356
   65CHL1    C6 7225   5.899   2.701   9.993 -0.1366  0.0810 -0.5791
   65CHL1    H6 7226   5.954   2.764  10.065  0.3125 -3.2483  2.2716
   65CHL1    C7 7227   5.946   2.692   9.848 -0.3040  0.0646 -0.1017
   65CHL1   H7A 7228   5.969   2.795   9.811  2.3365  0.1565  1.5078
   65CHL1   H7B 7229   6.038   2.630   9.849 -0.7031 -0.6873 -2.6821
   65CHL1    C8 7230   5.842   2.634   9.756  0.4136 -0.5727  0.9812
   65CHL1    H8 7231   5.766   2.712   9.731  0.9105 -0.7537 -1.3828
   65CHL1   C14 7232   5.901   2.591   9.627 -0.0759  0.2874 -0.0218
   65CHL1   H14 7233   5.970   2.507   9.648 -1.3674 -0.9152 -0.4090
   65CHL1   C15 7234   5.996   2.689   9.546 -0.0305 -0.6551  0.1810
   65CHL1  H15A 7235   5.942   2.784   9.525 -1.0800 -1.6722 -2.0909
   65CHL1  H15B 7236   6.086   2.708   9.608 -1.1811  2.0739  1.1836
   65CHL1   C16 7237   6.015   2.610   9.415 -0.3423 -0.6708 -1.1064
   65CHL1  H16A 7238   6.001   2.679   9.329 -1.4349  1.1743  0.4602
   65CHL1  H16B 7239   6.118   2.571   9.428  0.8398  2.7344  1.7410
   65CHL1   C17 7240   5.912   2.494   9.412  0.5967 -0.4164 -0.2378
   65CHL1   H17 7241   5.963   2.402   9.446 -2.0085 -1.6522  0.5836
   65CHL1   C13 7242   5.811   2.522   9.525  0.4650 -0.3882  0.3201
   65CHL1   C18 7243   5.705   2.634   9.479  0.4861  0.0942 -0.4909
   65CHL1  H18A 7244   5.641   2.596   9.397  1.8602 -0.0016 -1.5643
   65CHL1  H18B 7245   5.632   2.658   9.559  0.5754 -1.3958  0.0706
   65CHL1  H18C 7246   5.754   2.726   9.439  2.6248 -0.3354  0.9789
   65CHL1   C12 7247   5.740   2.404   9.601  0.3352 -0.6017  0.5715
   65CHL1  H12A 7248   5.656   2.356   9.545 -1.0246  2.0372  0.1946
   65CHL1  H12B 7249   5.814   2.323   9.621 -0.7970 -3.1445 -3.9537
   65CHL1   C11 7250   5.672   2.443   9.733  0.1754 -0.1748  0.0037
   65CHL1  H11A 7251   5.596   2.519   9.705 -0.1088  0.2313  1.7642
   65CHL1  H11B 7252   5.626   2.348   9.769  0.7923 -0.4254  0.1379
   65CHL1    C9 7253   5.776   2.510   9.825  0.8482  0.3686 -0.0132
   65CHL1    H9 7254   5.858   2.441   9.855 -0.2260 -0.9587 -0.0055
   65CHL1   C10 7255   5.708   2.540   9.963  0.5244 -0.0661  0.4209
   65CHL1   C19 7256   5.566   2.621   9.953 -0.0086 -0.0230 -0.4508
   65CHL1  H19A 7257   5.590   2.711   9.893  1.3974  0.2006  0.3933
   65CHL1  H19B 7258   5.483   2.567   9.903 -0.0985  0.2363 -0.5786
   65CHL1  H19C 7259   5.522   2.665  10.045 -3.8479 -2.2580 -1.0018
   65CHL1    C1 7260   5.669   2.407  10.034 -0.5750  0.0243 -0.2908
   65CHL1   H1A 7261   5.582   2.367   9.978 -1.7112  2.6626 -0.5931
   65CHL1   H1B 7262   5.754   2.336  10.030 -0.7121 -0.1527 -0.0149
   65CHL1    C2 7263   5.629   2.437  10.180  0.0516  0.7011 -0.0836
   65CHL1   H2A 7264   5.614   2.348  10.243  2.2899  1.4125  1.6140
   65CHL1   H2B 7265   5.531   2.488  10.188  0.7541  2.2772 -0.9389
   65CHL1   C20 7266   5.860   2.469   9.268  0.1840  0.1410  0.6726
   65CHL1   H20 7267   5.824   2.569   9.237  2.2446  0.1900 -1.9458
   65CHL1   C21 7268   5.749   2.356   9.265 -0.6486 -0.3618  0.5882
   65CHL1  H21A 7269   5.722   2.337   9.159  2.9432 -3.9744  0.0704
   65CHL1  H21B 7270   5.656   2.386   9.317 -1.1137 -3.0975  1.4454
   65CHL1  H21C 7271   5.778   2.252   9.291 -3.0646 -1.8195 -1.9718
   65CHL1   C22 7272   5.977   2.414   9.183  0.3630 -0.0938  0.0988
   65CHL1  H22A 7273   6.067   2.474   9.209  0.1713 -0.4249  1.5751
   65CHL1  H22B 7274   5.984   2.306   9.207 -4.2411 -0.3431  1.3701
   65CHL1   C23 7275   5.972   2.435   9.029 -0.0889  0.3439 -0.0380
   65CHL1  H23A 7276   6.067   2.385   9.001  0.3456  1.4638 -0.6138
   65CHL1  H23B 7277   5.877   2.387   8.995  0.2124 -1.2354  1.2194
   65CHL1   C24 7278   5.975   2.579   8.985  0.5077  0.1095 -1.0433
   65CHL1  H24A 7279   5.887   2.637   9.022  0.1298 -2.1860  2.0092
   65CHL1  H24B 7280   6.053   2.624   9.051 -0.4959 -0.5462  0.6423
   65CHL1   C25 7281   6.006   2.598   8.838  0.1652 -0.4501  0.5259
   65CHL1   H25 7282   6.114   2.574   8.824  0.1964 -0.3246  0.5507
   65CHL1   C26 7283   5.928   2.499   8.746 -0.5708 -0.5939 -0.1723
   65CHL1  H26A 7284   5.821   2.505   8.776 -0.2560 -0.0344  0.9267
   65CHL1  H26B 7285   5.941   2.512   8.637 -0.5036 -2.0463 -0.3482
   65CHL1  H26C 7286   5.963   2.398   8.774 -1.2131 -0.5235  0.9619
   65CHL1   C27 7287   5.991   2.742   8.800  0.0609  0.6468 -0.0710
   65CHL1  H27A 7288   6.053   2.808   8.864  0.4347 -0.2588  0.5336
   65CHL1  H27B 7289   6.009   2.758   8.692  0.1728 -1.0020 -0.3346
   65CHL1  H27C 7290   5.883   2.760   8.819  0.1491  1.4384 -0.3246
   66CHL1    C3 7291   4.290   0.657  10.463 -0.1632 -0.1141  0.1356
   66CHL1    H3 7292   4.357   0.744  10.455  1.2071 -1.2292 -0.9758
   66CHL1    O3 7293   4.246   0.662  10.596 -0.2302 -0.0721  0.5640
   66CHL1   H3' 7294   4.191   0.584  10.607  0.3200 -1.3049 -3.6392
   66CHL1    C4 7295   4.170   0.679  10.375 -0.2279 -0.0504 -0.0930
   66CHL1   H4A 7296   4.102   0.599  10.411  0.0013  0.1029  0.6919
   66CHL1   H4B 7297   4.113   0.768  10.410 -0.7059 -1.1670  2.0866
   66CHL1    C5 7298   4.196   0.672  10.229 -0.3409 -0.9958 -0.2980
   66CHL1    C6 7299   4.153   0.767  10.139  0.5716 -0.9645  0.5385
   66CHL1    H6 7300   4.100   0.856  10.179  0.7066 -0.1485 -1.0307
   66CHL1    C7 7301   4.191   0.776   9.995  0.4429  0.3434  0.1611
   66CHL1   H7A 7302   4.107   0.804   9.927 -0.2786 -1.2063  0.3722
   66CHL1   H7B 7303   4.275   0.849   9.996  0.7607 -0.0016  2.4214
   66CHL1    C8 7304   4.249   0.643   9.945 -0.4492 -0.4815  0.4533
   66CHL1    H8 7305   4.163   0.575   9.925  0.9134 -2.0793 -0.3074
   66CHL1   C14 7306   4.320   0.659   9.812 -0.2508 -0.2816  0.4020
   66CHL1   H14 7307   4.404   0.727   9.839  0.3772 -0.2676 -1.4315
   66CHL1   C15 7308   4.251   0.741   9.702 -0.5006 -0.0900  0.2828
   66CHL1  H15A 7309   4.140   0.737   9.702 -0.5275 -0.3875 -1.5946
   66CHL1  H15B 7310   4.272   0.844   9.738 -2.6409  0.2393  0.6843
   66CHL1   C16 7311   4.328   0.717   9.575  0.8350  1.1856  0.1737
   66CHL1  H16A 7312   4.259   0.659   9.509  0.7108 -1.9851  2.8546
   66CHL1  H16B 7313   4.362   0.809   9.522 -0.7928  2.2112  0.8259
   66CHL1   C17 7314   4.438   0.608   9.611  0.5706  0.0548 -0.4735
   66CHL1   H17 7315   4.532   0.658   9.642  0.3946 -0.2577  0.5983
   66CHL1   C13 7316   4.382   0.540   9.745  0.1499  0.8297 -0.3626
   66CHL1   C18 7317   4.268   0.435   9.706 -0.0363  0.7124  0.0068
   66CHL1  H18A 7318   4.204   0.428   9.796  1.2231 -0.0699  0.8758
   66CHL1  H18B 7319   4.209   0.458   9.614  2.3632  1.2066 -1.5241
   66CHL1  H18C 7320   4.318   0.337   9.691 -2.2793 -0.6141  0.7971
   66CHL1   C12 7321   4.473   0.469   9.854  0.6499 -0.7326  0.5592
   66CHL1  H12A 7322   4.518   0.374   9.817  1.5086 -0.6221  1.3119
   66CHL1  H12B 7323   4.557   0.538   9.874  2.9198 -2.6648 -1.6354
   66CHL1   C11 7324   4.393   0.442   9.976  0.1229 -0.6915  0.4215
   66CHL1  H11A 7325   4.309   0.374   9.948 -0.7614  0.2364  0.7611
   66CHL1  H11B 7326   4.460   0.398  10.053  0.5233  0.2154  0.6035
   66CHL1    C9 7327   4.344   0.575  10.044 -0.6373  0.4857  0.1544
   66CHL1    H9 7328   4.438   0.635  10.049 -0.4951  0.3850 -1.0469
   66CHL1   C10 7329   4.290   0.553  10.186 -0.0724  0.5931  0.3873
   66CHL1   C19 7330   4.204   0.428  10.177  0.0553 -0.2028 -0.3198
   66CHL1  H19A 7331   4.130   0.434  10.095 -0.2762  0.8593  0.0412
   66CHL1  H19B 7332   4.255   0.332  10.153 -0.0538  0.0320 -1.5455
   66CHL1  H19C 7333   4.157   0.415  10.277 -2.0643 -0.5793 -1.3185
   66CHL1    C1 7334   4.405   0.546  10.291 -0.1810 -0.1790 -0.2829
   66CHL1   H1A 7335   4.476   0.465  10.263 -1.0436 -0.2844 -2.4276
   66CHL1   H1B 7336   4.468   0.637  10.281 -1.3766  0.5359 -1.6722
   66CHL1    C2 7337   4.361   0.529  10.432  0.6271  0.7860  0.2371
   66CHL1   H2A 7338   4.439   0.505  10.508 -1.7212 -0.5121  2.3699
   66CHL1   H2B 7339   4.300   0.436  10.433  0.2918  0.9378 -1.8718
   66CHL1   C20 7340   4.472   0.523   9.489 -0.4501  0.2212 -0.4566
   66CHL1   H20 7341   4.378   0.473   9.459 -0.1653  1.0361 -2.9138
   66CHL1   C21 7342   4.580   0.412   9.524  0.7522  0.5789  1.0413
   66CHL1  H21A 7343   4.546   0.359   9.616 -0.8690  0.9423  0.6945
   66CHL1  H21B 7344   4.687   0.436   9.539  0.5971  0.1045  3.3548
   66CHL1  H21C 7345   4.576   0.350   9.432 -2.4091  0.4422  1.1466
   66CHL1   C22 7346   4.518   0.603   9.370  0.2019  0.2650 -0.0977
   66CHL1  H22A 7347   4.477   0.706   9.362 -0.7078 -0.1687 -1.3830
   66CHL1  H22B 7348   4.626   0.614   9.389  0.4635 -0.8044 -0.8433
   66CHL1   C23 7349   4.478   0.524   9.247  0.3665 -0.4753  0.7515
   66CHL1  H23A 7350   4.558   0.557   9.176 -0.3796 -0.1334  0.0585
   66CHL1  H23B 7351   4.482   0.413   9.255  1.5703 -0.5112  0.0191
   66CHL1   C24 7352   4.330   0.539   9.197 -0.1146 -0.6339 -0.4279
   66CHL1  H24A 7353   4.265   0.501   9.278  0.4363 -1.7474 -0.4945
   66CHL1  H24B 7354   4.304   0.647   9.194  0.7403 -0.4174 -0.4063
   66CHL1   C25 7355   4.293   0.487   9.061  0.3458 -0.4205  0.3826
   66CHL1   H25 7356   4.337   0.386   9.042 -2.2787 -1.5232 -0.4649
   66CHL1   C26 7357   4.140   0.466   9.034  0.4773 -0.0475 -0.7354
   66CHL1  H26A 7358   4.131   0.447   8.925 -0.8405  0.5631 -0.7471
   66CHL1  H26B 7359   4.091   0.381   9.086  0.5253  1.1442  1.3728
   66CHL1  H26C 7360   4.083   0.558   9.060  1.9157  0.5525  0.5015
   66CHL1   C27 7361   4.360   0.580   8.949 -0.1651  0.1699 -0.1028
   66CHL1  H27A 7362   4.361   0.544   8.844 -0.8517  0.7666 -0.3237
   66CHL1  H27B 7363   4.318   0.683   8.952  2.2221  1.2777 -1.8714
   66CHL1  H27C 7364   4.467   0.605   8.968 -0.3974  0.5130  0.8373
   67CHL1    C3 7365   2.088   2.389  10.252 -0.4201 -0.2029  0.1795
   67CHL1    H3 7366   2.127   2.294  10.209 -2.0089 -0.1678 -1.4930
   67CHL1    O3 7367   2.075   2.387  10.393 -0.4492 -0.3495 -0.3155
   67CHL1   H3' 7368   1.985   2.359  10.408 -1.2129  2.5663  1.2229
   67CHL1    C4 7369   2.176   2.503  10.210 -0.7058 -0.3450 -0.1154
   67CHL1   H4A 7370   2.131   2.594  10.255 -0.9505 -1.1429  1.3248
   67CHL1   H4B 7371   2.269   2.507  10.271 -0.6040 -0.0473 -0.2853
   67CHL1    C5 7372   2.196   2.518  10.063 -0.4700  0.7511 -0.3473
   67CHL1    C6 7373   2.328   2.528  10.018  0.1372  0.2718 -0.1468
   67CHL1    H6 7374   2.408   2.515  10.093 -1.1061 -0.8194  1.0558
   67CHL1    C7 7375   2.359   2.543   9.872  0.4125  0.1988 -0.0101
   67CHL1   H7A 7376   2.438   2.620   9.860  1.2630 -1.0459 -3.4016
   67CHL1   H7B 7377   2.405   2.446   9.845  0.2415 -0.0873  0.6878
   67CHL1    C8 7378   2.234   2.578   9.790 -0.1381 -0.1511 -0.5375
   67CHL1    H8 7379   2.216   2.686   9.805 -0.0455 -0.4343  2.0926
   67CHL1   C14 7380   2.264   2.559   9.640  0.8548 -0.3429 -0.3243
   67CHL1   H14 7381   2.285   2.450   9.649  0.9315 -0.3080 -0.0452
   67CHL1   C15 7382   2.382   2.637   9.581 -0.3311 -0.0901 -0.2689
   67CHL1  H15A 7383   2.373   2.740   9.623  1.6389  0.9072 -2.1288
   67CHL1  H15B 7384   2.481   2.593   9.605 -0.0186  0.4457 -0.5798
   67CHL1   C16 7385   2.356   2.642   9.425  0.0400  0.6109 -0.0946
   67CHL1  H16A 7386   2.355   2.746   9.385  0.5915  0.1760 -1.2518
   67CHL1  H16B 7387   2.442   2.586   9.384 -0.3031 -0.5387  0.7225
   67CHL1   C17 7388   2.222   2.562   9.401 -0.7933 -0.7961 -0.2551
   67CHL1   H17 7389   2.234   2.452   9.390 -3.8147 -1.1541 -0.6741
   67CHL1   C13 7390   2.152   2.585   9.540 -0.0860  0.6306  0.5650
   67CHL1   C18 7391   2.109   2.733   9.551 -0.0597 -0.3658 -0.0728
   67CHL1  H18A 7392   2.174   2.803   9.494 -3.7864  2.6138 -1.1375
   67CHL1  H18B 7393   2.011   2.752   9.500 -0.0312  1.6427  0.5274
   67CHL1  H18C 7394   2.098   2.764   9.657 -1.5286 -2.4426  0.4450
   67CHL1   C12 7395   2.037   2.500   9.577  0.6010 -0.6893  0.1471
   67CHL1  H12A 7396   1.945   2.518   9.518 -0.7595 -0.4353  2.2113
   67CHL1  H12B 7397   2.069   2.397   9.550 -0.9446 -0.4051 -3.1687
   67CHL1   C11 7398   1.992   2.520   9.726  0.2299  0.1121 -0.1369
   67CHL1  H11A 7399   1.954   2.624   9.739 -2.9419 -1.2550  4.0565
   67CHL1  H11B 7400   1.900   2.465   9.754  1.1333 -1.0047  0.7264
   67CHL1    C9 7401   2.108   2.502   9.827  0.3169  0.0980 -0.0551
   67CHL1    H9 7402   2.128   2.393   9.818 -1.6140 -0.4698  1.7182
   67CHL1   C10 7403   2.073   2.520   9.977  0.1660 -0.5323 -0.5723
   67CHL1   C19 7404   1.996   2.653  10.021  0.1742  0.3038  1.2202
   67CHL1  H19A 7405   1.979   2.675  10.128  0.5770 -0.3673  1.4284
   67CHL1  H19B 7406   2.042   2.747   9.982 -0.2403 -0.3972 -1.1261
   67CHL1  H19C 7407   1.894   2.650   9.977 -0.7329  0.8412  3.2036
   67CHL1    C1 7408   1.986   2.399  10.030 -0.0465 -0.0699 -1.0669
   67CHL1   H1A 7409   1.898   2.392   9.963 -0.0042 -2.5696 -0.9715
   67CHL1   H1B 7410   2.043   2.306  10.009 -0.5128 -0.0953 -2.3101
   67CHL1    C2 7411   1.950   2.394  10.178 -0.0160 -0.2542  0.0770
   67CHL1   H2A 7412   1.886   2.308  10.206 -1.2464  1.2168  2.1440
   67CHL1   H2B 7413   1.900   2.487  10.212 -1.3000 -1.0191  0.3438
   67CHL1   C20 7414   2.151   2.603   9.273 -0.4793 -0.8261  0.0632
   67CHL1   H20 7415   2.102   2.703   9.275  0.5491 -0.3192  2.2580
   67CHL1   C21 7416   2.033   2.505   9.244  0.2223  0.5972  0.1054
   67CHL1  H21A 7417   1.947   2.523   9.312  0.6708  1.5684  0.4371
   67CHL1  H21B 7418   2.068   2.401   9.259  0.3751  0.4717 -1.0428
   67CHL1  H21C 7419   1.995   2.515   9.140 -1.5707  1.7099  0.8203
   67CHL1   C22 7420   2.246   2.607   9.150  0.0254  0.2031 -1.0253
   67CHL1  H22A 7421   2.347   2.646   9.174 -0.6766  1.4468  0.0044
   67CHL1  H22B 7422   2.265   2.500   9.126 -0.8058 -0.1337 -0.2627
   67CHL1   C23 7423   2.192   2.683   9.033 -0.1543 -0.2081  0.2336
   67CHL1  H23A 7424   2.085   2.661   9.015 -0.3139  0.9507 -0.2957
   67CHL1  H23B 7425   2.196   2.792   9.050  2.4523 -0.3795  1.2832
   67CHL1   C24 7426   2.256   2.637   8.901 -0.6020 -0.7442  0.3678
   67CHL1  H24A 7427   2.367   2.632   8.905 -0.4430  0.6357 -1.1382
   67CHL1  H24B 7428   2.224   2.531   8.892  0.3281 -0.9547 -0.7824
   67CHL1   C25 7429   2.224   2.727   8.778  0.5799 -0.2448  0.3789
   67CHL1   H25 7430   2.114   2.720   8.765  0.5233  1.2537 -0.0775
   67CHL1   C26 7431   2.259   2.871   8.806  0.1889  0.0665  0.5749
   67CHL1  H26A 7432   2.200   2.902   8.896 -0.6476 -1.7325  0.6761
   67CHL1  H26B 7433   2.366   2.884   8.833  0.0313  0.2578  1.1392
   67CHL1  H26C 7434   2.250   2.942   8.721  1.0337 -1.9589 -1.2857
   67CHL1   C27 7435   2.295   2.668   8.653 -0.3593 -0.4254 -0.0737
   67CHL1  H27A 7436   2.406   2.657   8.652 -0.3782 -1.0362 -2.5815
   67CHL1  H27B 7437   2.255   2.566   8.634  0.5836 -0.6768 -0.7914
   67CHL1  H27C 7438   2.265   2.716   8.557  0.8772 -1.3749 -0.9721
   68CHL1    C3 7439   5.265   3.087  10.348  0.5326  0.5793  0.6779
   68CHL1    H3 7440   5.325   3.166  10.297 -0.9124  2.3417  1.6035
   68CHL1    O3 7441   5.273   3.111  10.487 -0.2119 -0.6889 -0.4616
   68CHL1   H3' 7442   5.364   3.097  10.512 -0.1269  1.6471  0.7478
   68CHL1    C4 7443   5.118   3.089  10.302 -0.4439 -1.1189  1.2486
   68CHL1   H4A 7444   5.051   3.011  10.345 -2.1680  0.0190  0.7680
   68CHL1   H4B 7445   5.080   3.189  10.334 -0.6110 -0.9248  0.4676
   68CHL1    C5 7446   5.117   3.060  10.149  0.7020  0.3300 -0.2048
   68CHL1    C6 7447   5.055   3.145  10.069 -0.7380 -0.5219 -0.1180
   68CHL1    H6 7448   5.002   3.234  10.108 -0.4985 -0.3441 -0.1986
   68CHL1    C7 7449   5.039   3.125   9.923 -0.9906 -0.5038  0.1628
   68CHL1   H7A 7450   4.934   3.142   9.888  0.0538  0.3931 -2.8047
   68CHL1   H7B 7451   5.097   3.205   9.874  1.7419 -2.7415 -0.4696
   68CHL1    C8 7452   5.073   2.981   9.879  0.2090 -0.3808 -0.4685
   68CHL1    H8 7453   4.996   2.907   9.910  1.9845 -2.1465 -0.0586
   68CHL1   C14 7454   5.088   2.967   9.730 -0.8807 -0.3614 -0.8330
   68CHL1   H14 7455   5.170   3.039   9.708 -1.7700  1.6918  2.0117
   68CHL1   C15 7456   4.971   3.011   9.648  0.2621  0.1435  1.1245
   68CHL1  H15A 7457   4.875   2.968   9.683  0.1159 -2.0304 -1.6189
   68CHL1  H15B 7458   4.951   3.120   9.647 -1.8408 -0.2052  0.1674
   68CHL1   C16 7459   5.001   2.949   9.509 -0.2720  1.1012  0.4453
   68CHL1  H16A 7460   4.917   2.883   9.480  0.3657  0.7700 -0.6804
   68CHL1  H16B 7461   5.005   3.026   9.429  0.3201 -0.1221 -0.7336
   68CHL1   C17 7462   5.138   2.872   9.525 -0.4100  0.0918 -0.1307
   68CHL1   H17 7463   5.218   2.948   9.521  0.2815 -0.6629 -1.7033
   68CHL1   C13 7464   5.147   2.837   9.674 -0.1746 -0.4299 -0.0487
   68CHL1   C18 7465   5.056   2.713   9.702 -0.4593 -0.0806 -0.0729
   68CHL1  H18A 7466   5.011   2.717   9.803  1.9569  3.1457  1.0681
   68CHL1  H18B 7467   4.977   2.710   9.624 -0.4923 -1.6663 -0.0106
   68CHL1  H18C 7468   5.114   2.619   9.693 -0.6362 -0.2023  0.0752
   68CHL1   C12 7469   5.282   2.804   9.740 -0.2132 -0.6594  0.0051
   68CHL1  H12A 7470   5.310   2.703   9.702 -0.3466 -1.4900  2.0245
   68CHL1  H12B 7471   5.359   2.873   9.698 -0.3609 -0.2907  0.3403
   68CHL1   C11 7472   5.264   2.798   9.894  0.3847 -0.6412  0.0628
   68CHL1  H11A 7473   5.202   2.712   9.928  1.4562 -1.3418  0.3103
   68CHL1  H11B 7474   5.363   2.777   9.940  1.2250  0.3761 -1.2045
   68CHL1    C9 7475   5.205   2.931   9.950 -0.3479  0.4513 -0.2999
   68CHL1    H9 7476   5.278   3.007   9.913 -0.9572  0.8944 -0.6080
   68CHL1   C10 7477   5.195   2.935  10.102  0.0607  0.5033 -0.2729
   68CHL1   C19 7478   5.121   2.809  10.148  0.4568  0.4069 -0.5344
   68CHL1  H19A 7479   5.184   2.718  10.148 -0.1148 -0.0146 -2.1399
   68CHL1  H19B 7480   5.082   2.810  10.252  2.9457 -0.2304  0.4819
   68CHL1  H19C 7481   5.037   2.796  10.076  0.8130 -3.6342 -0.4420
   68CHL1    C1 7482   5.338   2.925  10.171 -0.4600  0.5231 -0.3193
   68CHL1   H1A 7483   5.378   2.823  10.157 -0.1328  0.5412  0.4206
   68CHL1   H1B 7484   5.404   2.990  10.110 -0.4504  0.5776 -0.2511
   68CHL1    C2 7485   5.325   2.948  10.323 -0.6276 -0.9126 -0.4896
   68CHL1   H2A 7486   5.421   2.938  10.379 -0.1683  1.1499 -0.8240
   68CHL1   H2B 7487   5.263   2.875  10.379 -1.4989  0.8108  0.9028
   68CHL1   C20 7488   5.172   2.760   9.425  0.1266 -0.3850 -0.7508
   68CHL1   H20 7489   5.117   2.672   9.467  1.2427 -0.6064  0.2961
   68CHL1   C21 7490   5.324   2.735   9.421  0.1417  0.0318 -0.2295
   68CHL1  H21A 7491   5.356   2.693   9.323 -0.8811 -0.2407 -0.4546
   68CHL1  H21B 7492   5.360   2.673   9.506 -0.2571 -2.0032 -1.4571
   68CHL1  H21C 7493   5.380   2.831   9.424 -2.2828  1.5175  2.4505
   68CHL1   C22 7494   5.126   2.798   9.284  0.3964 -0.4028  1.1062
   68CHL1  H22A 7495   5.022   2.838   9.282  0.3530 -0.5481  0.2579
   68CHL1  H22B 7496   5.187   2.880   9.240  1.6326 -0.7325  2.1721
   68CHL1   C23 7497   5.115   2.685   9.187 -0.3766  1.4595  0.3439
   68CHL1  H23A 7498   5.219   2.649   9.174 -0.5100  1.2948 -0.3026
   68CHL1  H23B 7499   5.046   2.606   9.222  0.9650 -0.0320 -0.2658
   68CHL1   C24 7500   5.045   2.731   9.057  0.1787 -0.8913  0.3102
   68CHL1  H24A 7501   4.941   2.767   9.072  0.4377 -0.0242  0.1167
   68CHL1  H24B 7502   5.101   2.819   9.017 -1.8980  0.9468  1.2067
   68CHL1   C25 7503   5.031   2.624   8.948  0.0161  0.3921  0.2374
   68CHL1   H25 7504   4.973   2.667   8.862 -2.9695 -0.0760  1.8778
   68CHL1   C26 7505   5.167   2.578   8.908 -0.2152 -0.0925 -0.7118
   68CHL1  H26A 7506   5.231   2.669   8.915 -0.6002  0.1894 -0.8757
   68CHL1  H26B 7507   5.212   2.508   8.982  3.1722  2.0853 -0.5131
   68CHL1  H26C 7508   5.175   2.534   8.806 -1.2252  0.1976 -0.9255
   68CHL1   C27 7509   4.945   2.499   8.984 -0.2793 -0.0037  0.7488
   68CHL1  H27A 7510   4.961   2.457   9.086  1.7360  0.9778  0.8953
   68CHL1  H27B 7511   4.841   2.538   8.990 -0.0520  0.6315  0.6239
   68CHL1  H27C 7512   4.956   2.421   8.906  0.1063  2.0209 -1.3339
   69CHL1    C3 7513   4.427   5.433   6.886  0.7687 -0.6767  0.4694
   69CHL1    H3 7514   4.496   5.519   6.902 -0.3758  0.2897  0.3395
   69CHL1    O3 7515   4.399   5.409   6.741  0.4542 -0.3231  0.5126
   69CHL1   H3' 7516   4.344   5.331   6.754 -1.1097  1.0939  3.2743
   69CHL1    C4 7517   4.518   5.317   6.939  0.8575 -0.0090 -0.2434
   69CHL1   H4A 7518   4.466   5.218   6.932 -0.0886  0.3499  1.2416
   69CHL1   H4B 7519   4.612   5.308   6.880  0.8219 -1.1821 -0.1551
   69CHL1    C5 7520   4.550   5.341   7.084 -0.4923  0.3175  0.8857
   69CHL1    C6 7521   4.678   5.374   7.128 -0.1741  0.3602 -0.5037
   69CHL1    H6 7522   4.764   5.357   7.061 -1.1467  0.2323 -1.7642
   69CHL1    C7 7523   4.707   5.392   7.274  0.7860  0.9120  0.2156
   69CHL1   H7A 7524   4.794   5.330   7.304  0.7755 -0.3499 -2.1453
   69CHL1   H7B 7525   4.711   5.499   7.305 -0.0711  1.1857 -0.5669
   69CHL1    C8 7526   4.585   5.345   7.363 -0.8421  0.5402 -0.1776
   69CHL1    H8 7527   4.575   5.235   7.361 -2.8300  0.6722  0.5509
   69CHL1   C14 7528   4.612   5.388   7.510 -1.1886  0.4703  0.1629
   69CHL1   H14 7529   4.623   5.497   7.491  0.6005  0.1136 -1.0878
   69CHL1   C15 7530   4.747   5.347   7.574 -0.1989  0.0203  0.3946
   69CHL1  H15A 7531   4.743   5.236   7.564 -1.9270  0.2714 -3.5910
   69CHL1  H15B 7532   4.838   5.376   7.517 -0.1456 -1.4271 -0.2958
   69CHL1   C16 7533   4.726   5.402   7.722  0.0672 -0.4368  0.0923
   69CHL1  H16A 7534   4.768   5.321   7.786 -0.6236 -0.4847  0.4883
   69CHL1  H16B 7535   4.768   5.504   7.733 -1.4144  0.0917  1.1346
   69CHL1   C17 7536   4.571   5.424   7.741 -0.5201  0.6470  0.2867
   69CHL1   H17 7537   4.550   5.533   7.742 -0.4198  0.6881  2.1436
   69CHL1   C13 7538   4.508   5.368   7.608 -0.7282 -0.8664  0.1642
   69CHL1   C18 7539   4.484   5.217   7.628 -0.2156 -0.0002 -0.7360
   69CHL1  H18A 7540   4.573   5.171   7.676 -0.2832 -0.9573 -1.4983
   69CHL1  H18B 7541   4.397   5.209   7.696  0.6556 -0.8625  0.3169
   69CHL1  H18C 7542   4.466   5.161   7.534 -0.3587 -1.1325 -0.0458
   69CHL1   C12 7543   4.385   5.453   7.555 -0.5718  0.7961  0.2508
   69CHL1  H12A 7544   4.303   5.436   7.628 -1.4522 -0.6358 -1.0023
   69CHL1  H12B 7545   4.413   5.560   7.552  1.5715  0.3650  2.0115
   69CHL1   C11 7546   4.341   5.395   7.417 -1.0168  0.3233 -0.1085
   69CHL1  H11A 7547   4.318   5.288   7.440  0.6585 -0.2892 -1.1383
   69CHL1  H11B 7548   4.248   5.445   7.380 -1.3715 -1.5464 -1.9379
   69CHL1    C9 7549   4.451   5.407   7.313 -0.5897 -0.0260  0.1674
   69CHL1    H9 7550   4.464   5.513   7.283 -0.8377 -0.4179 -1.4086
   69CHL1   C10 7551   4.424   5.336   7.173  0.1682 -0.2694 -0.5965
   69CHL1   C19 7552   4.355   5.190   7.188  0.2480 -0.4040  0.1425
   69CHL1  H19A 7553   4.258   5.210   7.239  0.7206 -1.0531  1.3413
   69CHL1  H19B 7554   4.342   5.141   7.089 -1.0423 -0.1398  0.1717
   69CHL1  H19C 7555   4.421   5.130   7.254 -0.3534  2.4232  3.6543
   69CHL1    C1 7556   4.313   5.426   7.108  0.1297  0.0492  0.4743
   69CHL1   H1A 7557   4.224   5.405   7.171  1.6447  2.6499  3.8307
   69CHL1   H1B 7558   4.336   5.534   7.126  1.0934 -0.2669  1.1927
   69CHL1    C2 7559   4.294   5.421   6.956 -0.3227  0.2922  0.2781
   69CHL1   H2A 7560   4.218   5.497   6.927  1.6643  1.8619 -1.0375
   69CHL1   H2B 7561   4.248   5.320   6.942  1.8307 -1.0121  1.9941
   69CHL1   C20 7562   4.517   5.365   7.874  0.6382 -0.7459 -0.5266
   69CHL1   H20 7563   4.546   5.258   7.886 -0.9017 -1.4255 -2.3204
   69CHL1   C21 7564   4.363   5.390   7.897 -1.2773 -0.0981  0.2796
   69CHL1  H21A 7565   4.308   5.307   7.847 -3.0051  2.0747 -1.6198
   69CHL1  H21B 7566   4.339   5.486   7.847  2.4888  1.1261  0.5397
   69CHL1  H21C 7567   4.348   5.383   8.007 -0.3951 -0.1571  0.4004
   69CHL1   C22 7568   4.589   5.439   7.986 -0.7633 -0.3701 -0.7478
   69CHL1  H22A 7569   4.698   5.429   7.971 -0.3786  2.2198 -0.1740
   69CHL1  H22B 7570   4.556   5.544   7.996 -0.2580 -0.3440  1.0431
   69CHL1   C23 7571   4.561   5.383   8.126 -0.6378 -0.2537  0.0796
   69CHL1  H23A 7572   4.469   5.422   8.174 -0.0563  0.2966  0.7764
   69CHL1  H23B 7573   4.558   5.272   8.124  3.3145 -0.5804  2.1353
   69CHL1   C24 7574   4.682   5.424   8.221  1.1218 -0.0915  0.3016
   69CHL1  H24A 7575   4.759   5.344   8.213  0.1051 -0.9609 -1.1170
   69CHL1  H24B 7576   4.718   5.522   8.183 -0.0023 -0.2593 -1.2975
   69CHL1   C25 7577   4.638   5.431   8.370  0.0640 -1.0959  0.2681
   69CHL1   H25 7578   4.536   5.474   8.378 -0.0885 -1.2598 -0.7138
   69CHL1   C26 7579   4.632   5.298   8.444  0.0639 -0.1167 -0.1619
   69CHL1  H26A 7580   4.734   5.266   8.415  0.2540  1.6946 -1.6691
   69CHL1  H26B 7581   4.628   5.310   8.554 -1.1452  0.3360 -0.2374
   69CHL1  H26C 7582   4.563   5.223   8.401 -0.0120 -0.8810  1.2200
   69CHL1   C27 7583   4.729   5.531   8.438  0.0297 -0.4658 -0.3047
   69CHL1  H27A 7584   4.734   5.629   8.386  0.0674 -0.2995  0.0115
   69CHL1  H27B 7585   4.705   5.557   8.543 -0.9667 -0.2967 -0.5617
   69CHL1  H27C 7586   4.833   5.492   8.446 -0.6301 -1.8839  2.6125
   70CHL1    C3 7587   5.381   2.962   6.868  0.2369 -0.0372  0.5468
   70CHL1    H3 7588   5.314   3.050   6.863  2.0173  1.3345 -0.6100
   70CHL1    O3 7589   5.447   2.938   6.745 -0.4056  0.1460  0.3869
   70CHL1   H3' 7590   5.528   2.892   6.769 -1.1873 -1.4981  0.0233
   70CHL1    C4 7591   5.492   2.989   6.972  0.3644  0.1558 -0.1573
   70CHL1   H4A 7592   5.558   2.900   6.975 -0.8768 -0.8445 -1.1905
   70CHL1   H4B 7593   5.543   3.080   6.935  1.2327 -1.5516 -3.5150
   70CHL1    C5 7594   5.430   3.008   7.110 -0.4785 -0.4412  0.0913
   70CHL1    C6 7595   5.458   3.124   7.176 -0.0229  0.0713  0.1107
   70CHL1    H6 7596   5.528   3.198   7.135 -1.0579  2.3874  2.2925
   70CHL1    C7 7597   5.401   3.155   7.312 -0.1729  0.7325 -0.0741
   70CHL1   H7A 7598   5.464   3.219   7.377 -1.0212  3.8492 -2.0718
   70CHL1   H7B 7599   5.307   3.211   7.292 -0.3556  0.2233 -0.6990
   70CHL1    C8 7600   5.353   3.027   7.383  0.6013 -0.2472 -0.5721
   70CHL1    H8 7601   5.441   2.963   7.404  0.7403 -0.9822 -3.0821
   70CHL1   C14 7602   5.273   3.065   7.510  0.2572 -1.1946  0.3000
   70CHL1   H14 7603   5.192   3.138   7.488  2.2595  1.6096  1.6044
   70CHL1   C15 7604   5.348   3.142   7.621  0.1273  0.6070 -0.1680
   70CHL1  H15A 7605   5.451   3.102   7.628  0.5588  1.3874 -1.6911
   70CHL1  H15B 7606   5.363   3.247   7.587  0.1000  0.2052 -1.4931
   70CHL1   C16 7607   5.270   3.124   7.743 -0.3749  0.0940 -0.0343
   70CHL1  H16A 7608   5.329   3.069   7.820  0.2196  0.9462  0.1455
   70CHL1  H16B 7609   5.242   3.227   7.776 -1.0939 -0.2440  0.4287
   70CHL1   C17 7610   5.147   3.034   7.707 -0.8487  0.9370 -0.1368
   70CHL1   H17 7611   5.072   3.103   7.663 -1.8059 -0.8830 -1.4930
   70CHL1   C13 7612   5.201   2.952   7.587 -0.2386 -0.3115 -0.3608
   70CHL1   C18 7613   5.302   2.843   7.625  0.1751  0.5893  0.3062
   70CHL1  H18A 7614   5.237   2.767   7.673 -1.6518  0.2437 -2.4468
   70CHL1  H18B 7615   5.345   2.781   7.544 -0.5997 -0.5813  0.7687
   70CHL1  H18C 7616   5.377   2.889   7.693  1.6903 -0.1603 -0.7966
   70CHL1   C12 7617   5.096   2.897   7.488  0.4237 -0.0419 -0.1182
   70CHL1  H12A 7618   5.039   2.813   7.534 -0.0382  0.5647  0.4395
   70CHL1  H12B 7619   5.014   2.970   7.468  1.6658  1.0605 -1.3664
   70CHL1   C11 7620   5.165   2.848   7.354 -0.7783  0.0391  0.7616
   70CHL1  H11A 7621   5.210   2.748   7.370 -1.9874 -0.5436  0.6681
   70CHL1  H11B 7622   5.083   2.822   7.283 -0.6194 -1.4030  1.0849
   70CHL1    C9 7623   5.266   2.946   7.289  0.0747 -0.2179 -1.0851
   70CHL1    H9 7624   5.188   3.021   7.266 -0.5205 -0.1056  1.0459
   70CHL1   C10 7625   5.340   2.896   7.166  0.4573 -0.5440  0.0392
   70CHL1   C19 7626   5.433   2.774   7.208  0.3876  0.1639  0.9815
   70CHL1  H19A 7627   5.519   2.804   7.271  1.1391 -0.2368  0.1661
   70CHL1  H19B 7628   5.374   2.697   7.263 -0.6855  0.5376  0.3833
   70CHL1  H19C 7629   5.474   2.723   7.118 -1.6165 -0.7805  0.5466
   70CHL1    C1 7630   5.236   2.854   7.054  0.0836  0.7641 -0.3732
   70CHL1   H1A 7631   5.199   2.755   7.088 -0.5599  1.4237  0.9288
   70CHL1   H1B 7632   5.149   2.923   7.044 -0.5880 -0.2500 -1.7207
   70CHL1    C2 7633   5.295   2.835   6.910 -0.5129  0.7519  0.3916
   70CHL1   H2A 7634   5.213   2.825   6.835  1.8861 -2.4847 -2.0844
   70CHL1   H2B 7635   5.360   2.745   6.913  0.6492  1.5283 -0.4172
   70CHL1   C20 7636   5.086   2.965   7.832 -1.4494 -0.8047  0.1529
   70CHL1   H20 7637   5.152   2.884   7.870  1.9651  1.6859  0.0817
   70CHL1   C21 7638   4.951   2.904   7.800 -0.7191  0.4491  0.2651
   70CHL1  H21A 7639   4.873   2.976   7.767 -0.1840  0.6039 -0.7004
   70CHL1  H21B 7640   4.908   2.861   7.893 -0.8225  0.8283  0.3951
   70CHL1  H21C 7641   4.944   2.819   7.729  0.1339 -2.0202  2.9195
   70CHL1   C22 7642   5.058   3.079   7.937  0.1997  0.2844  0.9281
   70CHL1  H22A 7643   5.150   3.134   7.965  0.6052 -0.6088  1.4107
   70CHL1  H22B 7644   4.992   3.159   7.899 -0.7812 -0.9209  0.0298
   70CHL1   C23 7645   5.012   3.038   8.075  0.2117 -0.1623 -0.0779
   70CHL1  H23A 7646   4.914   2.987   8.086  0.0880  0.3330  1.3194
   70CHL1  H23B 7647   5.093   2.970   8.110  3.5680  1.8377 -3.2848
   70CHL1   C24 7648   5.002   3.152   8.172  0.1069  0.6542 -0.5598
   70CHL1  H24A 7649   4.957   3.240   8.120  0.3082  1.8549  1.1922
   70CHL1  H24B 7650   4.920   3.130   8.243  0.6170 -0.3801 -0.2849
   70CHL1   C25 7651   5.127   3.188   8.245 -0.8154  0.1773 -0.2712
   70CHL1   H25 7652   5.212   3.193   8.173  0.6979  0.2278  1.4580
   70CHL1   C26 7653   5.108   3.320   8.316  0.2466 -0.3120 -0.2319
   70CHL1  H26A 7654   5.020   3.319   8.384  0.6446 -0.1799  0.2853
   70CHL1  H26B 7655   5.201   3.354   8.365  1.0060 -0.1891 -1.6947
   70CHL1  H26C 7656   5.076   3.396   8.240  1.4409 -0.0942 -0.5303
   70CHL1   C27 7657   5.171   3.074   8.347  0.1982  0.2042  0.5320
   70CHL1  H27A 7658   5.253   3.105   8.415  0.8977  0.1719 -0.2772
   70CHL1  H27B 7659   5.085   3.049   8.412  0.2791 -2.9977 -0.4418
   70CHL1  H27C 7660   5.200   2.978   8.300  1.4860  1.1596 -0.7067
   71CHL1    C3 7661   3.651   4.042   6.847 -0.3475 -0.3996 -0.3871
   71CHL1    H3 7662   3.757   4.011   6.857 -0.0300  0.0537 -2.1123
   71CHL1    O3 7663   3.631   4.079   6.710 -0.2991  0.1645 -0.1219
   71CHL1   H3' 7664   3.541   4.111   6.721 -0.1888  0.3440  0.2744
   71CHL1    C4 7665   3.554   3.934   6.892  0.4131 -0.4400 -0.7270
   71CHL1   H4A 7666   3.454   3.967   6.855  0.5335 -0.3189 -0.9489
   71CHL1   H4B 7667   3.577   3.840   6.838  2.9269 -0.7216  0.6883
   71CHL1    C5 7668   3.547   3.895   7.038  0.7205  0.7347  0.0121
   71CHL1    C6 7669   3.557   3.771   7.084 -0.9188  0.1110 -0.1874
   71CHL1    H6 7670   3.588   3.692   7.015  1.5123  0.4695  0.3776
   71CHL1    C7 7671   3.530   3.737   7.220  0.2022 -0.7625 -0.6716
   71CHL1   H7A 7672   3.460   3.651   7.230 -0.2311 -0.2326  1.3710
   71CHL1   H7B 7673   3.625   3.701   7.266  1.6256  0.4691 -2.5353
   71CHL1    C8 7674   3.481   3.851   7.308  0.2712 -0.0057  0.0723
   71CHL1    H8 7675   3.372   3.856   7.287  0.3581 -2.0910 -1.2056
   71CHL1   C14 7676   3.508   3.824   7.452 -0.2341 -0.3547  0.2095
   71CHL1   H14 7677   3.616   3.842   7.468  0.1122 -3.8219  2.8560
   71CHL1   C15 7678   3.487   3.686   7.506  0.8318  0.0788 -0.5619
   71CHL1  H15A 7679   3.385   3.649   7.485  0.4733  1.1518 -0.7514
   71CHL1  H15B 7680   3.560   3.608   7.473 -0.9956 -2.0380  0.1577
   71CHL1   C16 7681   3.494   3.701   7.660  0.1621 -0.0633 -0.3245
   71CHL1  H16A 7682   3.412   3.652   7.717  0.3071 -0.0930 -0.1390
   71CHL1  H16B 7683   3.588   3.661   7.704 -0.0590 -0.7802 -0.4911
   71CHL1   C17 7684   3.501   3.854   7.688 -0.3099  0.0658 -0.1393
   71CHL1   H17 7685   3.609   3.880   7.690 -0.3277  0.1247  1.6931
   71CHL1   C13 7686   3.448   3.924   7.555 -0.5676 -0.5249 -0.3817
   71CHL1   C18 7687   3.296   3.933   7.552  0.0686  0.7023  0.3864
   71CHL1  H18A 7688   3.260   3.829   7.570  4.0823 -1.7346 -3.7086
   71CHL1  H18B 7689   3.251   4.003   7.626 -1.0631  0.2129  0.1878
   71CHL1  H18C 7690   3.258   3.968   7.454  0.9684  3.4555  0.9316
   71CHL1   C12 7691   3.510   4.062   7.523 -0.3949 -0.2792  0.0442
   71CHL1  H12A 7692   3.455   4.144   7.573  1.7476  2.0656 -1.2379
   71CHL1  H12B 7693   3.616   4.077   7.551  0.8811 -1.7157 -3.4872
   71CHL1   C11 7694   3.492   4.097   7.370  0.5417 -0.0256  0.0500
   71CHL1  H11A 7695   3.384   4.119   7.353  0.3572 -2.1611 -2.2289
   71CHL1  H11B 7696   3.539   4.196   7.353  1.0339  0.0877  1.8505
   71CHL1    C9 7697   3.540   3.990   7.274 -0.5882  0.6905 -0.6576
   71CHL1    H9 7698   3.650   3.978   7.286 -0.7104 -1.7072 -1.4284
   71CHL1   C10 7699   3.520   4.025   7.122 -0.8328  0.0175  0.0780
   71CHL1   C19 7700   3.384   4.097   7.094  0.1613 -0.1188  0.0055
   71CHL1  H19A 7701   3.305   4.025   7.125  0.0601  0.1348  0.3466
   71CHL1  H19B 7702   3.370   4.181   7.166 -2.2998 -2.4964  2.5297
   71CHL1  H19C 7703   3.358   4.131   6.991 -0.3947  2.8265  1.0082
   71CHL1    C1 7704   3.626   4.139   7.077 -0.4585 -0.8663  0.5662
   71CHL1   H1A 7705   3.613   4.232   7.137 -2.6843  0.6825 -2.0511
   71CHL1   H1B 7706   3.726   4.097   7.097 -0.1667 -1.2901 -1.5497
   71CHL1    C2 7707   3.628   4.175   6.925  0.0580 -0.3020  0.7837
   71CHL1   H2A 7708   3.706   4.249   6.896  0.9655 -1.9533 -1.3087
   71CHL1   H2B 7709   3.530   4.216   6.893  0.7859  0.4871 -0.4979
   71CHL1   C20 7710   3.458   3.902   7.829  0.2099  0.0774  1.0116
   71CHL1   H20 7711   3.437   4.010   7.811 -0.4923  0.1725  2.2759
   71CHL1   C21 7712   3.566   3.880   7.931 -0.0294  0.3413 -0.0038
   71CHL1  H21A 7713   3.543   3.921   8.032  0.1965 -3.3055  1.7189
   71CHL1  H21B 7714   3.659   3.924   7.892 -1.5451  0.6248 -3.6934
   71CHL1  H21C 7715   3.597   3.777   7.959  0.9338  0.4133 -0.7856
   71CHL1   C22 7716   3.327   3.842   7.873 -0.3836 -0.2390  0.0499
   71CHL1  H22A 7717   3.253   3.853   7.791 -1.7034 -0.7773  1.1348
   71CHL1  H22B 7718   3.344   3.735   7.898  0.0271 -0.7007 -1.9980
   71CHL1   C23 7719   3.275   3.918   7.994 -0.1555 -0.1732  0.0188
   71CHL1  H23A 7720   3.345   3.894   8.077  0.9130  2.3666 -0.0590
   71CHL1  H23B 7721   3.264   4.026   7.975 -2.1905 -0.5033 -0.9302
   71CHL1   C24 7722   3.137   3.854   8.028  0.1016  0.2717 -0.3769
   71CHL1  H24A 7723   3.061   3.889   7.955  0.4719  1.3082 -0.2822
   71CHL1  H24B 7724   3.145   3.743   8.023  0.7334  0.3048 -0.1958
   71CHL1   C25 7725   3.078   3.873   8.176 -0.1936  0.2503  0.3421
   71CHL1   H25 7726   3.072   3.979   8.207 -0.3894 -0.1189  1.6099
   71CHL1   C26 7727   2.928   3.824   8.180 -0.0284 -0.5421  0.6512
   71CHL1  H26A 7728   2.877   3.859   8.087 -0.9439 -0.8229  1.0397
   71CHL1  H26B 7729   2.933   3.713   8.179 -0.3700 -0.5785  1.6349
   71CHL1  H26C 7730   2.875   3.856   8.272 -2.1781  0.8253 -0.9459
   71CHL1   C27 7731   3.155   3.794   8.278  1.2525 -0.4531 -0.1991
   71CHL1  H27A 7732   3.111   3.816   8.378 -1.5796 -0.2462 -1.3866
   71CHL1  H27B 7733   3.140   3.687   8.252 -0.9910  0.0940 -1.3993
   71CHL1  H27C 7734   3.264   3.812   8.267  1.3288 -1.5932 -1.4890
   72CHL1    C3 7735   5.818   3.638   7.135 -0.3293  0.6374 -0.6453
   72CHL1    H3 7736   5.709   3.653   7.147 -0.6163 -2.0100  0.7430
   72CHL1    O3 7737   5.852   3.588   7.003  0.0455  0.3932 -0.2743
   72CHL1   H3' 7738   5.792   3.514   6.992  2.2870 -1.6427  0.2523
   72CHL1    C4 7739   5.893   3.769   7.170  0.1112  0.4500  0.9251
   72CHL1   H4A 7740   6.003   3.758   7.157 -0.1607 -0.0560 -1.4100
   72CHL1   H4B 7741   5.852   3.841   7.096  1.7130  1.9094  1.4029
   72CHL1    C5 7742   5.870   3.819   7.308 -0.3377 -0.2620  1.0702
   72CHL1    C6 7743   5.811   3.939   7.323  0.6015  0.3714  0.2489
   72CHL1    H6 7744   5.782   3.993   7.232  2.5820 -0.6319 -1.0688
   72CHL1    C7 7745   5.775   3.994   7.459 -0.3679  0.1803  0.3439
   72CHL1   H7A 7746   5.799   4.102   7.469  2.3222 -0.3920  0.6406
   72CHL1   H7B 7747   5.664   3.999   7.471 -0.3940  0.9328 -0.1249
   72CHL1    C8 7748   5.849   3.914   7.571 -0.0863  0.7321  0.1739
   72CHL1    H8 7749   5.952   3.954   7.560  0.3132 -0.3516 -0.1470
   72CHL1   C14 7750   5.792   3.955   7.709  0.4606 -0.0416 -1.0506
   72CHL1   H14 7751   5.688   3.914   7.712  0.2258  0.4417  2.4544
   72CHL1   C15 7752   5.776   4.111   7.746 -0.0453  0.3430 -0.0184
   72CHL1  H15A 7753   5.857   4.167   7.695 -1.4579  1.8857 -0.6669
   72CHL1  H15B 7754   5.675   4.147   7.716  0.6158  1.6917 -0.6952
   72CHL1   C16 7755   5.785   4.106   7.900 -0.1275 -0.2103 -0.0028
   72CHL1  H16A 7756   5.870   4.175   7.918  0.3979 -0.5134 -1.2294
   72CHL1  H16B 7757   5.697   4.154   7.948 -1.9606  0.3675 -3.6227
   72CHL1   C17 7758   5.795   3.955   7.941  0.2995 -0.8675 -1.3640
   72CHL1   H17 7759   5.689   3.922   7.944 -0.0596  0.1516 -2.1599
   72CHL1   C13 7760   5.860   3.885   7.824  0.9542  0.2873  0.2058
   72CHL1   C18 7761   6.008   3.907   7.814 -0.4323 -0.0855 -0.2183
   72CHL1  H18A 7762   6.048   3.865   7.719  1.1145  0.7088  0.0579
   72CHL1  H18B 7763   6.036   4.014   7.816 -2.3826  0.4831 -0.8828
   72CHL1  H18C 7764   6.069   3.858   7.892 -1.1409  1.4849  1.3769
   72CHL1   C12 7765   5.836   3.732   7.806 -0.6178  0.7251 -0.4173
   72CHL1  H12A 7766   5.884   3.680   7.892 -1.4608  2.0016  0.8838
   72CHL1  H12B 7767   5.728   3.706   7.819 -0.2746 -1.7742 -1.9073
   72CHL1   C11 7768   5.893   3.678   7.682  0.3046  0.3022  0.5936
   72CHL1  H11A 7769   6.003   3.689   7.687  0.2691  1.9257 -1.0778
   72CHL1  H11B 7770   5.881   3.570   7.661 -0.5161  0.3699  0.6785
   72CHL1    C9 7771   5.843   3.759   7.555  0.1872 -0.1990 -0.9722
   72CHL1    H9 7772   5.734   3.737   7.548  0.0474  0.6863 -1.8871
   72CHL1   C10 7773   5.905   3.719   7.415  0.3331  0.5410  0.3101
   72CHL1   C19 7774   6.058   3.714   7.414 -0.3624  0.0370 -0.1591
   72CHL1  H19A 7775   6.100   3.684   7.316  2.1021  1.8624  0.2497
   72CHL1  H19B 7776   6.103   3.813   7.435 -2.0332  1.2285 -1.8699
   72CHL1  H19C 7777   6.088   3.634   7.486  2.3979 -0.1936 -1.4537
   72CHL1    C1 7778   5.844   3.579   7.376  0.5645 -0.1553  0.0781
   72CHL1   H1A 7779   5.887   3.498   7.439  3.9110  0.6171 -0.9757
   72CHL1   H1B 7780   5.734   3.579   7.393  1.0349  1.1820  4.5450
   72CHL1    C2 7781   5.869   3.530   7.234  0.6915 -0.1354  0.2828
   72CHL1   H2A 7782   5.801   3.445   7.215  0.5534  0.1178 -0.3904
   72CHL1   H2B 7783   5.969   3.485   7.213  1.3142  1.1078  0.4230
   72CHL1   C20 7784   5.845   3.924   8.085  0.5467 -1.1234 -0.3727
   72CHL1   H20 7785   5.955   3.915   8.072  0.2425 -1.2640 -3.7119
   72CHL1   C21 7786   5.783   3.791   8.142 -0.6078  0.5479 -0.4686
   72CHL1  H21A 7787   5.795   3.715   8.063 -0.7563  1.4506 -1.3789
   72CHL1  H21B 7788   5.677   3.804   8.170 -0.2325  1.5748  0.5817
   72CHL1  H21C 7789   5.846   3.756   8.227  1.2755  1.4882 -1.3999
   72CHL1   C22 7790   5.832   4.045   8.178  0.0167 -0.6129  0.3964
   72CHL1  H22A 7791   5.891   4.133   8.143  1.3486 -0.3750  3.0188
   72CHL1  H22B 7792   5.723   4.067   8.187  0.1529 -0.4491  1.8981
   72CHL1   C23 7793   5.889   4.021   8.314  0.1548  0.6493  0.3201
   72CHL1  H23A 7794   5.823   3.950   8.369  2.2429  0.4102  2.7211
   72CHL1  H23B 7795   5.981   3.959   8.313 -1.5754 -2.2713  3.0217
   72CHL1   C24 7796   5.902   4.144   8.396 -0.1044  0.1101 -0.0518
   72CHL1  H24A 7797   5.956   4.222   8.339  0.9208 -0.8863 -0.4635
   72CHL1  H24B 7798   5.800   4.187   8.410  0.5892  1.5282  1.0234
   72CHL1   C25 7799   5.961   4.142   8.540  0.5397  0.1981 -0.7987
   72CHL1   H25 7800   6.072   4.134   8.544  0.4409 -1.0050  2.1579
   72CHL1   C26 7801   5.937   4.272   8.617 -0.3123 -0.1591 -0.3579
   72CHL1  H26A 7802   5.994   4.355   8.569  0.7466  0.1677  1.3925
   72CHL1  H26B 7803   5.829   4.298   8.615 -0.7885 -1.7380 -4.3679
   72CHL1  H26C 7804   5.978   4.258   8.719  2.4721 -0.2518 -1.3880
   72CHL1   C27 7805   5.899   4.032   8.624 -0.0473  0.3007 -0.2662
   72CHL1  H27A 7806   5.952   4.002   8.717 -0.5325 -0.8433 -0.3427
   72CHL1  H27B 7807   5.807   4.075   8.670  0.1513  0.4642 -0.0202
   72CHL1  H27C 7808   5.883   3.941   8.562 -1.1291  1.1668 -1.3055
   73CHL1    C3 7809   3.554   4.829   6.987  0.7297 -0.0164 -0.2876
   73CHL1    H3 7810   3.454   4.873   7.007 -0.6864 -2.0104 -2.4008
   73CHL1    O3 7811   3.600   4.866   6.857  0.1361 -0.3092 -0.3594
   73CHL1   H3' 7812   3.568   4.795   6.801  1.5142 -1.6560  0.5028
   73CHL1    C4 7813   3.663   4.885   7.085 -0.1329  0.2727 -0.6205
   73CHL1   H4A 7814   3.763   4.843   7.061  0.0476 -0.7624  1.6947
   73CHL1   H4B 7815   3.669   4.996   7.077 -0.1762  0.4867  1.6183
   73CHL1    C5 7816   3.643   4.836   7.232  0.6328  0.2162 -0.2848
   73CHL1    C6 7817   3.629   4.929   7.329 -0.1387  0.4909  0.4014
   73CHL1    H6 7818   3.638   5.035   7.301  0.7395  0.0166 -1.2916
   73CHL1    C7 7819   3.595   4.891   7.475 -0.1632 -0.6829  0.5193
   73CHL1   H7A 7820   3.661   4.955   7.538 -1.6335  1.9256 -0.4258
   73CHL1   H7B 7821   3.493   4.927   7.499 -0.8743 -1.4133 -1.2719
   73CHL1    C8 7822   3.626   4.748   7.506  0.4461  0.8453 -0.2393
   73CHL1    H8 7823   3.737   4.745   7.507  0.5431  0.8835 -2.8467
   73CHL1   C14 7824   3.569   4.704   7.644 -0.3815  0.4070  0.3746
   73CHL1   H14 7825   3.458   4.704   7.635 -0.3806 -0.6250  0.2117
   73CHL1   C15 7826   3.597   4.792   7.763 -0.0539  0.1772 -0.6892
   73CHL1  H15A 7827   3.704   4.823   7.760 -0.5479  1.9219 -3.6027
   73CHL1  H15B 7828   3.532   4.882   7.767  1.0620  1.0463 -1.3627
   73CHL1   C16 7829   3.584   4.705   7.888  0.1136  0.3366 -0.5836
   73CHL1  H16A 7830   3.687   4.699   7.929 -0.0115 -0.8229 -0.3988
   73CHL1  H16B 7831   3.514   4.748   7.962  0.9855  0.0563  0.4341
   73CHL1   C17 7832   3.550   4.568   7.826 -0.3436  0.1268  0.2005
   73CHL1   H17 7833   3.440   4.572   7.812 -0.3808 -0.4861  0.2882
   73CHL1   C13 7834   3.611   4.565   7.684 -0.1760 -0.7908  0.5490
   73CHL1   C18 7835   3.764   4.546   7.699  0.3132  0.1602  0.4209
   73CHL1  H18A 7836   3.822   4.565   7.605 -2.2834 -0.1380 -1.3389
   73CHL1  H18B 7837   3.808   4.600   7.785 -0.2201 -0.5374  1.1398
   73CHL1  H18C 7838   3.786   4.441   7.728 -1.4235 -0.0780  0.9666
   73CHL1   C12 7839   3.555   4.472   7.577  0.5232  0.0635  0.5475
   73CHL1  H12A 7840   3.592   4.369   7.600 -3.2324 -0.8775  3.2850
   73CHL1  H12B 7841   3.444   4.470   7.581  0.4627  0.7814 -0.4916
   73CHL1   C11 7842   3.611   4.506   7.437  0.4411 -0.5012 -1.0247
   73CHL1  H11A 7843   3.717   4.475   7.430  0.4647 -0.1720 -2.7093
   73CHL1  H11B 7844   3.553   4.430   7.381  1.3468 -3.2022  1.5121
   73CHL1    C9 7845   3.576   4.650   7.396  0.4968  0.1081 -0.0828
   73CHL1    H9 7846   3.471   4.685   7.401  0.6219  0.3462  1.6166
   73CHL1   C10 7847   3.631   4.691   7.256  0.7056  0.4716  0.2119
   73CHL1   C19 7848   3.775   4.639   7.238 -0.5428  0.3650  0.2754
   73CHL1  H19A 7849   3.776   4.530   7.216  0.9039 -0.1198  2.4308
   73CHL1  H19B 7850   3.819   4.688   7.149  2.0822  0.6701  1.6517
   73CHL1  H19C 7851   3.841   4.669   7.323 -0.4375 -1.5578  0.9358
   73CHL1    C1 7852   3.536   4.628   7.149 -0.6863 -0.3434 -0.2875
   73CHL1   H1A 7853   3.535   4.517   7.154 -3.2822 -0.4725 -1.9150
   73CHL1   H1B 7854   3.441   4.673   7.187 -0.1404 -0.6796  1.6010
   73CHL1    C2 7855   3.549   4.675   7.001 -0.6619  0.2123  0.0735
   73CHL1   H2A 7856   3.464   4.639   6.940 -0.5244  1.7683 -1.1202
   73CHL1   H2B 7857   3.636   4.621   6.958  0.9689  2.8484 -0.2250
   73CHL1   C20 7858   3.584   4.453   7.920  0.0213  0.5115 -0.2784
   73CHL1   H20 7859   3.692   4.460   7.945 -0.4289  2.4197  1.4733
   73CHL1   C21 7860   3.558   4.314   7.855  0.4845  0.3316  0.4563
   73CHL1  H21A 7861   3.558   4.229   7.926 -0.8664 -0.2274 -0.1701
   73CHL1  H21B 7862   3.642   4.289   7.787 -0.7953 -1.5569 -0.5124
   73CHL1  H21C 7863   3.458   4.309   7.806  1.2226 -3.4295 -0.9792
   73CHL1   C22 7864   3.499   4.472   8.050  0.0833  0.2264  0.5641
   73CHL1  H22A 7865   3.516   4.571   8.098  0.4731 -0.1777  1.2611
   73CHL1  H22B 7866   3.392   4.457   8.024 -0.1955  3.5829 -0.7962
   73CHL1   C23 7867   3.540   4.376   8.164  0.0096 -0.9238 -0.3427
   73CHL1  H23A 7868   3.460   4.365   8.240  1.8966 -1.2684  1.6815
   73CHL1  H23B 7869   3.562   4.275   8.124  2.1155 -0.5390 -0.3111
   73CHL1   C24 7870   3.652   4.426   8.255 -0.2696  0.1273 -0.1441
   73CHL1  H24A 7871   3.744   4.420   8.194  0.2643  0.4126  0.6120
   73CHL1  H24B 7872   3.634   4.534   8.271  0.6015  0.4825 -1.4627
   73CHL1   C25 7873   3.689   4.346   8.382  1.0740 -0.2359 -0.0921
   73CHL1   H25 7874   3.603   4.359   8.451  0.2197 -0.9742 -0.9803
   73CHL1   C26 7875   3.681   4.190   8.370  0.4801 -0.2024 -0.0977
   73CHL1  H26A 7876   3.750   4.151   8.448 -0.7406  0.5256  1.3859
   73CHL1  H26B 7877   3.582   4.143   8.381  0.4761 -0.3910 -0.9145
   73CHL1  H26C 7878   3.739   4.165   8.278 -0.5810  1.6562 -1.3234
   73CHL1   C27 7879   3.817   4.398   8.455  0.2065  0.4035 -1.0509
   73CHL1  H27A 7880   3.801   4.506   8.476  0.1301 -0.0678  1.7215
   73CHL1  H27B 7881   3.817   4.349   8.555 -2.9707 -1.9140 -2.0241
   73CHL1  H27C 7882   3.915   4.381   8.407  1.1466  1.8417  0.2727
   74CHL1    C3 7883   6.695   5.393   6.874  0.3302 -0.0135  0.6901
   74CHL1    H3 7884   6.646   5.492   6.856  1.8375  1.3908  3.5850
   74CHL1    O3 7885   6.692   5.331   6.744 -0.1095  0.4107 -0.4810
   74CHL1   H3' 7886   6.725   5.246   6.774 -0.4435  1.0608  1.9254
   74CHL1    C4 7887   6.847   5.394   6.917  0.5927 -0.5023  0.0152
   74CHL1   H4A 7888   6.899   5.297   6.903  1.0584 -0.0909 -1.2645
   74CHL1   H4B 7889   6.902   5.460   6.846  4.0008 -1.2063  1.8232
   74CHL1    C5 7890   6.858   5.454   7.055 -0.1158  0.1430  0.6266
   74CHL1    C6 7891   6.936   5.566   7.078 -0.6329  0.2269  0.8781
   74CHL1    H6 7892   6.995   5.609   6.995  0.0595 -1.4139  0.4846
   74CHL1    C7 7893   6.950   5.636   7.210 -0.2230 -0.6295  0.7914
   74CHL1   H7A 7894   7.053   5.673   7.232 -0.8147  0.9541  1.0542
   74CHL1   H7B 7895   6.893   5.731   7.208 -0.1722 -0.5355 -2.7990
   74CHL1    C8 7896   6.899   5.546   7.325 -0.2250 -0.5424 -0.3568
   74CHL1    H8 7897   6.969   5.460   7.339 -0.3361 -0.4684  0.7367
   74CHL1   C14 7898   6.883   5.636   7.447  0.4251  0.2194 -0.9207
   74CHL1   H14 7899   6.797   5.706   7.439 -0.5452 -0.5830  1.4869
   74CHL1   C15 7900   7.003   5.718   7.502 -0.3167  0.0619 -0.1717
   74CHL1  H15A 7901   7.080   5.640   7.482  2.0711  2.5082 -0.9786
   74CHL1  H15B 7902   7.023   5.809   7.442 -2.7935 -1.0081 -2.9055
   74CHL1   C16 7903   6.972   5.737   7.653 -0.1620 -0.5209 -0.3998
   74CHL1  H16A 7904   7.049   5.698   7.722  0.1124  1.1686  0.2988
   74CHL1  H16B 7905   6.960   5.843   7.683  2.1529 -0.9953  2.6205
   74CHL1   C17 7906   6.844   5.656   7.690 -0.0706 -0.0569 -0.3707
   74CHL1   H17 7907   6.747   5.709   7.684  0.6718  1.7428  2.1083
   74CHL1   C13 7908   6.829   5.558   7.576  0.7970  0.1107 -0.5171
   74CHL1   C18 7909   6.921   5.442   7.616  0.4317  0.8594  0.2574
   74CHL1  H18A 7910   7.019   5.480   7.652  1.6652 -2.1871  0.4439
   74CHL1  H18B 7911   6.876   5.373   7.691  0.7951  0.9621  0.5742
   74CHL1  H18C 7912   6.943   5.376   7.529 -1.9921 -1.1439  1.0279
   74CHL1   C12 7913   6.687   5.516   7.532 -0.1000  0.2029  0.2992
   74CHL1  H12A 7914   6.638   5.466   7.618  0.2694 -1.3824 -0.3750
   74CHL1  H12B 7915   6.619   5.603   7.522 -0.7313  0.0344  2.5643
   74CHL1   C11 7916   6.688   5.422   7.413  0.8572  0.3177 -0.1870
   74CHL1  H11A 7917   6.747   5.331   7.438 -0.9054 -1.4529 -2.0279
   74CHL1  H11B 7918   6.587   5.387   7.381  0.5136  1.5239 -0.4690
   74CHL1    C9 7919   6.755   5.496   7.289  0.1116  0.5174 -0.7009
   74CHL1    H9 7920   6.694   5.588   7.271 -0.3009  0.9474  2.3872
   74CHL1   C10 7921   6.766   5.399   7.161 -0.0337 -0.1477 -0.6825
   74CHL1   C19 7922   6.814   5.270   7.199 -0.1884  0.5017  0.2641
   74CHL1  H19A 7923   6.912   5.275   7.252 -0.1448 -0.9994  0.3916
   74CHL1  H19B 7924   6.744   5.210   7.261  2.2904 -1.1292  1.6836
   74CHL1  H19C 7925   6.838   5.200   7.116 -1.4893  0.0159  0.2663
   74CHL1    C1 7926   6.621   5.394   7.103  0.6499 -0.3304  0.0724
   74CHL1   H1A 7927   6.555   5.340   7.175 -1.3290  0.3118 -1.1875
   74CHL1   H1B 7928   6.580   5.497   7.094 -1.7024 -1.3264 -1.9779
   74CHL1    C2 7929   6.600   5.330   6.974 -0.2105 -0.7464  0.3072
   74CHL1   H2A 7930   6.496   5.334   6.934 -0.3311 -2.2794  0.4117
   74CHL1   H2B 7931   6.609   5.219   6.978 -2.2491 -0.9675  0.0404
   74CHL1   C20 7932   6.846   5.602   7.840  0.1324 -0.7677 -0.3646
   74CHL1   H20 7933   6.932   5.533   7.850 -0.2033 -1.2711 -0.8533
   74CHL1   C21 7934   6.707   5.535   7.876  0.3634 -0.2487  0.0518
   74CHL1  H21A 7935   6.713   5.515   7.985 -0.4944  0.4082  0.2233
   74CHL1  H21B 7936   6.706   5.440   7.818 -0.5078  0.6178 -1.4347
   74CHL1  H21C 7937   6.619   5.601   7.863  2.0695  1.9750 -1.0108
   74CHL1   C22 7938   6.879   5.717   7.944  0.0105  0.1421 -0.3268
   74CHL1  H22A 7939   6.970   5.773   7.911 -0.3575  1.0266  0.1389
   74CHL1  H22B 7940   6.797   5.792   7.942  1.0922  1.4492 -4.1206
   74CHL1   C23 7941   6.907   5.668   8.087  0.2311 -1.0262 -0.4942
   74CHL1  H23A 7942   6.812   5.614   8.109 -0.5517 -0.6054 -2.6245
   74CHL1  H23B 7943   6.992   5.599   8.107 -0.1441 -1.7329 -1.3079
   74CHL1   C24 7944   6.912   5.786   8.185 -0.1926 -0.7868 -0.1864
   74CHL1  H24A 7945   6.966   5.745   8.273  0.9967 -0.0362 -0.5482
   74CHL1  H24B 7946   6.979   5.863   8.142 -0.4555 -0.9100 -0.8341
   74CHL1   C25 7947   6.780   5.855   8.222  0.0139 -0.2502  0.1846
   74CHL1   H25 7948   6.742   5.901   8.128 -0.1624  1.0038  0.8541
   74CHL1   C26 7949   6.672   5.764   8.285 -0.5541 -0.2201 -1.1012
   74CHL1  H26A 7950   6.709   5.711   8.376 -1.7089 -0.5571 -0.8133
   74CHL1  H26B 7951   6.591   5.829   8.324  0.7765  0.2440  1.0232
   74CHL1  H26C 7952   6.632   5.690   8.211 -0.8420 -1.1871 -0.0078
   74CHL1   C27 7953   6.805   5.983   8.305 -0.0241  0.7013 -0.8177
   74CHL1  H27A 7954   6.840   5.953   8.406  0.1268  0.2064 -1.0162
   74CHL1  H27B 7955   6.890   6.039   8.262 -0.7882  1.2921 -1.5964
   74CHL1  H27C 7956   6.713   6.045   8.317 -0.3627  0.1388 -0.4304
   75CHL1    C3 7957   6.315   6.805   6.630  0.4951  0.0744 -0.4052
   75CHL1    H3 7958   6.413   6.756   6.614  1.0432  1.3596 -1.1136
   75CHL1    O3 7959   6.263   6.866   6.515  0.0065 -0.3180 -0.0751
   75CHL1   H3' 7960   6.337   6.902   6.466 -1.2549 -1.1987 -2.8137
   75CHL1    C4 7961   6.215   6.699   6.678  0.2073  0.9894  0.6334
   75CHL1   H4A 7962   6.116   6.749   6.671 -0.8243 -1.0189  0.1336
   75CHL1   H4B 7963   6.208   6.618   6.602  0.6120 -1.6024  3.1741
   75CHL1    C5 7964   6.252   6.635   6.807 -0.0233  0.6513  0.2202
   75CHL1    C6 7965   6.258   6.504   6.828  0.1201  0.5472  0.1378
   75CHL1    H6 7966   6.245   6.433   6.745  0.5877  0.3886  0.1962
   75CHL1    C7 7967   6.283   6.442   6.959  0.5782  0.7404 -0.6365
   75CHL1   H7A 7968   6.212   6.358   6.969  3.1478 -1.7203 -1.7153
   75CHL1   H7B 7969   6.387   6.404   6.965  0.8810  1.7258  1.8178
   75CHL1    C8 7970   6.274   6.543   7.083  0.1806 -0.4356 -0.1130
   75CHL1    H8 7971   6.169   6.570   7.106  0.3534 -0.2463  0.4560
   75CHL1   C14 7972   6.338   6.482   7.208 -0.6766 -1.5372 -0.4552
   75CHL1   H14 7973   6.444   6.476   7.176  0.0148  0.8810  1.1040
   75CHL1   C15 7974   6.294   6.342   7.257 -0.1706  0.3752  0.3538
   75CHL1  H15A 7975   6.186   6.327   7.240  0.0556  1.2751 -2.3274
   75CHL1  H15B 7976   6.341   6.255   7.206 -0.2297 -1.1161  2.6574
   75CHL1   C16 7977   6.328   6.337   7.402 -0.2491 -0.4562 -0.2155
   75CHL1  H16A 7978   6.242   6.325   7.471  0.1966 -1.1951  0.2360
   75CHL1  H16B 7979   6.390   6.251   7.437 -1.5672 -0.8598  1.2357
   75CHL1   C17 7980   6.385   6.486   7.439  0.5129  0.4105  0.5823
   75CHL1   H17 7981   6.494   6.480   7.416 -0.0462 -2.5688 -1.9453
   75CHL1   C13 7982   6.323   6.576   7.330  0.2071 -0.7810 -0.6036
   75CHL1   C18 7983   6.176   6.617   7.369 -0.0706 -0.1182  0.1381
   75CHL1  H18A 7984   6.167   6.666   7.468  1.9901 -0.0253  0.3376
   75CHL1  H18B 7985   6.128   6.675   7.288 -1.9106 -2.0989 -0.2729
   75CHL1  H18C 7986   6.111   6.527   7.379  0.1282 -0.1920  0.7952
   75CHL1   C12 7987   6.407   6.706   7.289  0.2239  0.3963  0.0761
   75CHL1  H12A 7988   6.417   6.774   7.377 -1.1234  0.5058  0.1667
   75CHL1  H12B 7989   6.513   6.672   7.279  0.7952  1.6059  1.5241
   75CHL1   C11 7990   6.357   6.781   7.163  0.4680  0.1654 -0.0174
   75CHL1  H11A 7991   6.256   6.822   7.183  0.7812  1.9763 -1.8232
   75CHL1  H11B 7992   6.425   6.865   7.137  1.0466  0.1776  1.4150
   75CHL1    C9 7993   6.344   6.680   7.038 -0.1715  0.2623 -0.2234
   75CHL1    H9 7994   6.450   6.654   7.016 -0.3203  0.5294 -1.3586
   75CHL1   C10 7995   6.277   6.740   6.912 -0.4229 -0.3810 -0.1328
   75CHL1   C19 7996   6.134   6.796   6.950  0.1130 -0.1134 -0.3818
   75CHL1  H19A 7997   6.147   6.884   7.016 -2.2793  0.6101 -0.7777
   75CHL1  H19B 7998   6.080   6.831   6.860 -1.2521  1.4120  0.9664
   75CHL1  H19C 7999   6.074   6.715   6.997  1.0278 -1.7299 -1.8727
   75CHL1    C1 8000   6.376   6.855   6.863 -0.2921  0.2127 -0.1863
   75CHL1   H1A 8001   6.378   6.936   6.940 -1.0780  1.9006 -1.8702
   75CHL1   H1B 8002   6.481   6.823   6.851  0.6609  2.0807  2.3075
   75CHL1    C2 8003   6.331   6.913   6.729 -0.0032  0.2729 -0.2557
   75CHL1   H2A 8004   6.414   6.981   6.698 -0.0971 -0.3460 -1.9791
   75CHL1   H2B 8005   6.240   6.976   6.739 -0.2905 -0.4123  1.7678
   75CHL1   C20 8006   6.372   6.532   7.587  0.8863  0.0001 -0.1102
   75CHL1   H20 8007   6.267   6.526   7.624  0.6961  0.3068 -0.5916
   75CHL1   C21 8008   6.449   6.662   7.626  0.2476 -0.0082 -0.1457
   75CHL1  H21A 8009   6.411   6.751   7.572 -1.2161 -0.1711  0.5546
   75CHL1  H21B 8010   6.557   6.648   7.604  0.2105  3.0573 -2.9940
   75CHL1  H21C 8011   6.431   6.681   7.734 -0.7366 -0.2676 -0.2574
   75CHL1   C22 8012   6.445   6.415   7.671  0.2385 -0.8164  0.4467
   75CHL1  H22A 8013   6.386   6.322   7.653 -1.2628  0.7441 -4.6009
   75CHL1  H22B 8014   6.547   6.399   7.632  1.1390 -1.5527  2.9256
   75CHL1   C23 8015   6.463   6.446   7.819  0.8345 -0.0029 -0.4801
   75CHL1  H23A 8016   6.558   6.500   7.841 -0.6908  1.9874  1.7724
   75CHL1  H23B 8017   6.387   6.517   7.857  3.1251  4.1167 -2.8507
   75CHL1   C24 8018   6.473   6.311   7.905  0.5238 -0.1661  0.1895
   75CHL1  H24A 8019   6.377   6.257   7.894  0.2955  0.6240 -2.2222
   75CHL1  H24B 8020   6.561   6.258   7.863  1.7462  0.6005  1.6479
   75CHL1   C25 8021   6.509   6.329   8.057  0.0684 -0.2822 -0.2849
   75CHL1   H25 8022   6.586   6.406   8.076  0.4437 -0.7368  0.0728
   75CHL1   C26 8023   6.390   6.377   8.137  0.6350 -0.3879  0.4518
   75CHL1  H26A 8024   6.409   6.378   8.247 -1.7633 -1.6374  0.9569
   75CHL1  H26B 8025   6.361   6.481   8.109 -1.3579  0.0688  3.6455
   75CHL1  H26C 8026   6.309   6.306   8.110  1.7629 -0.8483 -1.9241
   75CHL1   C27 8027   6.570   6.201   8.117  0.3304 -0.6352 -0.1817
   75CHL1  H27A 8028   6.651   6.160   8.053 -0.1535 -2.7804  0.4937
   75CHL1  H27B 8029   6.598   6.211   8.224 -0.3518  0.3569 -0.0806
   75CHL1  H27C 8030   6.491   6.123   8.123  1.4711 -1.8765 -0.7967
   76CHL1    C3 8031   4.222   1.177   7.219  0.0663 -0.8487  0.6421
   76CHL1    H3 8032   4.313   1.241   7.224 -0.0431 -0.6158 -0.1763
   76CHL1    O3 8033   4.174   1.170   7.080 -0.0103 -0.4643 -0.0179
   76CHL1   H3' 8034   4.084   1.136   7.086 -0.3211  0.4039  0.3574
   76CHL1    C4 8035   4.242   1.036   7.273  0.7579 -0.5121 -0.1527
   76CHL1   H4A 8036   4.148   0.978   7.262  0.6317 -0.2039 -0.7408
   76CHL1   H4B 8037   4.322   0.989   7.211  1.7407  1.8496 -0.7907
   76CHL1    C5 8038   4.268   1.045   7.425 -0.6470  0.2106  0.2013
   76CHL1    C6 8039   4.374   0.990   7.489 -0.5735 -0.2405  0.2544
   76CHL1    H6 8040   4.455   0.946   7.429 -0.9612  0.1528 -0.5657
   76CHL1    C7 8041   4.396   0.969   7.635  0.0607  0.0198  0.2408
   76CHL1   H7A 8042   4.420   0.862   7.651  1.0797  0.1680 -0.2239
   76CHL1   H7B 8043   4.479   1.032   7.672 -0.0145  0.0184  0.4101
   76CHL1    C8 8044   4.272   1.020   7.714  0.0514 -0.1154  0.5813
   76CHL1    H8 8045   4.199   0.937   7.706 -1.1380  0.8362  1.1957
   76CHL1   C14 8046   4.306   1.038   7.853  0.6192 -0.4607 -0.9867
   76CHL1   H14 8047   4.371   1.129   7.858 -1.0961  0.7606  0.2974
   76CHL1   C15 8048   4.366   0.923   7.935  0.3165  0.8507 -0.3951
   76CHL1  H15A 8049   4.321   0.825   7.908 -0.6056  0.7472  1.3902
   76CHL1  H15B 8050   4.475   0.907   7.929  0.0850 -1.6538  0.7603
   76CHL1   C16 8051   4.340   0.952   8.088  0.2624 -0.5743  0.4274
   76CHL1  H16A 8052   4.285   0.866   8.132 -0.0595 -0.6735 -0.1588
   76CHL1  H16B 8053   4.434   0.965   8.147  2.1735 -0.8278 -2.3401
   76CHL1   C17 8054   4.265   1.087   8.085  0.3729 -0.1707 -0.7601
   76CHL1   H17 8055   4.344   1.163   8.067  0.7165 -0.2814  0.2569
   76CHL1   C13 8056   4.191   1.091   7.946 -0.7963 -0.1678 -0.0891
   76CHL1   C18 8057   4.071   0.996   7.933  0.1326 -0.7813  0.3025
   76CHL1  H18A 8058   4.101   0.901   7.983 -0.4442  0.1255  2.5051
   76CHL1  H18B 8059   3.984   1.033   7.992 -0.1030  0.4320 -0.7651
   76CHL1  H18C 8060   4.044   0.978   7.827  1.9798 -0.7996 -0.1965
   76CHL1   C12 8061   4.155   1.237   7.893 -0.3134  0.4753 -0.2165
   76CHL1  H12A 8062   4.080   1.294   7.952 -0.6429  0.8522 -0.9804
   76CHL1  H12B 8063   4.251   1.292   7.906  0.5319 -1.4492  2.7584
   76CHL1   C11 8064   4.105   1.220   7.749  0.0497 -0.1273  0.4987
   76CHL1  H11A 8065   4.010   1.164   7.752  1.4867 -2.6354  2.3779
   76CHL1  H11B 8066   4.094   1.320   7.702  1.8040  0.0722  0.4318
   76CHL1    C9 8067   4.210   1.144   7.659 -0.0898 -0.5957 -0.1291
   76CHL1    H9 8068   4.289   1.221   7.650 -2.5286  2.2315  0.9052
   76CHL1   C10 8069   4.155   1.114   7.510 -0.5062 -0.2429  0.4285
   76CHL1   C19 8070   4.025   1.040   7.510  0.2141  0.4869  0.2804
   76CHL1  H19A 8071   3.935   1.096   7.545 -1.3709 -0.6943 -1.7262
   76CHL1  H19B 8072   3.994   1.009   7.408  0.4909  2.4793 -0.4632
   76CHL1  H19C 8073   4.016   0.943   7.563 -0.1938  0.3722  0.0027
   76CHL1    C1 8074   4.131   1.251   7.446 -0.0358  0.5401  0.4481
   76CHL1   H1A 8075   4.046   1.308   7.489  0.6370  0.0987  2.4437
   76CHL1   H1B 8076   4.218   1.317   7.469 -1.2552  2.4553 -0.2537
   76CHL1    C2 8077   4.109   1.250   7.295  0.4780 -0.0609  1.2048
   76CHL1   H2A 8078   4.100   1.352   7.252  0.1789  0.3151  2.1350
   76CHL1   H2B 8079   4.015   1.195   7.272  0.3456  0.4683  0.4358
   76CHL1   C20 8080   4.190   1.105   8.221 -0.1676  0.2827  0.5406
   76CHL1   H20 8081   4.108   1.180   8.210  0.8614  1.1522 -1.7778
   76CHL1   C21 8082   4.291   1.165   8.312  0.0489 -0.2976 -0.1038
   76CHL1  H21A 8083   4.247   1.198   8.409 -0.1643 -1.6453  0.2929
   76CHL1  H21B 8084   4.340   1.255   8.270  1.0618 -0.4702  0.6595
   76CHL1  H21C 8085   4.378   1.102   8.340  2.1767  2.2572 -0.5822
   76CHL1   C22 8086   4.130   0.980   8.277 -0.2065 -0.3705  0.3894
   76CHL1  H22A 8087   4.089   0.924   8.190 -1.3923  0.6129  0.3060
   76CHL1  H22B 8088   4.208   0.917   8.326  0.8929 -0.9425 -1.9701
   76CHL1   C23 8089   3.995   1.014   8.358 -0.8227 -0.0869  0.0507
   76CHL1  H23A 8090   4.022   1.098   8.425 -0.1503  0.0068 -0.3246
   76CHL1  H23B 8091   3.913   1.043   8.288 -2.2824  1.6496  2.3382
   76CHL1   C24 8092   3.942   0.893   8.438  0.0902  0.0449  0.2345
   76CHL1  H24A 8093   3.924   0.800   8.381 -0.3662  0.2419  0.0541
   76CHL1  H24B 8094   4.011   0.863   8.520 -0.6173  0.6691  1.0915
   76CHL1   C25 8095   3.811   0.937   8.519  0.0238  0.6330 -0.5369
   76CHL1   H25 8096   3.764   0.995   8.437  0.3990 -1.3539 -2.2338
   76CHL1   C26 8097   3.730   0.820   8.576 -0.3172  0.2922  0.5694
   76CHL1  H26A 8098   3.797   0.763   8.643 -0.2271 -0.8095 -0.4311
   76CHL1  H26B 8099   3.634   0.858   8.617 -1.5789 -0.1366 -1.8111
   76CHL1  H26C 8100   3.708   0.755   8.489  0.6848  1.9590 -1.0113
   76CHL1   C27 8101   3.851   1.029   8.637  0.6505  0.4534 -0.2020
   76CHL1  H27A 8102   3.917   0.979   8.711  0.4112  1.0601  0.4326
   76CHL1  H27B 8103   3.910   1.113   8.594  0.1124  0.3226 -1.2450
   76CHL1  H27C 8104   3.767   1.079   8.690  0.4447 -0.5757  0.4604
   77CHL1    C3 8105   4.058   6.351   6.841  0.3125 -0.9115 -0.1110
   77CHL1    H3 8106   4.166   6.368   6.822  0.6597 -2.2480  0.5775
   77CHL1    O3 8107   3.999   6.346   6.714 -0.1433 -0.2772 -0.1900
   77CHL1   H3' 8108   3.908   6.359   6.742  0.6034  1.6481  1.7236
   77CHL1    C4 8109   4.033   6.219   6.915  0.8819  0.7447 -0.1531
   77CHL1   H4A 8110   3.929   6.180   6.911  0.2274  2.4891 -2.0475
   77CHL1   H4B 8111   4.088   6.144   6.854 -2.7558 -0.6913 -2.0440
   77CHL1    C5 8112   4.082   6.222   7.054 -0.1875 -0.4387 -0.2051
   77CHL1    C6 8113   4.185   6.142   7.091 -0.0036  0.1483  0.0019
   77CHL1    H6 8114   4.232   6.064   7.029  0.5866 -0.0886  0.7388
   77CHL1    C7 8115   4.223   6.144   7.235 -0.1678 -0.2753  0.5073
   77CHL1   H7A 8116   4.250   6.040   7.262  3.2486  0.4747  0.4596
   77CHL1   H7B 8117   4.313   6.207   7.253 -1.8771  1.6361  3.2792
   77CHL1    C8 8118   4.117   6.192   7.329 -0.2864 -0.5750  0.0643
   77CHL1    H8 8119   4.029   6.125   7.333  0.1261 -1.1317  4.1724
   77CHL1   C14 8120   4.161   6.199   7.470  0.1167 -0.2382  0.4612
   77CHL1   H14 8121   4.261   6.247   7.477  1.1520 -2.2019 -0.0011
   77CHL1   C15 8122   4.186   6.064   7.538  0.1937  0.1143  0.0877
   77CHL1  H15A 8123   4.090   6.010   7.525  0.8812 -1.2471  0.4498
   77CHL1  H15B 8124   4.272   6.008   7.498 -1.4366 -0.3678 -3.0039
   77CHL1   C16 8125   4.205   6.098   7.682 -0.1639 -0.3017  0.2054
   77CHL1  H16A 8126   4.159   6.018   7.744  1.4307  0.3511  2.3202
   77CHL1  H16B 8127   4.312   6.099   7.708 -0.3110  0.9265  0.8287
   77CHL1   C17 8128   4.135   6.240   7.709  0.2058  0.0367 -0.4735
   77CHL1   H17 8129   4.217   6.314   7.725 -0.5507  1.1393 -1.5083
   77CHL1   C13 8130   4.063   6.270   7.576 -0.1482 -0.7197  0.4652
   77CHL1   C18 8131   3.927   6.206   7.571 -0.3213  0.1696  0.5580
   77CHL1  H18A 8132   3.936   6.109   7.624  0.2796  0.5798  1.2345
   77CHL1  H18B 8133   3.853   6.260   7.634 -0.1358 -0.0267  0.9466
   77CHL1  H18C 8134   3.878   6.201   7.472 -0.3383  0.7628  0.5321
   77CHL1   C12 8135   4.064   6.413   7.523  0.1660 -0.0678  0.4244
   77CHL1  H12A 8136   4.007   6.477   7.594 -1.3519 -1.9352  0.9883
   77CHL1  H12B 8137   4.171   6.443   7.528 -0.0703  1.5983 -2.6353
   77CHL1   C11 8138   4.001   6.419   7.385 -0.5235 -0.3129  0.0287
   77CHL1  H11A 8139   3.894   6.391   7.381 -0.7895  0.6663  0.0196
   77CHL1  H11B 8140   4.018   6.523   7.349  1.8829 -0.2360  1.1995
   77CHL1    C9 8141   4.083   6.336   7.284  0.2964 -0.5344  0.9027
   77CHL1    H9 8142   4.187   6.378   7.285  0.4985 -0.9961  2.2924
   77CHL1   C10 8143   4.022   6.329   7.136 -0.0125 -0.9502 -0.0524
   77CHL1   C19 8144   3.865   6.317   7.153 -0.8195  0.8835  0.1587
   77CHL1  H19A 8145   3.818   6.320   7.052  0.8536  2.2059 -0.6381
   77CHL1  H19B 8146   3.843   6.222   7.206  1.7371  1.0724  1.7022
   77CHL1  H19C 8147   3.805   6.393   7.207 -1.2293 -0.1268  1.1575
   77CHL1    C1 8148   4.048   6.468   7.060 -0.3230  0.0456  0.2453
   77CHL1   H1A 8149   4.009   6.551   7.123  2.6948  1.9852 -0.2542
   77CHL1   H1B 8150   4.158   6.480   7.055 -0.1736 -1.5429 -3.6615
   77CHL1    C2 8151   4.000   6.471   6.915  0.0411 -0.6478  0.0371
   77CHL1   H2A 8152   4.034   6.562   6.861  1.2900 -1.0289  0.1469
   77CHL1   H2B 8153   3.889   6.472   6.914 -0.0699  2.1083 -3.2184
   77CHL1   C20 8154   4.047   6.246   7.839 -0.2122  0.3473  0.2382
   77CHL1   H20 8155   3.971   6.166   7.845  0.2126 -0.0453  0.4355
   77CHL1   C21 8156   3.980   6.382   7.844  0.3961 -0.5088 -0.2924
   77CHL1  H21A 8157   4.044   6.472   7.836 -1.5297  1.2857  2.4790
   77CHL1  H21B 8158   3.935   6.392   7.945 -1.1218 -0.6692 -0.9284
   77CHL1  H21C 8159   3.899   6.386   7.768  2.1582 -0.9169 -2.2658
   77CHL1   C22 8160   4.133   6.234   7.968  0.1878 -0.0555  0.2549
   77CHL1  H22A 8161   4.189   6.139   7.955 -0.6016 -0.2066 -2.6226
   77CHL1  H22B 8162   4.195   6.324   7.990 -1.2267  1.0017  0.0864
   77CHL1   C23 8163   4.049   6.204   8.096 -0.6113 -0.2202  0.2024
   77CHL1  H23A 8164   3.978   6.287   8.118 -0.4906 -0.0168 -0.1657
   77CHL1  H23B 8165   4.008   6.102   8.079 -0.6064 -0.1703 -0.1281
   77CHL1   C24 8166   4.140   6.188   8.225  0.3959  0.1450 -0.3117
   77CHL1  H24A 8167   4.223   6.118   8.204  0.9764  0.7053  0.0671
   77CHL1  H24B 8168   4.189   6.286   8.240 -4.3902  3.0600 -1.4729
   77CHL1   C25 8169   4.061   6.133   8.350  0.2348  0.6910 -0.0793
   77CHL1   H25 8170   3.976   6.202   8.365 -0.8534 -0.3301 -1.2712
   77CHL1   C26 8171   4.012   5.994   8.321 -0.2095  0.6111  1.0968
   77CHL1  H26A 8172   3.953   5.967   8.412 -0.5124 -0.9774  0.4594
   77CHL1  H26B 8173   3.956   5.981   8.226 -0.0069 -1.3551  1.1884
   77CHL1  H26C 8174   4.099   5.925   8.316 -1.8839 -1.7934  2.3528
   77CHL1   C27 8175   4.160   6.137   8.471  0.0515  0.7409  0.2125
   77CHL1  H27A 8176   4.196   6.242   8.478  0.6451  0.5722 -0.1999
   77CHL1  H27B 8177   4.114   6.100   8.565  0.9128 -1.8236 -0.2976
   77CHL1  H27C 8178   4.247   6.074   8.442 -1.6551 -2.0192  0.7226
   78CHL1    C3 8179   0.385   1.749   6.946  0.0835  0.1669 -0.8359
   78CHL1    H3 8180   0.474   1.726   7.008  0.3431 -0.8289 -1.5531
   78CHL1    O3 8181   0.432   1.773   6.814 -0.1687 -0.8428 -0.2711
   78CHL1   H3' 8182   0.474   1.859   6.813  1.5608 -1.5678 -3.8040
   78CHL1    C4 8183   0.277   1.637   6.948  0.0478  0.6415  0.1761
   78CHL1   H4A 8184   0.190   1.679   6.893 -0.3421  1.2781  1.2662
   78CHL1   H4B 8185   0.312   1.543   6.900 -0.2620 -0.1806  1.5366
   78CHL1    C5 8186   0.242   1.625   7.093  0.6115  0.8048 -0.2069
   78CHL1    C6 8187   0.252   1.512   7.159  0.1591  0.5518  0.1589
   78CHL1    H6 8188   0.308   1.431   7.110 -0.4259  0.2444 -0.0048
   78CHL1    C7 8189   0.228   1.479   7.300 -0.2077  0.4689 -0.6314
   78CHL1   H7A 8190   0.171   1.384   7.310 -1.5967  1.4234  1.1244
   78CHL1   H7B 8191   0.321   1.468   7.359 -1.5800  0.0175  1.5730
   78CHL1    C8 8192   0.142   1.591   7.361  0.4228 -0.0104  0.6095
   78CHL1    H8 8193   0.042   1.573   7.315  0.4033 -0.2295  0.7346
   78CHL1   C14 8194   0.139   1.575   7.515 -0.4313 -0.1381 -0.7326
   78CHL1   H14 8195   0.232   1.609   7.567 -1.7915  1.4477  0.8116
   78CHL1   C15 8196   0.108   1.432   7.571 -0.4730 -0.2070 -0.0837
   78CHL1  H15A 8197   0.029   1.392   7.504 -2.0196  0.0811  1.5035
   78CHL1  H15B 8198   0.203   1.375   7.582 -0.3548  0.3673  2.8033
   78CHL1   C16 8199   0.059   1.464   7.714  0.0555  0.8690  0.0669
   78CHL1  H16A 8200  -0.046   1.430   7.725  0.1281  0.7145  0.2784
   78CHL1  H16B 8201   0.133   1.422   7.786 -1.4352  0.9985  1.7408
   78CHL1   C17 8202   0.064   1.617   7.731 -0.0166 -0.6613  0.3460
   78CHL1   H17 8203   0.162   1.651   7.769 -1.3119  1.1673  2.2376
   78CHL1   C13 8204   0.045   1.674   7.586 -0.3940  0.3182  0.5017
   78CHL1   C18 8205  -0.104   1.655   7.545 -0.5137 -0.0127 -0.1260
   78CHL1  H18A 8206  -0.117   1.657   7.435  2.1281 -1.5104 -0.5405
   78CHL1  H18B 8207  -0.146   1.557   7.577  2.3425 -1.2998  0.0617
   78CHL1  H18C 8208  -0.157   1.737   7.598 -2.5659 -2.2282  1.4650
   78CHL1   C12 8209   0.099   1.814   7.553  0.4322  0.0630 -0.2316
   78CHL1  H12A 8210   0.040   1.887   7.612 -0.4094 -1.0705  0.3617
   78CHL1  H12B 8211   0.201   1.811   7.599 -0.3149 -2.3310  1.4980
   78CHL1   C11 8212   0.111   1.840   7.403 -0.1177 -0.0473 -0.7329
   78CHL1  H11A 8213   0.008   1.848   7.360 -0.6509  3.1929  0.7619
   78CHL1  H11B 8214   0.145   1.944   7.385 -1.8239  0.0739 -3.8321
   78CHL1    C9 8215   0.186   1.731   7.321  0.0511 -0.3531  0.1699
   78CHL1    H9 8216   0.292   1.724   7.353 -0.4377 -3.2667  1.4918
   78CHL1   C10 8217   0.188   1.752   7.162 -0.3598  0.8750 -0.3195
   78CHL1   C19 8218   0.051   1.787   7.117  0.0274  0.6443 -0.2307
   78CHL1  H19A 8219   0.039   1.773   7.007 -1.1522  0.7606 -0.1320
   78CHL1  H19B 8220  -0.031   1.735   7.171  1.1088 -0.3767  0.4975
   78CHL1  H19C 8221   0.029   1.895   7.131 -1.5529  0.0522  2.5503
   78CHL1    C1 8222   0.286   1.879   7.144 -0.2095  0.1110  0.1662
   78CHL1   H1A 8223   0.257   1.975   7.191  0.1404  1.6453 -2.5139
   78CHL1   H1B 8224   0.374   1.854   7.207  1.0264 -0.3091 -1.6317
   78CHL1    C2 8225   0.333   1.880   6.996  0.2495  0.3585  1.1364
   78CHL1   H2A 8226   0.416   1.953   6.982  1.7475 -1.5166 -0.2419
   78CHL1   H2B 8227   0.245   1.911   6.934  2.0841 -0.3878 -2.0885
   78CHL1   C20 8228  -0.038   1.671   7.829  0.4705 -0.3631  0.7135
   78CHL1   H20 8229  -0.139   1.640   7.795  0.9616  0.4357 -1.6214
   78CHL1   C21 8230  -0.046   1.829   7.837  0.5895  0.2542  0.5040
   78CHL1  H21A 8231   0.059   1.863   7.822  0.7321 -1.2709 -3.0940
   78CHL1  H21B 8232  -0.082   1.872   7.932 -0.6388 -0.3684  0.3423
   78CHL1  H21C 8233  -0.125   1.868   7.769  0.2749  1.3408  1.4616
   78CHL1   C22 8234  -0.019   1.611   7.973  0.6185  0.4480 -0.4248
   78CHL1  H22A 8235   0.027   1.510   7.975 -1.1806 -0.4061  0.9354
   78CHL1  H22B 8236   0.051   1.686   8.016 -0.4828  0.9262  0.5877
   78CHL1   C23 8237  -0.150   1.590   8.068 -0.3078 -0.1644 -0.0037
   78CHL1  H23A 8238  -0.219   1.667   8.028 -0.2154  0.3375  0.7926
   78CHL1  H23B 8239  -0.198   1.496   8.032 -1.3618  0.4209 -0.1670
   78CHL1   C24 8240  -0.120   1.594   8.210 -0.5656  0.0249  0.3975
   78CHL1  H24A 8241  -0.072   1.497   8.235 -0.2835 -0.0613 -0.4665
   78CHL1  H24B 8242  -0.045   1.672   8.233  0.3674 -0.5864 -0.5137
   78CHL1   C25 8243  -0.242   1.620   8.298 -0.0792 -0.2291 -0.0923
   78CHL1   H25 8244  -0.285   1.718   8.267  0.4253 -0.7040 -2.4667
   78CHL1   C26 8245  -0.349   1.508   8.289 -0.0446 -1.0706  0.0416
   78CHL1  H26A 8246  -0.372   1.497   8.181  2.0683  0.6907 -0.6642
   78CHL1  H26B 8247  -0.316   1.410   8.329  1.5999 -1.2622 -1.6302
   78CHL1  H26C 8248  -0.437   1.562   8.330  0.0237  0.0791 -1.2498
   78CHL1   C27 8249  -0.197   1.646   8.442  0.1471  0.3035  0.2923
   78CHL1  H27A 8250  -0.127   1.732   8.450  0.9392 -0.2836 -0.1573
   78CHL1  H27B 8251  -0.280   1.683   8.504 -0.6046  0.2975 -0.6902
   78CHL1  H27C 8252  -0.143   1.559   8.487  0.8441  0.9666  0.7578
   79CHL1    C3 8253   4.052   0.750   7.042 -0.4706 -0.3203 -0.6690
   79CHL1    H3 8254   4.073   0.851   7.084  0.1459 -1.2381  1.3457
   79CHL1    O3 8255   4.046   0.747   6.899 -0.0474  0.0707 -0.4929
   79CHL1   H3' 8256   3.957   0.768   6.869 -0.8623 -0.5439  1.3527
   79CHL1    C4 8257   4.162   0.659   7.099  0.6452 -0.2359  0.3802
   79CHL1   H4A 8258   4.152   0.563   7.045 -2.7642  1.0313 -1.5635
   79CHL1   H4B 8259   4.257   0.702   7.061 -1.1383  1.9753 -1.9091
   79CHL1    C5 8260   4.156   0.643   7.254  0.2084 -0.1257 -0.7041
   79CHL1    C6 8261   4.257   0.662   7.330 -0.1908 -0.7905  0.2729
   79CHL1    H6 8262   4.343   0.692   7.269 -1.1482  0.5208 -0.4805
   79CHL1    C7 8263   4.264   0.646   7.473 -0.8548 -0.4385 -0.7887
   79CHL1   H7A 8264   4.356   0.592   7.504  0.4104  0.3234 -2.9813
   79CHL1   H7B 8265   4.259   0.745   7.523 -0.5755 -0.8203 -0.0023
   79CHL1    C8 8266   4.137   0.574   7.535  0.3702 -1.0913  0.4870
   79CHL1    H8 8267   4.147   0.466   7.509  0.1118 -0.6019 -1.9129
   79CHL1   C14 8268   4.124   0.607   7.682  0.2038  0.3131  0.5246
   79CHL1   H14 8269   4.102   0.716   7.690 -1.4201 -0.0543  1.4024
   79CHL1   C15 8270   4.236   0.580   7.778  0.7292 -0.0661  0.8964
   79CHL1  H15A 8271   4.311   0.510   7.734 -1.0711 -1.0910 -0.6913
   79CHL1  H15B 8272   4.300   0.671   7.785  1.6913 -0.7247  0.9030
   79CHL1   C16 8273   4.178   0.544   7.911 -0.2650  1.0351  0.0642
   79CHL1  H16A 8274   4.205   0.436   7.918 -1.1179  0.6274 -2.1064
   79CHL1  H16B 8275   4.198   0.601   8.004 -0.3092  2.4387 -0.7524
   79CHL1   C17 8276   4.020   0.569   7.896 -0.2045  0.3714 -0.6577
   79CHL1   H17 8277   4.003   0.679   7.910  0.9237  0.4577  0.1908
   79CHL1   C13 8278   3.995   0.541   7.748  0.0294  0.3699 -0.0102
   79CHL1   C18 8279   3.986   0.385   7.731  0.0560 -0.4568 -0.5110
   79CHL1  H18A 8280   4.084   0.335   7.750 -0.8840 -2.0586  0.3653
   79CHL1  H18B 8281   3.905   0.345   7.795 -0.4540  1.4287  0.0872
   79CHL1  H18C 8282   3.962   0.356   7.627 -1.0236 -2.5159  0.2538
   79CHL1   C12 8283   3.864   0.607   7.686 -0.2712  0.1936 -0.2196
   79CHL1  H12A 8284   3.774   0.563   7.734 -1.2901  0.7436 -1.5682
   79CHL1  H12B 8285   3.866   0.715   7.712  1.2492  0.3588 -0.9062
   79CHL1   C11 8286   3.869   0.584   7.528 -0.0143 -0.6184  0.0909
   79CHL1  H11A 8287   3.846   0.478   7.505  0.4203 -0.3669 -1.6052
   79CHL1  H11B 8288   3.790   0.647   7.481  1.4331  0.4687 -0.9818
   79CHL1    C9 8289   4.006   0.625   7.463 -0.3406 -0.1109 -0.1538
   79CHL1    H9 8290   4.011   0.732   7.492  0.1921 -0.6867  2.0527
   79CHL1   C10 8291   4.013   0.613   7.308 -0.3802  0.2271 -0.3794
   79CHL1   C19 8292   3.987   0.465   7.273  0.3112 -0.5841  0.2334
   79CHL1  H19A 8293   4.023   0.443   7.171 -0.7206  1.1887 -0.5642
   79CHL1  H19B 8294   4.029   0.397   7.350 -0.2230  0.5615  1.5910
   79CHL1  H19C 8295   3.876   0.461   7.273  0.1387  2.1991 -0.3442
   79CHL1    C1 8296   3.914   0.714   7.248  0.0478 -0.5971  0.0945
   79CHL1   H1A 8297   3.811   0.680   7.272  0.0877 -0.7358  0.0673
   79CHL1   H1B 8298   3.925   0.818   7.287 -1.1136 -0.1808 -0.6207
   79CHL1    C2 8299   3.911   0.724   7.095 -1.0937 -0.2209 -0.2948
   79CHL1   H2A 8300   3.843   0.806   7.064  0.0479  1.1446  0.7099
   79CHL1   H2B 8301   3.874   0.628   7.051  0.5704 -0.5485 -1.0581
   79CHL1   C20 8302   3.931   0.497   8.009 -0.2127  0.3701 -0.4122
   79CHL1   H20 8303   3.955   0.388   8.012 -0.0726  0.4158  1.2978
   79CHL1   C21 8304   3.780   0.517   7.995  0.6727  0.1905  0.5353
   79CHL1  H21A 8305   3.758   0.440   7.918  1.6762  0.6504 -0.2351
   79CHL1  H21B 8306   3.766   0.618   7.951  4.1102 -0.0439 -1.5173
   79CHL1  H21C 8307   3.720   0.503   8.087  1.8267 -1.5458  1.0684
   79CHL1   C22 8308   3.974   0.544   8.152  0.1847  0.1355  1.2701
   79CHL1  H22A 8309   4.081   0.563   8.174 -0.1889 -0.2066  3.7007
   79CHL1  H22B 8310   3.912   0.632   8.183 -0.7957  0.7328 -1.9773
   79CHL1   C23 8311   3.946   0.436   8.262 -0.2676 -0.7390 -0.2982
   79CHL1  H23A 8312   3.837   0.421   8.278 -0.7098  1.3325 -1.0828
   79CHL1  H23B 8313   3.990   0.337   8.238  0.0595 -0.4283 -0.9917
   79CHL1   C24 8314   4.000   0.479   8.400  0.1864  0.0004 -0.0831
   79CHL1  H24A 8315   4.108   0.504   8.389 -0.0965  0.4675 -2.2114
   79CHL1  H24B 8316   3.944   0.570   8.429 -0.8845 -0.8519  0.6195
   79CHL1   C25 8317   3.968   0.362   8.500 -0.4740  0.7707 -0.6266
   79CHL1   H25 8318   3.862   0.329   8.498 -0.2099 -0.3454  1.2503
   79CHL1   C26 8319   4.054   0.237   8.470  0.1628  0.0475 -0.1264
   79CHL1  H26A 8320   4.156   0.272   8.443 -0.1490  0.8449 -0.3204
   79CHL1  H26B 8321   4.060   0.173   8.561  0.1653  3.7068  2.7133
   79CHL1  H26C 8322   4.019   0.172   8.388  0.0561 -0.8282  0.5964
   79CHL1   C27 8323   3.998   0.402   8.641 -0.0522  0.4018 -0.6378
   79CHL1  H27A 8324   3.936   0.350   8.717  1.0057  1.4781  1.0180
   79CHL1  H27B 8325   4.105   0.377   8.661 -0.6977 -0.6943  1.7916
   79CHL1  H27C 8326   3.987   0.512   8.651  1.9229  0.5274  0.8663
   80CHL1    C3 8327   0.533   3.810   7.013  0.4450  0.7595  0.4833
   80CHL1    H3 8328   0.422   3.812   7.013  0.2937 -2.5110 -0.6943
   80CHL1    O3 8329   0.580   3.810   6.877 -0.2084 -0.5921  0.5534
   80CHL1   H3' 8330   0.551   3.726   6.842 -1.9644  0.5473 -0.8873
   80CHL1    C4 8331   0.608   3.920   7.090 -0.8180 -0.5765  0.4652
   80CHL1   H4A 8332   0.714   3.911   7.058 -0.8811 -3.9919  0.8171
   80CHL1   H4B 8333   0.572   4.018   7.053  3.2365  0.7009 -0.6088
   80CHL1    C5 8334   0.588   3.916   7.245  0.0100 -0.0335 -0.4319
   80CHL1    C6 8335   0.531   4.017   7.316  0.1097  0.1241  0.2667
   80CHL1    H6 8336   0.489   4.099   7.256 -1.2447 -0.3047  0.6048
   80CHL1    C7 8337   0.499   4.018   7.465 -0.7495  0.6038 -0.1716
   80CHL1   H7A 8338   0.524   4.114   7.513 -0.1478  0.3533  0.0214
   80CHL1   H7B 8339   0.394   3.991   7.491 -0.5452  1.3689  1.5848
   80CHL1    C8 8340   0.582   3.908   7.539 -0.3119  0.9484  0.1971
   80CHL1    H8 8341   0.688   3.941   7.547 -0.4194  1.7926 -1.3490
   80CHL1   C14 8342   0.525   3.881   7.681 -0.6639 -0.4217 -0.0525
   80CHL1   H14 8343   0.422   3.840   7.671  0.3855 -2.6960 -3.9652
   80CHL1   C15 8344   0.523   4.003   7.768 -0.0730 -0.2056  0.3269
   80CHL1  H15A 8345   0.620   4.057   7.763 -0.9695  1.3353 -1.2669
   80CHL1  H15B 8346   0.433   4.063   7.742 -0.3671 -1.1153 -0.8300
   80CHL1   C16 8347   0.500   3.943   7.913 -0.9304 -0.1656  0.3852
   80CHL1  H16A 8348   0.574   3.983   7.986 -1.1274 -0.3605  0.6933
   80CHL1  H16B 8349   0.397   3.964   7.950 -0.0802  0.5402  2.5499
   80CHL1   C17 8350   0.521   3.790   7.896 -0.3586 -0.0499  1.4644
   80CHL1   H17 8351   0.428   3.735   7.874  0.4307 -0.9628  0.3359
   80CHL1   C13 8352   0.604   3.781   7.762  0.1332  0.0673  0.0819
   80CHL1   C18 8353   0.756   3.820   7.779  0.1826  0.4697  0.4785
   80CHL1  H18A 8354   0.798   3.745   7.850 -3.3960 -1.8607  0.3896
   80CHL1  H18B 8355   0.817   3.810   7.687  0.8210 -0.6864  0.9961
   80CHL1  H18C 8356   0.769   3.923   7.819  0.8352  0.4527  0.3197
   80CHL1   C12 8357   0.597   3.646   7.684 -0.0455 -0.3756  0.2521
   80CHL1  H12A 8358   0.663   3.571   7.733  0.2478 -0.4632 -0.2747
   80CHL1  H12B 8359   0.490   3.616   7.682 -0.3491  0.5186  1.5927
   80CHL1   C11 8360   0.654   3.657   7.540  0.2160  0.2647 -0.1636
   80CHL1  H11A 8361   0.762   3.684   7.542 -0.2420  2.6654 -2.1518
   80CHL1  H11B 8362   0.646   3.566   7.478  0.0444 -1.0402  1.7085
   80CHL1    C9 8363   0.583   3.773   7.459  0.4463  0.1237 -0.7308
   80CHL1    H9 8364   0.474   3.749   7.461  0.4238  0.1287  2.3030
   80CHL1   C10 8365   0.626   3.781   7.308 -0.9708  0.1141 -0.3560
   80CHL1   C19 8366   0.780   3.756   7.301 -0.2379 -0.4811 -1.0855
   80CHL1  H19A 8367   0.832   3.773   7.205  0.7166  0.5257 -0.4229
   80CHL1  H19B 8368   0.837   3.816   7.376  3.0389 -1.4378 -2.6483
   80CHL1  H19C 8369   0.809   3.650   7.318 -1.2334 -0.8885 -1.8562
   80CHL1    C1 8370   0.564   3.666   7.220  0.2613 -0.6709 -0.1637
   80CHL1   H1A 8371   0.601   3.568   7.258  0.4465  0.1000  1.7295
   80CHL1   H1B 8372   0.454   3.663   7.231 -0.1823 -2.2256 -3.5681
   80CHL1    C2 8373   0.577   3.674   7.067  0.1967  0.5753  0.5006
   80CHL1   H2A 8374   0.499   3.605   7.029 -0.3626  1.1496  0.5995
   80CHL1   H2B 8375   0.670   3.638   7.018 -1.6296 -0.1050 -2.6844
   80CHL1   C20 8376   0.581   3.731   8.020 -0.7505  0.0114 -0.1433
   80CHL1   H20 8377   0.675   3.785   8.044 -1.6845  1.3794  0.5576
   80CHL1   C21 8378   0.600   3.579   7.996 -0.0499  0.2227  0.2933
   80CHL1  H21A 8379   0.503   3.531   7.972  0.6873 -2.2565  1.9154
   80CHL1  H21B 8380   0.637   3.516   8.080 -0.4481 -0.6128 -0.1525
   80CHL1  H21C 8381   0.677   3.570   7.916 -2.1089 -0.5886 -1.6792
   80CHL1   C22 8382   0.483   3.744   8.144 -0.2654 -0.2868  0.2600
   80CHL1  H22A 8383   0.450   3.850   8.144 -1.5952 -0.6815 -0.4465
   80CHL1  H22B 8384   0.394   3.682   8.120 -0.0374  0.2180 -2.1700
   80CHL1   C23 8385   0.550   3.710   8.282  0.3408 -0.1192 -0.6521
   80CHL1  H23A 8386   0.538   3.602   8.304  1.2320  0.0691  0.9416
   80CHL1  H23B 8387   0.658   3.737   8.277  0.3013  0.2188  0.1243
   80CHL1   C24 8388   0.486   3.779   8.405  0.3847 -0.2952 -0.0643
   80CHL1  H24A 8389   0.464   3.886   8.380 -0.4503 -0.8341 -1.8326
   80CHL1  H24B 8390   0.389   3.726   8.416  0.7293 -1.2299 -1.3475
   80CHL1   C25 8391   0.569   3.770   8.533 -0.5032 -0.4307 -0.4035
   80CHL1   H25 8392   0.583   3.666   8.568 -2.6513 -0.4809  0.4881
   80CHL1   C26 8393   0.701   3.844   8.508 -0.3331 -0.3001 -0.3871
   80CHL1  H26A 8394   0.669   3.942   8.466 -1.1192 -0.5404 -0.3623
   80CHL1  H26B 8395   0.759   3.859   8.601  2.6767  0.5034 -2.2499
   80CHL1  H26C 8396   0.766   3.793   8.433  1.4449  0.7439  0.3745
   80CHL1   C27 8397   0.491   3.848   8.639 -0.5397 -0.2213  0.3064
   80CHL1  H27A 8398   0.484   3.951   8.599  2.1487 -0.3501 -0.7788
   80CHL1  H27B 8399   0.387   3.811   8.646 -0.3158 -0.9194  0.1000
   80CHL1  H27C 8400   0.540   3.845   8.739  0.1502 -2.6753 -0.0296
   81CHL1    C3 8401   6.186   0.637   6.765  0.4955 -0.1107  0.2985
   81CHL1    H3 8402   6.284   0.681   6.792  1.0342 -0.8179 -0.4441
   81CHL1    O3 8403   6.167   0.660   6.628  0.0876 -0.1627  0.1526
   81CHL1   H3' 8404   6.150   0.754   6.619  0.4938 -0.2313 -1.7170
   81CHL1    C4 8405   6.174   0.488   6.798 -0.0588  0.2214  0.6976
   81CHL1   H4A 8406   6.069   0.457   6.779  0.1699 -0.2372  0.1638
   81CHL1   H4B 8407   6.248   0.442   6.729  1.6049  2.1953  1.0698
   81CHL1    C5 8408   6.197   0.461   6.944 -0.1052 -0.2710  0.0641
   81CHL1    C6 8409   6.299   0.396   7.000  0.0935 -0.7110 -0.2704
   81CHL1    H6 8410   6.374   0.353   6.931 -0.5861 -0.5692 -1.1180
   81CHL1    C7 8411   6.316   0.371   7.151 -0.5207 -0.5946 -0.0200
   81CHL1   H7A 8412   6.358   0.271   7.177 -2.0457 -1.0606  0.7565
   81CHL1   H7B 8413   6.389   0.443   7.191 -1.0657 -1.5461  2.9311
   81CHL1    C8 8414   6.180   0.385   7.224 -0.1291  0.3441 -0.6935
   81CHL1    H8 8415   6.125   0.292   7.198  0.7454 -0.8110  1.3469
   81CHL1   C14 8416   6.210   0.384   7.381  0.2261 -0.3722  0.1717
   81CHL1   H14 8417   6.277   0.470   7.402 -1.2726  1.7110 -2.7584
   81CHL1   C15 8418   6.292   0.262   7.434 -1.0034  0.0574 -0.1310
   81CHL1  H15A 8419   6.260   0.160   7.401 -0.4513  0.6922 -2.9138
   81CHL1  H15B 8420   6.399   0.277   7.410 -0.7001  1.8365  2.0808
   81CHL1   C16 8421   6.278   0.285   7.581  0.4712  0.5680 -0.3137
   81CHL1  H16A 8422   6.284   0.193   7.642 -2.0544  0.8010  0.3729
   81CHL1  H16B 8423   6.365   0.341   7.621 -0.0566  0.0974  1.5833
   81CHL1   C17 8424   6.157   0.379   7.606 -0.2424 -0.1023 -0.7479
   81CHL1   H17 8425   6.207   0.477   7.623  1.3124 -1.4797  3.8218
   81CHL1   C13 8426   6.086   0.397   7.476 -0.2413  0.1199 -0.7105
   81CHL1   C18 8427   5.986   0.279   7.454 -0.1496  0.1125 -0.0035
   81CHL1  H18A 8428   5.957   0.281   7.346 -1.0451  1.9380  0.2397
   81CHL1  H18B 8429   6.024   0.177   7.476  1.1522  0.6749  0.3954
   81CHL1  H18C 8430   5.893   0.292   7.513 -0.3967  1.6149 -0.6885
   81CHL1   C12 8431   6.024   0.530   7.438 -0.1039  0.7429  0.2999
   81CHL1  H12A 8432   5.925   0.537   7.489 -0.7698  0.0431 -0.8490
   81CHL1  H12B 8433   6.087   0.615   7.471  0.3897 -0.1817  1.7955
   81CHL1   C11 8434   5.986   0.533   7.283  0.5450 -1.2951 -0.6108
   81CHL1  H11A 8435   5.923   0.444   7.263 -0.1073 -1.1402  0.6828
   81CHL1  H11B 8436   5.919   0.618   7.256  0.1499 -1.1103  0.8733
   81CHL1    C9 8437   6.111   0.511   7.191 -0.2497 -0.1513  0.0601
   81CHL1    H9 8438   6.184   0.588   7.227 -1.3138 -0.5674  3.4870
   81CHL1   C10 8439   6.080   0.525   7.038  0.0813  0.2287  0.6186
   81CHL1   C19 8440   5.945   0.462   7.007  0.4268  0.4147 -0.1321
   81CHL1  H19A 8441   5.953   0.357   7.045 -2.1146  1.0767  2.6386
   81CHL1  H19B 8442   5.863   0.509   7.065 -0.4121 -1.4194  0.2417
   81CHL1  H19C 8443   5.913   0.455   6.901 -0.3323 -0.9895  0.1594
   81CHL1    C1 8444   6.084   0.675   7.001 -0.2699 -0.2318 -0.2084
   81CHL1   H1A 8445   6.000   0.718   7.059  1.1497  1.9535  0.3675
   81CHL1   H1B 8446   6.180   0.717   7.038  2.1681 -1.7474 -4.0984
   81CHL1    C2 8447   6.075   0.708   6.845 -0.1493  0.1757 -0.4047
   81CHL1   H2A 8448   6.095   0.816   6.826 -0.3405 -0.1082 -2.4417
   81CHL1   H2B 8449   5.975   0.683   6.804 -1.3839  1.3774  1.7063
   81CHL1   C20 8450   6.082   0.346   7.735  0.3492 -0.1588  0.1638
   81CHL1   H20 8451   6.026   0.252   7.715 -0.3714  0.8161 -2.9584
   81CHL1   C21 8452   5.969   0.447   7.767  0.2511  0.3415  0.1253
   81CHL1  H21A 8453   5.881   0.424   7.703  0.7305 -2.4873  0.3563
   81CHL1  H21B 8454   6.002   0.550   7.743 -1.5858  1.3862  1.7655
   81CHL1  H21C 8455   5.943   0.442   7.875 -0.3425 -0.7037 -0.0510
   81CHL1   C22 8456   6.177   0.336   7.858  0.5526  0.0305 -0.0690
   81CHL1  H22A 8457   6.261   0.406   7.839  0.3954  0.3834  0.5091
   81CHL1  H22B 8458   6.135   0.386   7.948  0.4754  0.3114 -0.2575
   81CHL1   C23 8459   6.201   0.195   7.911  0.0194 -0.6531  0.4634
   81CHL1  H23A 8460   6.102   0.146   7.918 -0.3054 -0.1622 -0.5238
   81CHL1  H23B 8461   6.269   0.148   7.836  0.1469  2.3029 -1.4649
   81CHL1   C24 8462   6.264   0.195   8.053  0.0608  0.2600 -0.2506
   81CHL1  H24A 8463   6.335   0.281   8.056  1.3887 -0.7196 -1.8406
   81CHL1  H24B 8464   6.188   0.221   8.130  0.3171 -0.7496  0.3615
   81CHL1   C25 8465   6.347   0.077   8.097 -0.1166 -0.6136  0.0047
   81CHL1   H25 8466   6.428   0.046   8.027 -0.8433 -1.0791 -0.6486
   81CHL1   C26 8467   6.425   0.115   8.229  0.1571 -0.3183  0.2683
   81CHL1  H26A 8468   6.499   0.036   8.257 -0.6648 -1.1824  0.0682
   81CHL1  H26B 8469   6.468   0.214   8.202 -1.2155  0.8816  2.2912
   81CHL1  H26C 8470   6.351   0.140   8.307 -0.3613  1.3113 -0.6912
   81CHL1   C27 8471   6.262  -0.045   8.116  1.2046 -0.0322  0.3295
   81CHL1  H27A 8472   6.249  -0.097   8.018  1.5208  0.6799 -0.0974
   81CHL1  H27B 8473   6.311  -0.112   8.190  2.0794  0.8352  0.5544
   81CHL1  H27C 8474   6.168  -0.016   8.167  0.7957 -0.3174 -0.2466
   82CHL1    C3 8475   2.607   5.269   7.009 -0.2330 -0.2283 -0.0842
   82CHL1    H3 8476   2.499   5.285   7.031 -0.6807  0.4383 -2.4766
   82CHL1    O3 8477   2.624   5.248   6.867  0.4084 -0.5201  0.0959
   82CHL1   H3' 8478   2.674   5.170   6.843  0.6902 -0.2997 -0.0352
   82CHL1    C4 8479   2.698   5.390   7.060 -0.1776  0.2137  0.6912
   82CHL1   H4A 8480   2.804   5.382   7.026 -1.5280 -1.2760 -3.7434
   82CHL1   H4B 8481   2.653   5.482   7.016 -0.7202 -0.2147  0.3524
   82CHL1    C5 8482   2.697   5.389   7.211 -0.5187 -0.2011  0.1975
   82CHL1    C6 8483   2.647   5.496   7.276 -0.4137  0.3440  0.0938
   82CHL1    H6 8484   2.620   5.585   7.218  2.9665  1.6021  0.1793
   82CHL1    C7 8485   2.650   5.497   7.425 -0.2051  0.1192 -0.1699
   82CHL1   H7A 8486   2.702   5.585   7.469 -0.0528  0.0732 -0.2574
   82CHL1   H7B 8487   2.548   5.506   7.469 -0.1954  3.1276 -0.5180
   82CHL1    C8 8488   2.738   5.378   7.499 -0.3373 -0.6940  0.3004
   82CHL1    H8 8489   2.847   5.403   7.501 -0.0157 -2.0058 -0.0155
   82CHL1   C14 8490   2.697   5.365   7.636 -0.0772  0.9932  0.1947
   82CHL1   H14 8491   2.592   5.329   7.623  0.1106  1.3522 -3.3384
   82CHL1   C15 8492   2.685   5.485   7.724 -0.7189 -0.7727 -0.0937
   82CHL1  H15A 8493   2.784   5.533   7.708 -1.2839  0.1530 -0.9068
   82CHL1  H15B 8494   2.618   5.564   7.684  0.8501 -0.6208 -2.6413
   82CHL1   C16 8495   2.666   5.428   7.871 -0.5630  0.4022  0.0790
   82CHL1  H16A 8496   2.737   5.485   7.935  0.9386 -3.7625  2.5762
   82CHL1  H16B 8497   2.562   5.443   7.907 -0.6654 -0.7376  0.2944
   82CHL1   C17 8498   2.697   5.270   7.854  0.6249 -0.4826  0.9746
   82CHL1   H17 8499   2.596   5.228   7.836  0.7023  0.2549 -1.5536
   82CHL1   C13 8500   2.770   5.256   7.721 -0.2141 -0.1807  0.1570
   82CHL1   C18 8501   2.921   5.276   7.752  0.2249  0.5730 -0.4815
   82CHL1  H18A 8502   2.951   5.182   7.803 -0.7840  0.2274 -0.5026
   82CHL1  H18B 8503   2.979   5.285   7.658 -0.0915 -0.4050 -0.7887
   82CHL1  H18C 8504   2.944   5.361   7.820 -1.5183 -1.5687  3.1271
   82CHL1   C12 8505   2.755   5.123   7.648  0.5418 -0.4203 -0.5320
   82CHL1  H12A 8506   2.817   5.046   7.698 -1.3409 -2.8287 -1.6481
   82CHL1  H12B 8507   2.648   5.097   7.664 -0.3963  3.2542  0.0859
   82CHL1   C11 8508   2.797   5.133   7.504  0.3453  0.3219  0.6219
   82CHL1  H11A 8509   2.906   5.139   7.486  0.1129 -0.6295 -1.3755
   82CHL1  H11B 8510   2.760   5.036   7.464  1.0746 -0.3394  1.5075
   82CHL1    C9 8511   2.715   5.248   7.432  0.1663 -0.5332  0.1430
   82CHL1    H9 8512   2.608   5.219   7.443 -0.6348  1.9485 -0.3693
   82CHL1   C10 8513   2.747   5.259   7.285 -0.3267 -0.2590 -0.1805
   82CHL1   C19 8514   2.903   5.249   7.255  0.6697 -0.1333  0.5406
   82CHL1  H19A 8515   2.943   5.149   7.283  0.7861 -0.3028 -0.2271
   82CHL1  H19B 8516   2.933   5.274   7.151 -1.2328  0.7043  0.1575
   82CHL1  H19C 8517   2.948   5.322   7.326  0.7858 -1.3238  1.7251
   82CHL1    C1 8518   2.669   5.145   7.222 -0.4631  0.6756  0.0634
   82CHL1   H1A 8519   2.706   5.048   7.262  1.0311  0.4430 -1.7369
   82CHL1   H1B 8520   2.562   5.156   7.250 -0.6421 -1.3367  0.3287
   82CHL1    C2 8521   2.667   5.139   7.069  0.5643  0.0285 -0.0284
   82CHL1   H2A 8522   2.615   5.050   7.028  2.4184 -0.7927 -0.6782
   82CHL1   H2B 8523   2.768   5.127   7.024 -0.2187 -1.6106 -1.4541
   82CHL1   C20 8524   2.747   5.188   7.977  0.9242 -0.8635 -0.2208
   82CHL1   H20 8525   2.857   5.201   7.987  0.7627  1.3221 -0.8648
   82CHL1   C21 8526   2.736   5.042   7.951 -0.7161  0.2220 -0.1059
   82CHL1  H21A 8527   2.642   5.008   7.903 -0.4113 -0.0880 -0.4868
   82CHL1  H21B 8528   2.759   4.992   8.048  0.5537  1.5959  0.3330
   82CHL1  H21C 8529   2.822   5.005   7.892  0.5203 -1.2002  2.4168
   82CHL1   C22 8530   2.684   5.227   8.107 -0.0486 -0.8151  0.1214
   82CHL1  H22A 8531   2.656   5.333   8.123  1.0744 -0.2824 -1.2217
   82CHL1  H22B 8532   2.585   5.178   8.117  0.2629 -1.4521  0.1585
   82CHL1   C23 8533   2.772   5.189   8.234 -0.8112 -0.1324  0.6677
   82CHL1  H23A 8534   2.764   5.078   8.236 -2.0841 -0.1065 -0.9243
   82CHL1  H23B 8535   2.881   5.208   8.224 -0.5281 -1.2253  1.5364
   82CHL1   C24 8536   2.722   5.251   8.363 -0.5439  0.5243  0.0154
   82CHL1  H24A 8537   2.800   5.235   8.441  0.2222  0.3999 -0.7503
   82CHL1  H24B 8538   2.710   5.361   8.357  0.2776  0.5684 -1.2615
   82CHL1   C25 8539   2.597   5.190   8.416  0.2649 -0.2260 -0.2681
   82CHL1   H25 8540   2.516   5.198   8.340 -0.0771 -0.3277  0.0834
   82CHL1   C26 8541   2.621   5.042   8.450 -0.4504  0.3881 -0.2696
   82CHL1  H26A 8542   2.632   4.985   8.355 -0.3856 -1.1860  0.6535
   82CHL1  H26B 8543   2.712   5.034   8.514  0.0747  1.2242 -0.8770
   82CHL1  H26C 8544   2.530   5.007   8.503  0.2727 -0.3990  0.4803
   82CHL1   C27 8545   2.560   5.275   8.535 -0.1544 -0.0733  0.1046
   82CHL1  H27A 8546   2.461   5.248   8.578  0.0218  1.2322  1.4082
   82CHL1  H27B 8547   2.634   5.275   8.618 -0.5426  0.4799  0.4602
   82CHL1  H27C 8548   2.545   5.375   8.489 -2.3717  0.2351  1.3584
   83CHL1    C3 8549   3.506   6.014   6.797 -0.1236  0.1660  0.0718
   83CHL1    H3 8550   3.606   5.984   6.760  0.4697  0.3769  1.4577
   83CHL1    O3 8551   3.437   6.052   6.679  0.0739 -0.3594 -0.2993
   83CHL1   H3' 8552   3.499   6.051   6.605 -0.2844 -1.6673 -0.6184
   83CHL1    C4 8553   3.433   5.907   6.871 -0.1955  0.2528  0.0850
   83CHL1   H4A 8554   3.330   5.947   6.874 -0.5366 -0.4703 -1.2669
   83CHL1   H4B 8555   3.430   5.809   6.818  0.6141  1.3808 -2.1593
   83CHL1    C5 8556   3.474   5.881   7.020  0.3333 -0.6429  0.1035
   83CHL1    C6 8557   3.492   5.754   7.063  0.2970 -0.4853  0.7075
   83CHL1    H6 8558   3.496   5.671   6.991  2.2168 -2.9465  3.4524
   83CHL1    C7 8559   3.529   5.718   7.200 -0.1451 -0.5548  0.2586
   83CHL1   H7A 8560   3.457   5.638   7.228 -2.0898  0.3113 -1.8267
   83CHL1   H7B 8561   3.635   5.691   7.216  0.9334  1.9671 -1.8583
   83CHL1    C8 8562   3.502   5.835   7.297  0.7326 -0.2084 -0.3124
   83CHL1    H8 8563   3.393   5.852   7.310  0.6875  1.6887 -2.3979
   83CHL1   C14 8564   3.573   5.808   7.428  0.3996 -1.3536  0.1118
   83CHL1   H14 8565   3.681   5.821   7.403  0.3610 -1.1662  0.0360
   83CHL1   C15 8566   3.544   5.679   7.496  0.5713 -0.4726  0.3395
   83CHL1  H15A 8567   3.444   5.630   7.492  0.1079  0.4633  0.2342
   83CHL1  H15B 8568   3.607   5.608   7.438 -1.4421 -3.4891  1.6068
   83CHL1   C16 8569   3.591   5.696   7.642  0.1893 -0.1057  0.5179
   83CHL1  H16A 8570   3.498   5.657   7.689 -2.1122  1.7583 -2.1648
   83CHL1  H16B 8571   3.679   5.629   7.656  0.0262 -0.8116 -1.5157
   83CHL1   C17 8572   3.621   5.846   7.650 -0.6697  0.5646  0.2262
   83CHL1   H17 8573   3.729   5.859   7.629 -0.3906 -1.9524 -0.1472
   83CHL1   C13 8574   3.552   5.920   7.532  0.0121  0.1665  0.0933
   83CHL1   C18 8575   3.402   5.934   7.567  0.0502 -0.4672 -1.4123
   83CHL1  H18A 8576   3.355   5.840   7.605 -0.8691  1.1336  1.7516
   83CHL1  H18B 8577   3.373   6.009   7.643  0.8375 -1.0646 -0.4937
   83CHL1  H18C 8578   3.338   5.975   7.486  0.1188  1.2942 -0.6016
   83CHL1   C12 8579   3.615   6.042   7.471 -0.3129 -0.8488 -0.1879
   83CHL1  H12A 8580   3.612   6.123   7.547 -2.0355 -0.1613 -0.9318
   83CHL1  H12B 8581   3.725   6.028   7.457  0.1555  0.0259  2.1539
   83CHL1   C11 8582   3.544   6.085   7.346 -0.1258  0.3354  0.4998
   83CHL1  H11A 8583   3.437   6.100   7.370 -0.1697  0.1997  0.3873
   83CHL1  H11B 8584   3.598   6.177   7.315  1.9044 -0.7994  0.5118
   83CHL1    C9 8585   3.551   5.975   7.236 -0.2535  0.3109 -0.3512
   83CHL1    H9 8586   3.658   5.959   7.210 -0.1729 -2.1116  1.1035
   83CHL1   C10 8587   3.483   6.009   7.102  0.5307 -0.3790 -0.7013
   83CHL1   C19 8588   3.339   6.073   7.125  0.3458  0.3010 -0.4701
   83CHL1  H19A 8589   3.275   5.999   7.179 -1.1773  0.6115 -1.7789
   83CHL1  H19B 8590   3.341   6.167   7.184  0.6387 -0.3789  0.6390
   83CHL1  H19C 8591   3.292   6.094   7.027 -0.8516  0.7861  0.1761
   83CHL1    C1 8592   3.573   6.105   7.016 -0.6535  0.0347 -0.1772
   83CHL1   H1A 8593   3.595   6.195   7.077  2.3281 -0.0006 -1.0141
   83CHL1   H1B 8594   3.674   6.058   7.013  0.1989  1.8472 -3.0846
   83CHL1    C2 8595   3.527   6.141   6.881 -0.5309  0.5325  0.4571
   83CHL1   H2A 8596   3.592   6.216   6.833 -0.3866  0.7098  0.9192
   83CHL1   H2B 8597   3.428   6.190   6.895 -0.6929  0.0997  0.8812
   83CHL1   C20 8598   3.609   5.900   7.787  0.4351  1.0282 -0.6001
   83CHL1   H20 8599   3.499   5.906   7.803  0.6774  0.6704  1.5990
   83CHL1   C21 8600   3.670   6.041   7.801  0.3542 -1.1810 -0.4187
   83CHL1  H21A 8601   3.772   6.043   7.755  0.4535  0.5327 -0.1673
   83CHL1  H21B 8602   3.675   6.076   7.906  2.6609 -0.6449 -0.6446
   83CHL1  H21C 8603   3.604   6.111   7.746  0.2165 -1.2184 -0.3023
   83CHL1   C22 8604   3.667   5.797   7.889  0.8305  0.1875 -0.3483
   83CHL1  H22A 8605   3.597   5.712   7.902  0.6372  0.6346  2.0628
   83CHL1  H22B 8606   3.770   5.776   7.853  1.6565  1.6643  0.9819
   83CHL1   C23 8607   3.685   5.850   8.031 -0.5130  0.5372 -0.0906
   83CHL1  H23A 8608   3.707   5.759   8.091 -2.1751  0.1033 -0.0900
   83CHL1  H23B 8609   3.775   5.916   8.027  0.4804 -0.8573 -2.9965
   83CHL1   C24 8610   3.558   5.909   8.095  0.0724  0.4231 -0.6695
   83CHL1  H24A 8611   3.545   6.005   8.042  1.4365  0.6667 -0.5967
   83CHL1  H24B 8612   3.468   5.843   8.099  0.5364 -0.2460 -1.0469
   83CHL1   C25 8613   3.588   5.938   8.242  0.3110  0.4038 -0.9310
   83CHL1   H25 8614   3.674   6.008   8.238  0.2574  0.4479 -1.3136
   83CHL1   C26 8615   3.473   6.024   8.297  0.3858 -0.1840  0.2311
   83CHL1  H26A 8616   3.474   6.120   8.242  0.1560  0.5566  1.4801
   83CHL1  H26B 8617   3.380   5.966   8.277 -0.4707  1.3990 -0.5914
   83CHL1  H26C 8618   3.493   6.054   8.402  5.0522 -0.1772 -0.4432
   83CHL1   C27 8619   3.610   5.810   8.330  0.3833  0.1284  0.0950
   83CHL1  H27A 8620   3.528   5.735   8.321  0.6119 -0.0929 -0.1659
   83CHL1  H27B 8621   3.701   5.754   8.301 -0.8184 -1.4197 -0.9002
   83CHL1  H27C 8622   3.605   5.837   8.437  0.0512 -1.2095  0.4419
   84CHL1    C3 8623   5.989   5.163   6.645 -0.0508  0.7019  1.1366
   84CHL1    H3 8624   6.003   5.273   6.639 -0.5431  0.6890 -1.3558
   84CHL1    O3 8625   5.988   5.095   6.518 -0.3022 -0.5896 -0.8962
   84CHL1   H3' 8626   5.913   5.132   6.471  2.3774  2.4348 -3.3695
   84CHL1    C4 8627   6.107   5.100   6.723  0.8761 -0.0435 -0.3898
   84CHL1   H4A 8628   6.091   4.990   6.731 -1.3874  0.0449 -2.6901
   84CHL1   H4B 8629   6.204   5.120   6.672  2.2238 -0.3584  1.8859
   84CHL1    C5 8630   6.118   5.155   6.866  0.6897 -0.0051  0.1039
   84CHL1    C6 8631   6.226   5.227   6.900 -0.6390  0.0851  0.5260
   84CHL1    H6 8632   6.310   5.226   6.829 -1.2170  2.2829 -0.2812
   84CHL1    C7 8633   6.241   5.275   7.045 -0.0848 -0.1924  0.2556
   84CHL1   H7A 8634   6.342   5.251   7.085 -0.3953 -2.2610 -0.1059
   84CHL1   H7B 8635   6.250   5.386   7.038 -3.5038  0.1045 -1.2295
   84CHL1    C8 8636   6.138   5.228   7.139  0.0286  0.2123 -0.2516
   84CHL1    H8 8637   6.171   5.124   7.161 -2.0110 -0.1811  1.2282
   84CHL1   C14 8638   6.142   5.302   7.275  0.0295 -0.0180 -0.2399
   84CHL1   H14 8639   6.118   5.409   7.257 -2.1560  0.0605  2.4144
   84CHL1   C15 8640   6.268   5.298   7.354 -0.4805  0.1902  0.0192
   84CHL1  H15A 8641   6.307   5.194   7.359 -0.3765  0.0834 -2.1253
   84CHL1  H15B 8642   6.339   5.378   7.324 -0.8579  0.3957 -0.3186
   84CHL1   C16 8643   6.225   5.353   7.497  0.3671 -0.2307  0.2908
   84CHL1  H16A 8644   6.277   5.296   7.577 -2.4144 -0.1413  2.3189
   84CHL1  H16B 8645   6.256   5.459   7.504  0.1616  0.0443 -2.1964
   84CHL1   C17 8646   6.065   5.344   7.504 -1.5125 -0.1577  0.1949
   84CHL1   H17 8647   6.034   5.450   7.491 -1.0278  0.0429  0.6470
   84CHL1   C13 8648   6.027   5.255   7.376  0.4612 -0.4907 -0.3225
   84CHL1   C18 8649   6.040   5.105   7.422  0.6301  0.0900  0.3259
   84CHL1  H18A 8650   5.957   5.077   7.490 -0.1593 -0.5067 -0.8472
   84CHL1  H18B 8651   6.030   5.044   7.330  1.9105 -1.4649  1.1592
   84CHL1  H18C 8652   6.136   5.100   7.477  1.2617  2.1957 -0.4873
   84CHL1   C12 8653   5.895   5.294   7.310 -0.2445  0.6981 -0.2634
   84CHL1  H12A 8654   5.810   5.262   7.374 -0.5153  0.4077 -0.7690
   84CHL1  H12B 8655   5.892   5.405   7.308  2.1804  0.8592  1.0608
   84CHL1   C11 8656   5.886   5.222   7.173 -0.5077 -0.5660 -0.4176
   84CHL1  H11A 8657   5.876   5.113   7.195  0.2513 -0.2052  1.9645
   84CHL1  H11B 8658   5.795   5.254   7.117  0.9126  0.5570 -2.1933
   84CHL1    C9 8659   6.003   5.237   7.072 -0.2246 -0.3211  0.4833
   84CHL1    H9 8660   6.000   5.343   7.037 -1.6988 -0.8035 -0.9943
   84CHL1   C10 8661   5.985   5.140   6.950 -0.2377 -0.4577 -0.0961
   84CHL1   C19 8662   5.961   4.996   6.999 -0.4615 -0.5619 -0.5532
   84CHL1  H19A 8663   5.954   4.931   6.910  0.5133 -0.5853 -0.6264
   84CHL1  H19B 8664   6.046   4.960   7.061  0.5587  1.8396 -0.4438
   84CHL1  H19C 8665   5.870   4.970   7.057  1.5778 -1.0375  2.7129
   84CHL1    C1 8666   5.871   5.189   6.859  0.3437  0.6643 -0.0879
   84CHL1   H1A 8667   5.773   5.168   6.907  0.9758 -0.6922  0.6554
   84CHL1   H1B 8668   5.874   5.300   6.860 -1.6804  0.7508  1.0554
   84CHL1    C2 8669   5.861   5.129   6.721 -0.1154 -0.0556  0.4861
   84CHL1   H2A 8670   5.778   5.168   6.658  1.3386  1.4472 -0.5834
   84CHL1   H2B 8671   5.868   5.018   6.729  2.4280  0.1362  2.1840
   84CHL1   C20 8672   6.012   5.296   7.636  0.2849 -0.1088  0.7065
   84CHL1   H20 8673   6.051   5.193   7.652  0.6896 -0.2316 -0.8846
   84CHL1   C21 8674   5.855   5.283   7.635  0.6372 -0.1356  0.1614
   84CHL1  H21A 8675   5.815   5.211   7.559 -2.8581  1.3823  0.3827
   84CHL1  H21B 8676   5.814   5.382   7.608 -0.4966 -0.5160  0.3931
   84CHL1  H21C 8677   5.822   5.237   7.730 -1.7141  2.1502  0.5727
   84CHL1   C22 8678   6.062   5.380   7.754  0.5263  0.0929 -0.0282
   84CHL1  H22A 8679   6.170   5.370   7.775  0.2601 -2.2880  0.3957
   84CHL1  H22B 8680   6.052   5.488   7.728 -0.3947  0.4458  1.6324
   84CHL1   C23 8681   5.990   5.362   7.892  0.0014 -0.4591  0.7208
   84CHL1  H23A 8682   5.881   5.383   7.886  0.1185 -0.2543 -1.2823
   84CHL1  H23B 8683   5.991   5.252   7.912  2.6142 -0.5711  0.2962
   84CHL1   C24 8684   6.042   5.457   7.999 -0.5181 -1.3307  0.0774
   84CHL1  H24A 8685   6.150   5.473   7.980 -0.5278 -1.2002  0.1330
   84CHL1  H24B 8686   5.988   5.554   7.995  2.3146  0.4668  1.7991
   84CHL1   C25 8687   6.016   5.408   8.138  0.0964 -0.2704 -0.0518
   84CHL1   H25 8688   6.065   5.308   8.138 -1.6852 -1.2391  2.2430
   84CHL1   C26 8689   6.085   5.500   8.243  0.2220  0.1272 -0.5775
   84CHL1  H26A 8690   6.195   5.501   8.226  0.7909  1.0076  2.5642
   84CHL1  H26B 8691   6.036   5.599   8.236 -1.9281 -0.7949  0.2338
   84CHL1  H26C 8692   6.066   5.468   8.348  0.5208  1.5581 -0.0726
   84CHL1   C27 8693   5.868   5.387   8.179 -0.3172 -0.6841 -0.0503
   84CHL1  H27A 8694   5.812   5.342   8.094  2.5238 -2.4343 -1.1636
   84CHL1  H27B 8695   5.848   5.342   8.279  0.8304 -2.8979 -0.7348
   84CHL1  H27C 8696   5.832   5.491   8.189 -0.1792 -0.5078 -1.2873
   85CHL1    C3 8697   6.102   1.206   6.904  0.5477  0.4498 -0.0616
   85CHL1    H3 8698   6.162   1.113   6.913  0.2307  0.3446  1.2624
   85CHL1    O3 8699   6.126   1.264   6.778  0.0694 -0.0776 -0.5869
   85CHL1   H3' 8700   6.049   1.319   6.765 -1.5380 -0.6713  4.1879
   85CHL1    C4 8701   5.950   1.169   6.894 -0.3115  0.4482  0.0801
   85CHL1   H4A 8702   5.881   1.255   6.873 -0.7731  0.1370  0.3032
   85CHL1   H4B 8703   5.931   1.091   6.818 -0.3701 -2.5961  3.0045
   85CHL1    C5 8704   5.913   1.112   7.030 -0.4561  0.3712 -0.5446
   85CHL1    C6 8705   5.873   0.992   7.036 -0.5916  0.6761 -0.3627
   85CHL1    H6 8706   5.862   0.931   6.945 -0.4186  0.3525 -0.1664
   85CHL1    C7 8707   5.841   0.919   7.164 -0.0865 -0.8218 -0.0792
   85CHL1   H7A 8708   5.754   0.853   7.145 -1.7617  1.6132 -1.4378
   85CHL1   H7B 8709   5.926   0.854   7.193  0.5799 -0.0829 -0.3661
   85CHL1    C8 8710   5.812   1.022   7.275 -0.1026 -0.5374  0.0556
   85CHL1    H8 8711   5.712   1.059   7.246  0.2935 -0.0074 -0.6524
   85CHL1   C14 8712   5.806   0.949   7.407 -0.1620  0.5118 -0.4986
   85CHL1   H14 8713   5.911   0.925   7.432 -0.6727 -0.4693  0.8379
   85CHL1   C15 8714   5.713   0.832   7.409 -0.5132 -0.0653 -0.4036
   85CHL1  H15A 8715   5.621   0.863   7.355 -0.1188  1.1566 -0.3899
   85CHL1  H15B 8716   5.760   0.745   7.358 -0.7751  0.2854 -1.2641
   85CHL1   C16 8717   5.693   0.811   7.558  0.2827  0.1820  0.3253
   85CHL1  H16A 8718   5.586   0.810   7.589 -0.1173  1.4110 -0.9185
   85CHL1  H16B 8719   5.735   0.712   7.584  1.4745  0.8331  0.9787
   85CHL1   C17 8720   5.771   0.927   7.632 -0.2644  0.1051  0.9980
   85CHL1   H17 8721   5.876   0.891   7.624  0.0475  1.3820 -1.3626
   85CHL1   C13 8722   5.775   1.044   7.527 -0.4904 -0.4506 -0.2910
   85CHL1   C18 8723   5.637   1.118   7.515  0.0384  0.7526  0.7572
   85CHL1  H18A 8724   5.635   1.196   7.594 -1.5043  0.7360  0.7593
   85CHL1  H18B 8725   5.620   1.169   7.417  1.1172 -0.9121 -0.3582
   85CHL1  H18C 8726   5.550   1.049   7.513 -0.0048  0.8168 -0.1375
   85CHL1   C12 8727   5.889   1.145   7.537  0.1148  0.0537 -0.0787
   85CHL1  H12A 8728   5.873   1.219   7.618  0.8172 -0.2569  0.3480
   85CHL1  H12B 8729   5.983   1.098   7.572 -0.0941  0.4452  1.0483
   85CHL1   C11 8730   5.899   1.215   7.408  0.0927 -0.8317  1.0295
   85CHL1  H11A 8731   5.808   1.279   7.400 -0.3461 -1.6235 -0.7355
   85CHL1  H11B 8732   5.987   1.283   7.411  2.9899 -4.3172  2.2839
   85CHL1    C9 8733   5.922   1.126   7.284  0.4411  0.1485  0.5817
   85CHL1    H9 8734   6.013   1.065   7.302  1.5392  0.1507 -3.9482
   85CHL1   C10 8735   5.942   1.203   7.149 -0.2197  0.0576  0.0435
   85CHL1   C19 8736   5.848   1.319   7.141  0.0314  0.5244  0.2030
   85CHL1  H19A 8737   5.860   1.368   7.042  1.7449  1.6391  0.9182
   85CHL1  H19B 8738   5.742   1.287   7.149  0.0165  0.1707 -1.1413
   85CHL1  H19C 8739   5.872   1.403   7.208  2.7912 -0.8388  1.0782
   85CHL1    C1 8740   6.093   1.255   7.148  0.3644  0.6504  0.0446
   85CHL1   H1A 8741   6.087   1.348   7.209  0.4660  1.8278 -1.6655
   85CHL1   H1B 8742   6.157   1.176   7.193 -1.3664 -0.7584  0.1297
   85CHL1    C2 8743   6.144   1.309   7.009  0.2871  0.1308 -0.1407
   85CHL1   H2A 8744   6.254   1.312   7.021  0.5344 -1.9948 -1.4142
   85CHL1   H2B 8745   6.086   1.404   7.001 -0.6246 -0.4310 -0.3721
   85CHL1   C20 8746   5.734   0.938   7.780  0.0104 -0.0414  0.4190
   85CHL1   H20 8747   5.629   0.971   7.794 -0.4157 -2.2743  3.7174
   85CHL1   C21 8748   5.836   1.035   7.847  0.2315  0.1752  0.1659
   85CHL1  H21A 8749   5.825   1.133   7.797 -0.0622  0.2924  0.4587
   85CHL1  H21B 8750   5.940   1.005   7.826  0.4613  1.2853 -0.3626
   85CHL1  H21C 8751   5.805   1.053   7.952  0.5279  1.3081  0.0681
   85CHL1   C22 8752   5.744   0.797   7.850  0.7599 -0.2165  0.6150
   85CHL1  H22A 8753   5.677   0.723   7.802  1.2627 -1.1813  1.3651
   85CHL1  H22B 8754   5.845   0.756   7.832  0.6887  0.0432 -0.4856
   85CHL1   C23 8755   5.730   0.809   8.004  0.2248 -0.7753 -0.6041
   85CHL1  H23A 8756   5.817   0.862   8.048  0.5217 -0.3419 -1.6988
   85CHL1  H23B 8757   5.636   0.857   8.039  0.7047 -0.6489  0.5797
   85CHL1   C24 8758   5.719   0.665   8.077  0.3703 -0.3862  0.2654
   85CHL1  H24A 8759   5.637   0.603   8.035  0.1675 -0.4014  0.6751
   85CHL1  H24B 8760   5.809   0.602   8.065  0.8091 -0.1409  1.9397
   85CHL1   C25 8761   5.685   0.679   8.232  0.5833 -1.1171 -0.0210
   85CHL1   H25 8762   5.576   0.702   8.227  0.9065  0.4103 -0.4322
   85CHL1   C26 8763   5.689   0.546   8.303  0.1087  0.4471 -0.2492
   85CHL1  H26A 8764   5.658   0.561   8.409 -1.3651 -1.0222 -0.4250
   85CHL1  H26B 8765   5.606   0.488   8.256 -0.7049  1.2284  0.1817
   85CHL1  H26C 8766   5.793   0.507   8.300 -0.3512 -1.0370  1.1705
   85CHL1   C27 8767   5.772   0.782   8.305 -0.1425 -0.1913 -0.1147
   85CHL1  H27A 8768   5.745   0.774   8.412  2.8784 -0.5636  0.7258
   85CHL1  H27B 8769   5.879   0.755   8.292  0.5801  1.9034  0.8965
   85CHL1  H27C 8770   5.770   0.884   8.259  2.8701 -1.2888 -3.1444
   86CHL1    C3 8771   1.388   4.543   6.842  0.2726  0.0889 -0.2795
   86CHL1    H3 8772   1.302   4.613   6.846  1.6539  1.8453 -0.6327
   86CHL1    O3 8773   1.435   4.526   6.710 -0.0555  0.2548 -0.0592
   86CHL1   H3' 8774   1.481   4.442   6.714 -3.9513 -2.1591 -0.4817
   86CHL1    C4 8775   1.502   4.606   6.917  0.6156  0.3673  0.6415
   86CHL1   H4A 8776   1.581   4.532   6.893  0.6691  0.1821  1.3720
   86CHL1   H4B 8777   1.540   4.704   6.880  2.3413 -0.3563  0.3869
   86CHL1    C5 8778   1.473   4.616   7.064 -0.1800 -0.0544 -0.2305
   86CHL1    C6 8779   1.471   4.733   7.129 -0.0680 -0.7786  0.3279
   86CHL1    H6 8780   1.508   4.819   7.072 -1.4085  1.0549  2.0946
   86CHL1    C7 8781   1.447   4.743   7.276  0.2129 -0.0159  0.1676
   86CHL1   H7A 8782   1.528   4.808   7.317  2.9751 -2.0292 -1.7166
   86CHL1   H7B 8783   1.346   4.784   7.299  0.2467 -0.9582  2.2263
   86CHL1    C8 8784   1.459   4.608   7.352 -0.1807  0.1762  0.4861
   86CHL1    H8 8785   1.565   4.575   7.350 -0.0443  0.3981 -3.1364
   86CHL1   C14 8786   1.413   4.618   7.500 -0.3278  0.2505  0.1095
   86CHL1   H14 8787   1.309   4.658   7.496 -0.3455  0.1258 -1.7264
   86CHL1   C15 8788   1.487   4.713   7.595 -0.0837  0.5246  0.7132
   86CHL1  H15A 8789   1.594   4.716   7.565  0.3680 -1.6615  1.8837
   86CHL1  H15B 8790   1.443   4.814   7.577  0.4655  0.8255  1.0278
   86CHL1   C16 8791   1.470   4.661   7.735 -0.2206 -0.4779  0.3076
   86CHL1  H16A 8792   1.564   4.615   7.771 -1.8211 -2.3106  2.3856
   86CHL1  H16B 8793   1.434   4.730   7.814  0.2519 -0.6850  0.7056
   86CHL1   C17 8794   1.362   4.542   7.709 -0.0576  0.0402  0.3866
   86CHL1   H17 8795   1.262   4.586   7.690 -1.4242 -2.1431  1.9949
   86CHL1   C13 8796   1.401   4.486   7.568 -0.3947  0.4747  0.7656
   86CHL1   C18 8797   1.531   4.416   7.572 -1.1763 -0.0526 -0.4774
   86CHL1  H18A 8798   1.601   4.475   7.636  1.6722 -2.5449 -1.0644
   86CHL1  H18B 8799   1.520   4.315   7.616 -0.2706  1.0003  2.4360
   86CHL1  H18C 8800   1.579   4.393   7.474 -2.9686 -0.2213 -1.3435
   86CHL1   C12 8801   1.301   4.399   7.498 -0.3967  0.0511 -0.5170
   86CHL1  H12A 8802   1.277   4.304   7.550 -1.6695 -0.2009 -1.5101
   86CHL1  H12B 8803   1.202   4.450   7.500 -0.2093  0.4319 -0.8851
   86CHL1   C11 8804   1.342   4.373   7.349 -0.5040  0.1877 -0.1126
   86CHL1  H11A 8805   1.429   4.305   7.347 -1.4334 -1.0240 -0.7395
   86CHL1  H11B 8806   1.261   4.315   7.299 -1.1502 -1.5306  2.6657
   86CHL1    C9 8807   1.375   4.501   7.276 -0.7775 -0.2257 -0.8383
   86CHL1    H9 8808   1.278   4.552   7.260 -1.5051 -1.3231 -0.1026
   86CHL1   C10 8809   1.428   4.479   7.131 -0.2930 -0.5780  0.3981
   86CHL1   C19 8810   1.555   4.388   7.135 -0.0812  0.4041  0.4619
   86CHL1  H19A 8811   1.594   4.374   7.032 -1.2945 -2.0200  0.2789
   86CHL1  H19B 8812   1.634   4.438   7.196 -0.3133  0.2932  0.8612
   86CHL1  H19C 8813   1.529   4.290   7.180 -2.1662  0.9604  0.5554
   86CHL1    C1 8814   1.316   4.410   7.047 -0.0709  1.1682 -0.3651
   86CHL1   H1A 8815   1.322   4.303   7.077  3.7907  0.5452 -2.6528
   86CHL1   H1B 8816   1.216   4.455   7.065 -0.4200  0.2662 -0.0033
   86CHL1    C2 8817   1.344   4.406   6.897 -0.1792 -0.3047 -0.5274
   86CHL1   H2A 8818   1.253   4.369   6.846 -0.4739  0.7676 -0.8078
   86CHL1   H2B 8819   1.435   4.344   6.886  0.6822  0.6793  0.7516
   86CHL1   C20 8820   1.337   4.447   7.821 -0.7741 -0.7899 -0.1716
   86CHL1   H20 8821   1.270   4.362   7.794 -0.9086 -1.0046  0.7986
   86CHL1   C21 8822   1.258   4.528   7.929  0.0132  0.1057 -0.0780
   86CHL1  H21A 8823   1.306   4.624   7.958 -1.0550  0.8465 -0.6595
   86CHL1  H21B 8824   1.228   4.467   8.017  1.3752 -0.4537  0.0232
   86CHL1  H21C 8825   1.168   4.564   7.874  0.8911  0.4677 -1.3244
   86CHL1   C22 8826   1.460   4.387   7.900  0.7663  0.3325 -0.4631
   86CHL1  H22A 8827   1.526   4.350   7.819 -0.6823 -1.9687 -0.6794
   86CHL1  H22B 8828   1.514   4.469   7.952 -0.6897 -0.1894  2.0302
   86CHL1   C23 8829   1.431   4.280   8.004  0.4987  0.2528 -0.4710
   86CHL1  H23A 8830   1.371   4.325   8.085  0.5244 -0.7398  0.1120
   86CHL1  H23B 8831   1.378   4.191   7.962 -0.5010 -0.2202  1.6958
   86CHL1   C24 8832   1.562   4.233   8.067  0.9856 -0.0461  0.3680
   86CHL1  H24A 8833   1.632   4.211   7.984  1.2167  0.8540  0.3209
   86CHL1  H24B 8834   1.602   4.317   8.128  0.3029  1.2484 -0.9214
   86CHL1   C25 8835   1.543   4.111   8.168 -0.1706 -0.1278  1.4023
   86CHL1   H25 8836   1.449   4.131   8.224  1.1685  0.4349  3.5822
   86CHL1   C26 8837   1.555   3.974   8.098  0.1215 -0.2396 -0.4144
   86CHL1  H26A 8838   1.478   3.961   8.019 -0.9680  0.2172  0.5288
   86CHL1  H26B 8839   1.650   3.948   8.047 -0.1536  0.9828 -1.6047
   86CHL1  H26C 8840   1.540   3.892   8.172 -0.8222  1.6164  1.5791
   86CHL1   C27 8841   1.660   4.101   8.267  0.4133  0.8136 -0.3743
   86CHL1  H27A 8842   1.642   4.016   8.337  1.8184  1.0885  0.3623
   86CHL1  H27B 8843   1.755   4.091   8.211 -0.5384 -1.5880 -1.7008
   86CHL1  H27C 8844   1.654   4.193   8.329 -2.2955  0.6540 -0.2939
   87CHL1    C3 8845   0.881   4.925   6.863 -0.0860 -0.1629  0.3004
   87CHL1    H3 8846   0.956   4.993   6.909 -0.7275  1.5466 -1.0581
   87CHL1    O3 8847   0.910   4.917   6.723 -0.0529  0.0057  0.0768
   87CHL1   H3' 8848   0.840   4.856   6.698  1.3229 -1.4260 -0.4096
   87CHL1    C4 8849   0.897   4.782   6.912 -0.4144  0.3921 -0.5397
   87CHL1   H4A 8850   0.810   4.723   6.875 -0.3077  0.2929 -0.6338
   87CHL1   H4B 8851   0.989   4.730   6.879 -1.1139 -1.4714  0.2963
   87CHL1    C5 8852   0.901   4.783   7.062 -0.4853  0.5994  0.0209
   87CHL1    C6 8853   1.011   4.753   7.135  0.0330  0.5890  0.7490
   87CHL1    H6 8854   1.101   4.730   7.076 -0.5753  1.4569 -0.5750
   87CHL1    C7 8855   1.031   4.762   7.286  0.5541  0.0584 -0.2188
   87CHL1   H7A 8856   1.077   4.669   7.325  1.4568  1.0186  1.0989
   87CHL1   H7B 8857   1.084   4.857   7.312  0.6670  0.4837 -1.9027
   87CHL1    C8 8858   0.896   4.771   7.353  0.2838 -0.5005 -0.4857
   87CHL1    H8 8859   0.848   4.671   7.343  0.6438 -0.7792  0.4493
   87CHL1   C14 8860   0.903   4.821   7.501 -0.3728 -0.2437  0.2167
   87CHL1   H14 8861   0.936   4.927   7.502 -1.2447  0.0331  1.0846
   87CHL1   C15 8862   1.007   4.747   7.589  0.2874  0.5077 -0.3016
   87CHL1  H15A 8863   1.006   4.640   7.557 -3.0549 -0.0308  1.1566
   87CHL1  H15B 8864   1.108   4.790   7.572  0.8301  0.0033  1.4672
   87CHL1   C16 8865   0.958   4.761   7.734  0.0542 -0.3054 -0.9545
   87CHL1  H16A 8866   0.948   4.655   7.766  0.6811 -0.4571 -1.2509
   87CHL1  H16B 8867   1.019   4.816   7.808 -0.2331 -2.5276  1.0454
   87CHL1   C17 8868   0.817   4.829   7.722 -0.0158 -0.0716 -0.2330
   87CHL1   H17 8869   0.838   4.938   7.728  3.2492 -0.6412  3.8501
   87CHL1   C13 8870   0.774   4.815   7.573 -0.0843 -0.0706  0.1493
   87CHL1   C18 8871   0.714   4.669   7.569  0.0174 -0.2637 -0.1538
   87CHL1  H18A 8872   0.701   4.629   7.467 -3.1791 -1.9217  0.7928
   87CHL1  H18B 8873   0.789   4.601   7.617 -0.4660 -0.4263  0.3819
   87CHL1  H18C 8874   0.618   4.651   7.623  1.1551 -0.8772  1.8008
   87CHL1   C12 8875   0.678   4.915   7.510 -0.1643  0.2394 -0.4255
   87CHL1  H12A 8876   0.575   4.924   7.550  0.0839 -1.3964  0.7118
   87CHL1  H12B 8877   0.714   5.017   7.534 -1.2311  0.1801  1.6536
   87CHL1   C11 8878   0.666   4.888   7.358 -0.5653  0.1405  0.2119
   87CHL1  H11A 8879   0.595   4.804   7.349 -0.5301  0.1803 -0.4715
   87CHL1  H11B 8880   0.605   4.977   7.330  1.6429  3.1641  3.9925
   87CHL1    C9 8881   0.797   4.865   7.276 -0.1931 -0.8683  0.5056
   87CHL1    H9 8882   0.856   4.959   7.283 -0.5785 -0.5976  0.1384
   87CHL1   C10 8883   0.773   4.836   7.127  0.7227  0.3165 -0.3674
   87CHL1   C19 8884   0.661   4.730   7.103 -0.0242  0.3383  0.0482
   87CHL1  H19A 8885   0.654   4.706   6.994 -0.1608  0.6192 -0.0046
   87CHL1  H19B 8886   0.674   4.643   7.171  1.1162  0.7714  0.3963
   87CHL1  H19C 8887   0.566   4.775   7.139 -0.0866  1.4898 -1.4482
   87CHL1    C1 8888   0.737   4.975   7.058  0.1637 -0.0691  0.0636
   87CHL1   H1A 8889   0.638   5.001   7.103 -1.2097 -1.4995 -1.9441
   87CHL1   H1B 8890   0.809   5.045   7.104  0.5560  1.9445 -3.3297
   87CHL1    C2 8891   0.740   4.977   6.904  0.1964  0.6420  0.3623
   87CHL1   H2A 8892   0.723   5.081   6.869 -2.9848  0.4547  1.0519
   87CHL1   H2B 8893   0.659   4.910   6.867 -0.1636  1.6732 -0.7714
   87CHL1   C20 8894   0.722   4.806   7.843  0.3398  1.2785  0.3251
   87CHL1   H20 8895   0.708   4.696   7.848  1.3876  1.1574  0.9742
   87CHL1   C21 8896   0.590   4.885   7.822 -0.4520  0.1880 -0.2305
   87CHL1  H21A 8897   0.522   4.849   7.902 -0.6411 -2.1415 -1.3614
   87CHL1  H21B 8898   0.546   4.849   7.727 -2.7563  0.9007  0.4870
   87CHL1  H21C 8899   0.612   4.994   7.819 -0.9871  0.3168  0.3302
   87CHL1   C22 8900   0.791   4.834   7.979 -0.1231  0.5837  0.4318
   87CHL1  H22A 8901   0.880   4.768   7.993 -1.4428 -1.1789  0.8215
   87CHL1  H22B 8902   0.826   4.940   7.983  0.8770  0.2543  0.8586
   87CHL1   C23 8903   0.698   4.802   8.096  0.0401  0.4170  0.2941
   87CHL1  H23A 8904   0.615   4.874   8.112  0.1463  0.9981 -1.5770
   87CHL1  H23B 8905   0.654   4.704   8.066  4.0106 -0.5803 -3.2645
   87CHL1   C24 8906   0.774   4.790   8.222  0.4336  0.3231 -0.2179
   87CHL1  H24A 8907   0.854   4.713   8.222  1.2111  1.0259 -2.9315
   87CHL1  H24B 8908   0.832   4.883   8.240  2.4998 -0.9197 -0.1856
   87CHL1   C25 8909   0.686   4.774   8.352 -0.0588 -0.1914  0.8355
   87CHL1   H25 8910   0.589   4.828   8.343  0.6227  0.9131 -0.2088
   87CHL1   C26 8911   0.664   4.622   8.371 -0.6353  0.3626 -0.1885
   87CHL1  H26A 8912   0.767   4.580   8.365 -0.2371  0.7156  2.8188
   87CHL1  H26B 8913   0.624   4.600   8.472  2.8936 -1.0387  1.0634
   87CHL1  H26C 8914   0.602   4.570   8.295 -0.3329 -0.4943  0.1425
   87CHL1   C27 8915   0.767   4.832   8.466  0.5515  0.0099  0.1409
   87CHL1  H27A 8916   0.786   4.938   8.441 -0.5029 -0.3501 -2.5757
   87CHL1  H27B 8917   0.718   4.812   8.564  0.5190 -0.9066 -0.0521
   87CHL1  H27C 8918   0.867   4.784   8.468  2.1346  2.9282 -2.0202
   88CHL1    C3 8919   0.065   2.223   7.046  0.4392  0.0365  0.1136
   88CHL1    H3 8920   0.137   2.149   7.088  1.8721  0.9891 -0.6147
   88CHL1    O3 8921   0.070   2.233   6.906 -0.2232  0.1462 -0.9073
   88CHL1   H3' 8922   0.164   2.231   6.885  0.0601  0.4224  0.2427
   88CHL1    C4 8923  -0.080   2.178   7.093 -0.0036  0.5238 -0.6882
   88CHL1   H4A 8924  -0.157   2.241   7.043  1.1402  1.7879 -0.9175
   88CHL1   H4B 8925  -0.090   2.075   7.052 -1.9108  0.6100 -0.5207
   88CHL1    C5 8926  -0.092   2.190   7.247  0.8283  0.4399  0.0203
   88CHL1    C6 8927  -0.136   2.081   7.317  0.5939 -0.6446 -1.1976
   88CHL1    H6 8928  -0.157   1.984   7.269 -0.9359 -1.7195  1.4408
   88CHL1    C7 8929  -0.179   2.085   7.462 -0.1904  0.0508  0.8498
   88CHL1   H7A 8930  -0.272   2.026   7.475  1.2926 -3.1137 -1.6403
   88CHL1   H7B 8931  -0.094   2.040   7.518 -0.2311 -2.8913 -1.2272
   88CHL1    C8 8932  -0.192   2.229   7.514  0.6657 -0.3051 -0.6327
   88CHL1    H8 8933  -0.282   2.259   7.456  1.2262 -1.1718 -1.9979
   88CHL1   C14 8934  -0.198   2.229   7.667 -0.1405 -0.2314  0.8872
   88CHL1   H14 8935  -0.101   2.186   7.698 -0.1771 -1.6835 -0.8708
   88CHL1   C15 8936  -0.309   2.146   7.733 -0.1889 -0.4647  1.0207
   88CHL1  H15A 8937  -0.415   2.162   7.703 -0.4660 -2.6860  0.6587
   88CHL1  H15B 8938  -0.287   2.038   7.733 -0.4837 -0.5582 -0.7778
   88CHL1   C16 8939  -0.315   2.200   7.877 -0.2913 -0.3641 -0.3244
   88CHL1  H16A 8940  -0.424   2.221   7.891 -0.8496 -0.2858 -3.8704
   88CHL1  H16B 8941  -0.283   2.127   7.955  0.8743 -0.4581 -0.8762
   88CHL1   C17 8942  -0.229   2.327   7.880 -0.4408 -0.6970 -0.3389
   88CHL1   H17 8943  -0.129   2.287   7.907 -0.5091  0.7967  2.3964
   88CHL1   C13 8944  -0.207   2.370   7.731 -0.2078  0.7347  0.6863
   88CHL1   C18 8945  -0.327   2.450   7.671  0.1606  0.2819  0.0634
   88CHL1  H18A 8946  -0.329   2.439   7.560  1.9714 -2.5453  0.1792
   88CHL1  H18B 8947  -0.423   2.404   7.701 -1.0496  1.0047 -2.3935
   88CHL1  H18C 8948  -0.320   2.554   7.708  1.7032 -0.2511  1.4207
   88CHL1   C12 8949  -0.078   2.449   7.693 -0.1604 -0.4105  0.0707
   88CHL1  H12A 8950  -0.065   2.550   7.736 -0.7186 -0.7481  1.0770
   88CHL1  H12B 8951   0.009   2.396   7.738  0.5821  0.8071  0.1233
   88CHL1   C11 8952  -0.068   2.454   7.540  0.5427 -0.0474  0.2688
   88CHL1  H11A 8953  -0.150   2.512   7.492  1.1722  0.1178 -0.6465
   88CHL1  H11B 8954   0.013   2.519   7.500  0.7617  0.0227  0.8141
   88CHL1    C9 8955  -0.080   2.317   7.462  0.1606  0.8803  0.3224
   88CHL1    H9 8956   0.013   2.259   7.482  0.4420  0.5798 -1.6707
   88CHL1   C10 8957  -0.071   2.326   7.304  0.2847  0.3566  0.4457
   88CHL1   C19 8958  -0.179   2.423   7.258 -0.3945  0.2626  1.0845
   88CHL1  H19A 8959  -0.170   2.449   7.151  0.6975  2.2886  1.6135
   88CHL1  H19B 8960  -0.283   2.393   7.284 -1.1862  2.1768  0.2905
   88CHL1  H19C 8961  -0.174   2.526   7.301 -2.6672 -0.0532  2.3179
   88CHL1    C1 8962   0.064   2.372   7.264 -0.2529 -0.2225  0.1430
   88CHL1   H1A 8963   0.061   2.481   7.287 -3.5008 -0.0551 -0.6773
   88CHL1   H1B 8964   0.150   2.325   7.317 -0.5111 -0.9784 -0.1027
   88CHL1    C2 8965   0.091   2.363   7.107 -0.2458  1.0189 -0.5844
   88CHL1   H2A 8966   0.199   2.387   7.095  1.0667 -3.2166  0.8977
   88CHL1   H2B 8967   0.025   2.436   7.057 -1.0998 -0.9198 -2.4972
   88CHL1   C20 8968  -0.272   2.432   7.980  0.3970 -0.0957  0.7964
   88CHL1   H20 8969  -0.347   2.498   7.930  1.3176 -0.3516 -0.9817
   88CHL1   C21 8970  -0.148   2.511   8.022 -0.1927  0.1303  0.0149
   88CHL1  H21A 8971  -0.074   2.504   7.940  0.3765 -2.3644  0.6528
   88CHL1  H21B 8972  -0.106   2.453   8.107  1.5375  0.6609 -0.4513
   88CHL1  H21C 8973  -0.169   2.616   8.050 -0.3977  0.1432 -0.1834
   88CHL1   C22 8974  -0.344   2.384   8.107  0.4302 -0.2267 -0.0235
   88CHL1  H22A 8975  -0.439   2.338   8.071  0.8247 -0.3610 -0.9078
   88CHL1  H22B 8976  -0.294   2.296   8.151 -0.6075 -0.9225 -0.1822
   88CHL1   C23 8977  -0.390   2.510   8.188  0.2091  0.0376  0.4527
   88CHL1  H23A 8978  -0.309   2.570   8.233 -0.3434 -0.0378  1.5734
   88CHL1  H23B 8979  -0.444   2.584   8.124 -0.5465  1.7860  2.9648
   88CHL1   C24 8980  -0.478   2.448   8.300 -0.3255 -0.2806  0.4931
   88CHL1  H24A 8981  -0.570   2.407   8.253  0.3575 -1.5311  0.1981
   88CHL1  H24B 8982  -0.420   2.362   8.340  0.8376  0.4120  0.3465
   88CHL1   C25 8983  -0.517   2.543   8.421 -0.1587 -0.3798 -0.5099
   88CHL1   H25 8984  -0.432   2.533   8.492 -0.0215 -3.1860 -0.9888
   88CHL1   C26 8985  -0.544   2.686   8.376  0.0227  0.1579 -0.8727
   88CHL1  H26A 8986  -0.602   2.697   8.282  1.4293  2.1969 -1.5725
   88CHL1  H26B 8987  -0.593   2.741   8.459  2.8788 -2.8936  3.1971
   88CHL1  H26C 8988  -0.447   2.732   8.346  0.3729 -0.9796 -1.5503
   88CHL1   C27 8989  -0.638   2.492   8.496  0.1689 -0.1944 -0.1641
   88CHL1  H27A 8990  -0.731   2.502   8.436 -0.0311 -0.0608  0.1656
   88CHL1  H27B 8991  -0.629   2.386   8.528  0.1021  0.4052  1.9792
   88CHL1  H27C 8992  -0.634   2.547   8.592  3.9678 -1.4851  0.5859
   89CHL1    C3 8993   2.914   4.315   7.019 -0.1670 -0.0423  0.3250
   89CHL1    H3 8994   2.870   4.414   7.045  0.1977  0.1375  0.2663
   89CHL1    O3 8995   2.904   4.295   6.875 -0.2422 -0.1342 -0.2636
   89CHL1   H3' 8996   2.895   4.200   6.868 -1.4812 -0.0032 -0.8663
   89CHL1    C4 8997   3.055   4.303   7.070 -0.2077  0.1826  0.0480
   89CHL1   H4A 8998   3.103   4.208   7.038  1.6757  0.3591  2.0814
   89CHL1   H4B 8999   3.119   4.381   7.023 -0.0550 -1.0733 -1.9075
   89CHL1    C5 9000   3.052   4.321   7.223 -0.8652 -0.2871  0.2005
   89CHL1    C6 9001   3.137   4.410   7.282  0.6751 -0.3319  0.4188
   89CHL1    H6 9002   3.206   4.469   7.219 -1.6464  1.7910 -0.3096
   89CHL1    C7 9003   3.136   4.436   7.432 -0.2090 -0.3958  0.7470
   89CHL1   H7A 9004   3.237   4.460   7.470 -0.6679  2.6236  0.2889
   89CHL1   H7B 9005   3.081   4.531   7.448 -1.9688 -1.0967 -0.8241
   89CHL1    C8 9006   3.064   4.319   7.514 -0.1119 -0.6209  0.5145
   89CHL1    H8 9007   3.136   4.235   7.503 -0.4161 -0.8004 -0.1629
   89CHL1   C14 9008   3.050   4.366   7.653  0.6388  0.1116 -0.1445
   89CHL1   H14 9009   2.980   4.452   7.649 -1.6114 -1.5968  0.3271
   89CHL1   C15 9010   3.169   4.408   7.743 -0.0637  0.4451 -0.2546
   89CHL1  H15A 9011   3.242   4.326   7.726 -2.2894 -1.8404  0.6425
   89CHL1  H15B 9012   3.220   4.502   7.711  0.9441  0.3475  1.0103
   89CHL1   C16 9013   3.116   4.392   7.882  0.1257  0.5036 -0.8527
   89CHL1  H16A 9014   3.178   4.321   7.940 -3.4941 -1.2364  1.2223
   89CHL1  H16B 9015   3.104   4.486   7.940 -1.8128 -0.3235  0.1934
   89CHL1   C17 9016   2.975   4.323   7.884  0.0890 -0.1831  0.8546
   89CHL1   H17 9017   2.909   4.412   7.883  0.4322  0.0891 -0.7900
   89CHL1   C13 9018   2.970   4.263   7.737  0.0307  0.9082 -0.0359
   89CHL1   C18 9019   3.046   4.135   7.747 -0.1358  0.3464 -0.0508
   89CHL1  H18A 9020   3.132   4.128   7.817 -2.4686 -1.3485  2.8919
   89CHL1  H18B 9021   2.971   4.063   7.785  1.3285 -1.2614 -0.0914
   89CHL1  H18C 9022   3.076   4.098   7.646  0.2354 -0.4845  0.3579
   89CHL1   C12 9023   2.829   4.258   7.682  0.5159 -0.1812 -0.1577
   89CHL1  H12A 9024   2.774   4.181   7.741  2.4331 -0.8734  0.7927
   89CHL1  H12B 9025   2.794   4.363   7.687  0.4665 -0.2058  0.0070
   89CHL1   C11 9026   2.834   4.202   7.542  0.8557 -0.0287 -0.1248
   89CHL1  H11A 9027   2.849   4.093   7.527 -3.4406 -1.2548  2.6283
   89CHL1  H11B 9028   2.730   4.214   7.505  0.9847  3.0673  0.2506
   89CHL1    C9 9029   2.927   4.280   7.451  0.0458  0.1787  0.0602
   89CHL1    H9 9030   2.867   4.373   7.444  0.0837  0.2473  0.5435
   89CHL1   C10 9031   2.948   4.235   7.299  0.7193 -0.4276  0.1805
   89CHL1   C19 9032   3.015   4.095   7.300 -0.8935 -0.2962 -1.1393
   89CHL1  H19A 9033   2.969   4.029   7.377  2.6748 -0.2573  1.2620
   89CHL1  H19B 9034   3.006   4.049   7.200 -2.3348 -2.3887 -0.1206
   89CHL1  H19C 9035   3.123   4.101   7.323 -1.3819  0.6441  1.2464
   89CHL1    C1 9036   2.816   4.223   7.229  0.1771 -0.6496 -0.3302
   89CHL1   H1A 9037   2.752   4.141   7.268 -0.1408  1.3005  3.7686
   89CHL1   H1B 9038   2.762   4.318   7.252  1.5613  1.0048 -3.3906
   89CHL1    C2 9039   2.820   4.206   7.079 -0.6746 -0.7065 -0.2280
   89CHL1   H2A 9040   2.713   4.219   7.054 -0.5407  0.0861 -0.4360
   89CHL1   H2B 9041   2.859   4.106   7.052 -0.3095 -1.1767  1.8861
   89CHL1   C20 9042   2.945   4.226   8.001 -0.4446 -0.0626  0.3112
   89CHL1   H20 9043   3.015   4.140   7.998  2.4215  2.1142  0.1658
   89CHL1   C21 9044   2.798   4.178   7.998 -0.0549 -0.4032  0.3611
   89CHL1  H21A 9045   2.757   4.147   8.097  2.2105 -0.4127  1.3696
   89CHL1  H21B 9046   2.798   4.091   7.930 -2.0104  0.1568 -0.3938
   89CHL1  H21C 9047   2.732   4.258   7.960  0.9394  0.0820 -0.3983
   89CHL1   C22 9048   2.985   4.287   8.143  0.7341  0.2118 -0.5499
   89CHL1  H22A 9049   2.964   4.206   8.215 -1.0986  1.0410 -0.0936
   89CHL1  H22B 9050   3.091   4.322   8.137  0.4026  1.0398 -2.5191
   89CHL1   C23 9051   2.903   4.416   8.179  0.2646  0.1075  0.1414
   89CHL1  H23A 9052   2.894   4.481   8.089 -0.3398 -1.1293 -0.7130
   89CHL1  H23B 9053   2.800   4.393   8.213  0.5244  1.4707  2.0090
   89CHL1   C24 9054   2.973   4.494   8.285  0.4875 -0.3299  0.2540
   89CHL1  H24A 9055   2.993   4.430   8.374 -1.9157 -1.0800  0.3031
   89CHL1  H24B 9056   3.067   4.534   8.242 -0.6610 -0.5352 -2.6486
   89CHL1   C25 9057   2.878   4.615   8.338 -0.0077  0.4532 -0.6500
   89CHL1   H25 9058   2.787   4.574   8.387  2.0514 -3.5479  0.2570
   89CHL1   C26 9059   2.950   4.691   8.448  0.6975  0.0111 -0.1661
   89CHL1  H26A 9060   3.044   4.738   8.412  1.6581  0.2097  2.4238
   89CHL1  H26B 9061   2.892   4.771   8.498  0.4374 -0.7959  0.8500
   89CHL1  H26C 9062   2.976   4.625   8.533 -0.8007  0.6724  0.8362
   89CHL1   C27 9063   2.842   4.721   8.229  0.1035  0.0980 -0.8696
   89CHL1  H27A 9064   2.934   4.764   8.185  0.1027  0.5077 -0.4826
   89CHL1  H27B 9065   2.776   4.675   8.152 -0.3975  0.9943 -0.9914
   89CHL1  H27C 9066   2.779   4.804   8.269  0.9606  0.7869 -0.9096
   90CHL1    C3 9067   1.314   6.374   6.902  0.4917 -0.1563  0.0221
   90CHL1    H3 9068   1.227   6.309   6.925  0.9318 -1.8625 -2.7068
   90CHL1    O3 9069   1.334   6.360   6.765  0.6472 -0.2261  0.4524
   90CHL1   H3' 9070   1.386   6.436   6.738  1.3014 -0.6062  0.6365
   90CHL1    C4 9071   1.272   6.513   6.942  0.4185  0.6316 -0.4569
   90CHL1   H4A 9072   1.343   6.591   6.909  1.1789 -0.4149 -1.3737
   90CHL1   H4B 9073   1.182   6.522   6.878  0.3289  0.0901 -0.4168
   90CHL1    C5 9074   1.233   6.520   7.091 -0.4827 -0.1197  0.2688
   90CHL1    C6 9075   1.110   6.543   7.133  0.5351  0.3598 -0.6470
   90CHL1    H6 9076   1.028   6.557   7.061  0.4827  0.6453 -0.5361
   90CHL1    C7 9077   1.072   6.551   7.277  0.1778 -0.7232 -0.0424
   90CHL1   H7A 9078   1.012   6.643   7.295 -0.1211 -0.7427 -0.8673
   90CHL1   H7B 9079   1.012   6.463   7.308  1.8038 -2.4775 -1.6295
   90CHL1    C8 9080   1.192   6.553   7.372 -0.4132 -0.0161 -0.1328
   90CHL1    H8 9081   1.245   6.650   7.365  0.7720 -0.6926 -1.1824
   90CHL1   C14 9082   1.145   6.520   7.510 -0.5366  0.9052 -0.5890
   90CHL1   H14 9083   1.106   6.417   7.508 -0.3539  0.8060  0.5444
   90CHL1   C15 9084   1.023   6.592   7.571 -0.0778  0.1079 -0.3722
   90CHL1  H15A 9085   1.029   6.702   7.561 -1.2008  0.3965  1.6168
   90CHL1  H15B 9086   0.928   6.563   7.522 -0.1052  1.5546 -1.2260
   90CHL1   C16 9087   1.033   6.555   7.723  0.3874 -0.6302  0.0268
   90CHL1  H16A 9088   1.043   6.645   7.788 -1.6549 -0.6621  0.4309
   90CHL1  H16B 9089   0.949   6.491   7.756  1.9398 -2.8969 -0.1764
   90CHL1   C17 9090   1.167   6.473   7.738  0.3426 -0.0150 -0.8834
   90CHL1   H17 9091   1.147   6.364   7.730 -0.7771  0.0957  0.1230
   90CHL1   C13 9092   1.251   6.514   7.619  0.0459 -0.3083 -1.0199
   90CHL1   C18 9093   1.308   6.651   7.647 -0.4584  0.4205 -0.7597
   90CHL1  H18A 9094   1.245   6.714   7.714 -0.8363 -0.9793  0.2448
   90CHL1  H18B 9095   1.402   6.630   7.701 -2.3051 -2.8087  1.5495
   90CHL1  H18C 9096   1.326   6.706   7.552 -0.8639 -0.0500 -1.1100
   90CHL1   C12 9097   1.361   6.409   7.571 -0.2475  0.0814 -0.2337
   90CHL1  H12A 9098   1.450   6.417   7.638  0.8345  1.0161 -1.7194
   90CHL1  H12B 9099   1.316   6.311   7.597 -0.8660  0.6970  1.1404
   90CHL1   C11 9100   1.410   6.436   7.434  0.1972  0.0274 -0.5083
   90CHL1  H11A 9101   1.469   6.529   7.447  2.8526 -1.5846 -0.3785
   90CHL1  H11B 9102   1.482   6.363   7.393 -0.7985  0.5687 -3.5353
   90CHL1    C9 9103   1.291   6.446   7.329 -0.3274 -0.4638 -0.6232
   90CHL1    H9 9104   1.236   6.349   7.330  1.0055 -1.3735  3.6977
   90CHL1   C10 9105   1.340   6.466   7.182 -0.5168  0.3704  0.8150
   90CHL1   C19 9106   1.451   6.570   7.192 -0.0751 -0.4666 -0.3446
   90CHL1  H19A 9107   1.415   6.660   7.246  0.5623 -0.9565  0.9365
   90CHL1  H19B 9108   1.536   6.531   7.253 -1.7007  0.3172  2.6237
   90CHL1  H19C 9109   1.491   6.600   7.093 -1.3908 -0.3536 -0.8586
   90CHL1    C1 9110   1.411   6.334   7.126  0.0936  0.3172 -0.8648
   90CHL1   H1A 9111   1.504   6.310   7.183 -0.8899 -1.6195  0.0151
   90CHL1   H1B 9112   1.335   6.259   7.155  0.2842  1.0409  1.7605
   90CHL1    C2 9113   1.431   6.321   6.978  0.1775 -0.0184  0.7035
   90CHL1   H2A 9114   1.463   6.220   6.944 -0.9803 -0.6530  1.4527
   90CHL1   H2B 9115   1.512   6.389   6.943 -1.8733  1.8330 -0.7211
   90CHL1   C20 9116   1.217   6.481   7.879  0.0580  0.3226  0.7862
   90CHL1   H20 9117   1.250   6.586   7.895  0.7692 -0.0640  2.0267
   90CHL1   C21 9118   1.336   6.385   7.893  0.3651 -0.5315 -0.7125
   90CHL1  H21A 9119   1.329   6.278   7.861  3.9701 -0.7411 -1.2139
   90CHL1  H21B 9120   1.364   6.393   8.000  0.8493  1.4385 -0.9502
   90CHL1  H21C 9121   1.429   6.427   7.850  1.1966 -1.7070 -0.1501
   90CHL1   C22 9122   1.109   6.453   7.993 -0.2441 -0.7291 -0.8485
   90CHL1  H22A 9123   1.151   6.466   8.095 -3.1739 -2.0214  0.6178
   90CHL1  H22B 9124   1.036   6.536   7.985 -1.1738 -1.5560 -1.2119
   90CHL1   C23 9125   1.044   6.322   8.001 -0.6798  0.0997 -0.2190
   90CHL1  H23A 9126   0.955   6.327   7.935  0.7707  1.5169 -2.1710
   90CHL1  H23B 9127   1.104   6.240   7.956 -0.0969  0.7578 -0.6710
   90CHL1   C24 9128   1.011   6.301   8.148 -0.6109 -1.0204 -0.2247
   90CHL1  H24A 9129   1.101   6.299   8.213  0.0721 -3.1397 -1.1151
   90CHL1  H24B 9130   0.941   6.380   8.181  0.3400 -0.3962  0.3339
   90CHL1   C25 9131   0.936   6.173   8.189  0.0162 -0.3289 -0.2636
   90CHL1   H25 9132   1.014   6.096   8.173 -1.9488 -2.1631 -1.6737
   90CHL1   C26 9133   0.896   6.178   8.335  0.4232  0.7591  0.1923
   90CHL1  H26A 9134   0.851   6.080   8.360 -2.2855  1.3843 -1.7956
   90CHL1  H26B 9135   0.982   6.206   8.400  0.7589  1.0833 -0.3715
   90CHL1  H26C 9136   0.815   6.253   8.345 -0.0070  0.4177 -0.5690
   90CHL1   C27 9137   0.820   6.144   8.098 -0.8209  0.7635 -0.1143
   90CHL1  H27A 9138   0.851   6.122   7.994 -0.7516 -3.3868  0.6442
   90CHL1  H27B 9139   0.763   6.058   8.138  1.6462 -0.7881  0.2682
   90CHL1  H27C 9140   0.758   6.237   8.103 -0.6142  0.8741  4.2220
   91CHL1    C3 9141   4.498   2.052   7.109 -0.1239  0.2383  0.7584
   91CHL1    H3 9142   4.606   2.028   7.120  0.0707 -0.8054 -2.3163
   91CHL1    O3 9143   4.482   2.095   6.977 -0.5365 -0.4421 -0.4333
   91CHL1   H3' 9144   4.394   2.132   6.976  0.3125  1.7030 -0.9403
   91CHL1    C4 9145   4.396   1.938   7.127 -0.0881  0.1833 -0.2867
   91CHL1   H4A 9146   4.292   1.972   7.110  0.5394  1.1450 -2.4286
   91CHL1   H4B 9147   4.399   1.862   7.046  0.6461 -0.4412  0.3011
   91CHL1    C5 9148   4.418   1.884   7.267  0.5356  0.2570  0.2969
   91CHL1    C6 9149   4.449   1.756   7.288  0.6217 -0.3548  0.0278
   91CHL1    H6 9150   4.469   1.682   7.209 -1.3039 -1.1129  0.1977
   91CHL1    C7 9151   4.472   1.697   7.423 -0.3182 -0.2859  0.8635
   91CHL1   H7A 9152   4.432   1.596   7.444  1.5395 -0.4523  4.5182
   91CHL1   H7B 9153   4.583   1.690   7.417 -0.3063 -3.1032  2.4569
   91CHL1    C8 9154   4.431   1.788   7.549 -0.6600 -0.0603  0.0404
   91CHL1    H8 9155   4.322   1.769   7.558 -0.2540 -2.9771 -0.1352
   91CHL1   C14 9156   4.499   1.748   7.677 -0.6498 -0.3284  0.2355
   91CHL1   H14 9157   4.605   1.778   7.677 -0.9188  0.6880 -0.7790
   91CHL1   C15 9158   4.496   1.596   7.719 -0.0114 -0.0500 -0.1685
   91CHL1  H15A 9159   4.400   1.548   7.688 -1.0806  1.1580  1.1087
   91CHL1  H15B 9160   4.570   1.544   7.654  1.6724  3.0423 -0.9475
   91CHL1   C16 9161   4.509   1.598   7.868 -0.4791 -0.0522 -0.1711
   91CHL1  H16A 9162   4.418   1.546   7.904  0.2077  1.1794  3.9023
   91CHL1  H16B 9163   4.596   1.533   7.892 -1.3758 -1.4808 -0.6680
   91CHL1   C17 9164   4.524   1.741   7.910  0.4132 -0.5681 -0.0314
   91CHL1   H17 9165   4.625   1.786   7.902 -0.2020  0.9217  0.3461
   91CHL1   C13 9166   4.445   1.823   7.803  0.0430  0.3940  0.3576
   91CHL1   C18 9167   4.287   1.807   7.829  0.4882  0.3564 -0.3127
   91CHL1  H18A 9168   4.261   1.699   7.833  0.2997  0.3407 -1.6001
   91CHL1  H18B 9169   4.251   1.867   7.916  1.1912 -0.7791  0.8105
   91CHL1  H18C 9170   4.242   1.853   7.739 -1.0291  0.1101  0.2905
   91CHL1   C12 9171   4.475   1.971   7.786 -0.0254  0.1697 -0.3063
   91CHL1  H12A 9172   4.413   2.013   7.868 -1.0579 -2.4629  0.3612
   91CHL1  H12B 9173   4.583   1.990   7.796 -0.1300  1.0028 -0.6746
   91CHL1   C11 9174   4.440   2.030   7.640 -0.1687 -0.1667  0.4049
   91CHL1  H11A 9175   4.330   2.044   7.655 -0.0142 -1.3200  3.4734
   91CHL1  H11B 9176   4.489   2.127   7.620 -1.9886  0.6067 -0.5702
   91CHL1    C9 9177   4.468   1.932   7.516 -0.1745  0.5848 -0.1301
   91CHL1    H9 9178   4.579   1.927   7.511 -0.2067  0.5760 -0.8983
   91CHL1   C10 9179   4.412   1.984   7.386  0.2499 -0.5323 -0.5554
   91CHL1   C19 9180   4.259   2.008   7.403 -0.4813 -0.3480  0.0410
   91CHL1  H19A 9181   4.212   2.032   7.305 -1.9720 -1.5788  0.4178
   91CHL1  H19B 9182   4.209   1.916   7.439  0.2541 -0.6798  0.2373
   91CHL1  H19C 9183   4.255   2.101   7.464  1.2342 -0.3111  0.1443
   91CHL1    C1 9184   4.489   2.121   7.358 -0.0695  0.6822 -0.5053
   91CHL1   H1A 9185   4.454   2.209   7.417 -0.8678 -0.0040  0.0742
   91CHL1   H1B 9186   4.596   2.101   7.379 -0.2928  0.0040  0.0060
   91CHL1    C2 9187   4.468   2.164   7.207  0.0403 -0.1023 -0.2526
   91CHL1   H2A 9188   4.527   2.257   7.192 -1.8315  1.0828 -0.6088
   91CHL1   H2B 9189   4.363   2.183   7.176  0.3089 -1.9851 -2.5303
   91CHL1   C20 9190   4.485   1.764   8.056 -0.0788  0.3548  0.3924
   91CHL1   H20 9191   4.375   1.752   8.065  0.2238 -1.5313  2.1435
   91CHL1   C21 9192   4.516   1.905   8.105 -0.1481  0.8628 -0.3883
   91CHL1  H21A 9193   4.436   1.976   8.076 -1.0618 -0.2047 -0.5144
   91CHL1  H21B 9194   4.621   1.942   8.093 -0.1154  0.9935  0.2392
   91CHL1  H21C 9195   4.485   1.927   8.210 -0.0432  1.2649 -0.4380
   91CHL1   C22 9196   4.544   1.657   8.148  0.7312 -0.6739 -0.4363
   91CHL1  H22A 9197   4.531   1.551   8.117 -1.1965 -0.3623 -0.8052
   91CHL1  H22B 9198   4.654   1.667   8.134  0.4286 -0.4987 -3.2688
   91CHL1   C23 9199   4.498   1.667   8.288 -0.2106 -0.3480  0.3628
   91CHL1  H23A 9200   4.568   1.739   8.336  0.5018 -0.9150  0.2058
   91CHL1  H23B 9201   4.396   1.706   8.305 -1.1563 -2.3163 -0.4515
   91CHL1   C24 9202   4.528   1.534   8.365  0.2279  0.2225  0.9104
   91CHL1  H24A 9203   4.448   1.460   8.344 -0.0570  1.0332 -1.0941
   91CHL1  H24B 9204   4.628   1.495   8.334 -0.8027  0.5898 -3.4750
   91CHL1   C25 9205   4.541   1.557   8.522  0.6771  0.7354  0.0959
   91CHL1   H25 9206   4.459   1.625   8.553  1.5589  1.0670  1.8222
   91CHL1   C26 9207   4.526   1.425   8.608 -0.4071 -0.3163 -0.2748
   91CHL1  H26A 9208   4.536   1.447   8.716  0.2911 -0.3647 -0.3218
   91CHL1  H26B 9209   4.431   1.370   8.592 -0.2704 -1.2099  1.7189
   91CHL1  H26C 9210   4.607   1.360   8.570  0.8453  2.2644 -2.3938
   91CHL1   C27 9211   4.680   1.627   8.563 -0.2300 -0.8922  0.3333
   91CHL1  H27A 9212   4.703   1.639   8.671  2.5024  2.0939 -0.4024
   91CHL1  H27B 9213   4.765   1.578   8.510 -0.1414  0.7165 -1.1258
   91CHL1  H27C 9214   4.673   1.729   8.518  0.6495 -0.1288  1.8399
   92CHL1    C3 9215   1.594   1.590   6.816  0.2134  0.4753  0.5029
   92CHL1    H3 9216   1.686   1.551   6.864  0.6956 -0.9853 -1.4875
   92CHL1    O3 9217   1.622   1.585   6.678  0.1624  0.4558 -0.3543
   92CHL1   H3' 9218   1.701   1.637   6.662 -0.1408  1.1150  0.2634
   92CHL1    C4 9219   1.460   1.518   6.836 -0.0668 -0.0641 -0.1021
   92CHL1   H4A 9220   1.392   1.547   6.752 -1.3829  0.6013  1.1534
   92CHL1   H4B 9221   1.480   1.411   6.811  0.3266  0.0764 -0.3944
   92CHL1    C5 9222   1.383   1.526   6.959  0.0978 -0.1055  0.0276
   92CHL1    C6 9223   1.356   1.418   7.032  0.4607 -0.0168  0.7686
   92CHL1    H6 9224   1.382   1.317   6.996  0.5514 -0.3196  1.6618
   92CHL1    C7 9225   1.282   1.424   7.159 -0.2051 -0.0419  0.7871
   92CHL1   H7A 9226   1.187   1.368   7.145  0.7574 -1.5767  0.1133
   92CHL1   H7B 9227   1.344   1.377   7.239 -0.0169  0.0213  0.6777
   92CHL1    C8 9228   1.237   1.559   7.202 -0.2683  0.0379  0.4725
   92CHL1    H8 9229   1.144   1.577   7.144  0.1610 -0.4863 -0.4017
   92CHL1   C14 9230   1.211   1.561   7.347 -0.4568 -0.3481  0.1965
   92CHL1   H14 9231   1.309   1.547   7.397  0.5189  4.2656  0.0871
   92CHL1   C15 9232   1.120   1.449   7.410  0.1230 -0.2794 -0.7661
   92CHL1  H15A 9233   1.018   1.434   7.369 -0.3839 -1.2747  0.7582
   92CHL1  H15B 9234   1.177   1.354   7.409  1.3601  0.3896  1.0987
   92CHL1   C16 9235   1.091   1.509   7.551  0.0053  0.3880  0.2255
   92CHL1  H16A 9236   0.983   1.501   7.576  0.6608 -1.9887  2.7948
   92CHL1  H16B 9237   1.149   1.462   7.633 -0.8884  0.1036  0.7055
   92CHL1   C17 9238   1.133   1.657   7.551 -0.4574  0.4456 -0.4877
   92CHL1   H17 9239   1.239   1.653   7.584 -0.1504  1.2708 -1.3319
   92CHL1   C13 9240   1.165   1.698   7.400  0.0862 -0.0981 -0.3363
   92CHL1   C18 9241   1.023   1.754   7.336 -0.2625  0.2999 -0.2320
   92CHL1  H18A 9242   1.022   1.753   7.225  0.0505  0.9620 -0.2473
   92CHL1  H18B 9243   0.937   1.702   7.382  0.9411 -3.0186 -1.4363
   92CHL1  H18C 9244   1.010   1.861   7.363 -0.0215  0.5500 -1.0816
   92CHL1   C12 9245   1.270   1.801   7.378 -0.0712  0.1397  0.0738
   92CHL1  H12A 9246   1.232   1.903   7.401 -0.0436 -0.0721  1.0842
   92CHL1  H12B 9247   1.363   1.796   7.438  0.1332 -0.1460 -0.2627
   92CHL1   C11 9248   1.306   1.811   7.224 -0.3344  0.1391 -0.3570
   92CHL1  H11A 9249   1.220   1.854   7.169 -1.2096 -0.5311  0.4455
   92CHL1  H11B 9250   1.390   1.883   7.217 -1.5810  1.8252  1.2174
   92CHL1    C9 9251   1.337   1.675   7.167  0.4379 -0.0572 -0.3644
   92CHL1    H9 9252   1.432   1.647   7.217 -1.3116 -2.4976  1.9294
   92CHL1   C10 9253   1.371   1.672   7.012 -0.2634 -0.8429  0.5481
   92CHL1   C19 9254   1.265   1.761   6.937  0.6468 -0.8330 -0.2708
   92CHL1  H19A 9255   1.280   1.750   6.827  1.5742  2.5196 -0.5717
   92CHL1  H19B 9256   1.169   1.723   6.977  0.8535 -1.8979 -0.7445
   92CHL1  H19C 9257   1.276   1.865   6.972 -1.8896 -0.3474 -0.7214
   92CHL1    C1 9258   1.517   1.738   7.007  0.5119 -0.3708  0.3189
   92CHL1   H1A 9259   1.529   1.840   7.049  0.6993  0.9896 -2.7397
   92CHL1   H1B 9260   1.586   1.676   7.068 -0.3105 -0.5688  1.0654
   92CHL1    C2 9261   1.572   1.739   6.864 -0.0938 -0.3723  0.8014
   92CHL1   H2A 9262   1.663   1.802   6.854 -3.1210  4.1515 -1.7164
   92CHL1   H2B 9263   1.508   1.788   6.787 -0.5200  1.4058  2.2137
   92CHL1   C20 9264   1.058   1.753   7.646  0.1132  0.8976  0.7507
   92CHL1   H20 9265   0.957   1.768   7.602  0.0164  0.1527  0.7125
   92CHL1   C21 9266   1.131   1.884   7.645  0.7284 -0.3736  0.0829
   92CHL1  H21A 9267   1.241   1.876   7.632  0.5540 -0.3274 -1.8202
   92CHL1  H21B 9268   1.113   1.942   7.738  0.5092  2.4684 -1.6216
   92CHL1  H21C 9269   1.101   1.947   7.558 -2.4433  0.0642  1.3755
   92CHL1   C22 9270   1.048   1.704   7.786  0.0896  0.6633 -0.1332
   92CHL1  H22A 9271   1.034   1.594   7.790 -1.9393  0.8429 -1.4017
   92CHL1  H22B 9272   1.145   1.714   7.840  1.4752 -1.6705 -1.9799
   92CHL1   C23 9273   0.934   1.769   7.861  0.4138 -0.5331  0.5456
   92CHL1  H23A 9274   0.975   1.871   7.873  0.9525 -0.8535  1.5007
   92CHL1  H23B 9275   0.844   1.781   7.796  0.7792  1.3211  0.3337
   92CHL1   C24 9276   0.908   1.701   7.999 -0.0138  0.1717 -0.3093
   92CHL1  H24A 9277   0.833   1.768   8.047  1.8084  0.9007  1.6682
   92CHL1  H24B 9278   0.868   1.599   7.984 -0.3059 -0.0853  1.9691
   92CHL1   C25 9279   1.028   1.704   8.091  0.0086  0.6605 -0.3313
   92CHL1   H25 9280   1.103   1.634   8.049  0.6913  1.2464 -0.1018
   92CHL1   C26 9281   1.086   1.842   8.128 -0.8245  0.2273 -0.0108
   92CHL1  H26A 9282   1.155   1.882   8.050 -1.4403 -2.0803 -1.8667
   92CHL1  H26B 9283   1.000   1.912   8.135 -0.0714  1.0140  2.4539
   92CHL1  H26C 9284   1.134   1.840   8.228 -0.5847  0.7569 -0.1135
   92CHL1   C27 9285   0.967   1.638   8.227  0.5721 -0.3967  0.1972
   92CHL1  H27A 9286   1.047   1.650   8.303  1.2960 -1.0873 -0.4390
   92CHL1  H27B 9287   0.871   1.689   8.248  0.1193 -0.1437 -2.2146
   92CHL1  H27C 9288   0.959   1.528   8.223 -0.7263 -0.2892 -0.4567
   93CHL1    C3 9289   3.425   6.629   7.077 -0.5637  0.9370  0.2231
   93CHL1    H3 9290   3.324   6.584   7.088 -0.1438 -0.1348 -0.1196
   93CHL1    O3 9291   3.437   6.665   6.943 -1.0200 -0.2256 -0.1058
   93CHL1   H3' 9292   3.384   6.745   6.936  2.1650  2.1311  0.1290
   93CHL1    C4 9293   3.436   6.751   7.169  0.1143  0.6125  0.4210
   93CHL1   H4A 9294   3.537   6.791   7.150  1.2906 -2.2665  0.1521
   93CHL1   H4B 9295   3.359   6.827   7.142  0.4570  0.5846 -0.6613
   93CHL1    C5 9296   3.426   6.712   7.317 -0.2122 -0.4434 -0.0877
   93CHL1    C6 9297   3.329   6.762   7.391 -0.1047  0.0625 -0.1119
   93CHL1    H6 9298   3.263   6.837   7.346  0.9296 -0.1053 -2.0053
   93CHL1    C7 9299   3.307   6.736   7.538 -0.1745 -0.8797 -0.1358
   93CHL1   H7A 9300   3.283   6.833   7.586 -1.8381 -0.8667 -0.9345
   93CHL1   H7B 9301   3.219   6.675   7.568 -1.5925  1.3889  0.5970
   93CHL1    C8 9302   3.440   6.677   7.598 -0.0054  0.4628  0.4244
   93CHL1    H8 9303   3.520   6.754   7.601  0.8953 -0.4541  0.6134
   93CHL1   C14 9304   3.404   6.603   7.726 -1.3359  0.1592 -0.1503
   93CHL1   H14 9305   3.324   6.530   7.698  0.1392 -1.3310 -0.6851
   93CHL1   C15 9306   3.328   6.693   7.837  0.3111 -0.1172 -0.0148
   93CHL1  H15A 9307   3.380   6.791   7.847  3.6486 -1.5515 -1.6080
   93CHL1  H15B 9308   3.226   6.720   7.802  0.3884 -0.6883 -0.7028
   93CHL1   C16 9309   3.331   6.619   7.968 -0.6162  0.0415 -0.1578
   93CHL1  H16A 9310   3.360   6.695   8.044 -0.5485  0.4793 -0.6117
   93CHL1  H16B 9311   3.231   6.572   7.974  1.0559 -3.7522  3.9285
   93CHL1   C17 9312   3.426   6.502   7.945 -0.6559  0.3713  0.6066
   93CHL1   H17 9313   3.358   6.415   7.935 -0.9140  0.6822 -0.4858
   93CHL1   C13 9314   3.511   6.524   7.803  0.1238  0.0476 -0.3819
   93CHL1   C18 9315   3.624   6.626   7.837  0.1701  0.3250 -0.5483
   93CHL1  H18A 9316   3.645   6.706   7.763 -0.6866  2.7305  1.6795
   93CHL1  H18B 9317   3.592   6.680   7.928 -1.0803 -1.6633  0.2666
   93CHL1  H18C 9318   3.722   6.577   7.859  0.7281  0.7010 -2.0453
   93CHL1   C12 9319   3.558   6.405   7.718 -0.0951  0.5470  0.7163
   93CHL1  H12A 9320   3.652   6.356   7.752  1.8847  2.5870 -1.4196
   93CHL1  H12B 9321   3.476   6.330   7.706  1.9155 -1.6698 -0.0036
   93CHL1   C11 9322   3.594   6.461   7.578 -0.2893 -0.4215 -0.1737
   93CHL1  H11A 9323   3.684   6.524   7.592 -0.4278 -0.0051 -1.0861
   93CHL1  H11B 9324   3.609   6.383   7.500  0.3608 -0.0496 -0.4257
   93CHL1    C9 9325   3.491   6.562   7.511 -0.1528 -0.2172 -0.2756
   93CHL1    H9 9326   3.405   6.491   7.509  0.7198 -1.3961  1.3311
   93CHL1   C10 9327   3.527   6.601   7.364 -0.4832 -0.1775 -0.1949
   93CHL1   C19 9328   3.675   6.657   7.368  0.7162 -0.1770 -1.0006
   93CHL1  H19A 9329   3.696   6.734   7.445  0.0721 -0.9472 -0.0320
   93CHL1  H19B 9330   3.737   6.567   7.384  1.4021  0.3496 -0.6502
   93CHL1  H19C 9331   3.692   6.692   7.264  2.2837  1.1798 -0.3341
   93CHL1    C1 9332   3.521   6.481   7.261 -0.0662  0.4638 -1.1671
   93CHL1   H1A 9333   3.603   6.411   7.287  1.5546  2.2090 -1.3578
   93CHL1   H1B 9334   3.422   6.429   7.265  0.8205 -1.2088  0.3764
   93CHL1    C2 9335   3.527   6.523   7.112  0.3076  0.1216  0.4012
   93CHL1   H2A 9336   3.493   6.442   7.044 -1.2655  1.7969 -0.8983
   93CHL1   H2B 9337   3.628   6.553   7.075  0.2191 -2.9866 -2.9552
   93CHL1   C20 9338   3.502   6.459   8.070 -0.5109 -0.2800 -0.0715
   93CHL1   H20 9339   3.572   6.542   8.093 -1.0278  0.1889 -0.1879
   93CHL1   C21 9340   3.574   6.335   8.040 -0.4979  0.6156 -0.3142
   93CHL1  H21A 9341   3.513   6.254   7.995  1.2734  0.1403 -1.9741
   93CHL1  H21B 9342   3.622   6.299   8.133 -0.0370  1.0397 -0.3841
   93CHL1  H21C 9343   3.659   6.349   7.970 -0.6632 -0.9508 -0.8481
   93CHL1   C22 9344   3.408   6.444   8.196  0.1788 -0.5234 -0.3523
   93CHL1  H22A 9345   3.326   6.519   8.194  1.4101  0.8647 -1.1518
   93CHL1  H22B 9346   3.371   6.340   8.208  2.1056 -1.2524 -0.4186
   93CHL1   C23 9347   3.479   6.486   8.326  0.6029  0.4926  0.4588
   93CHL1  H23A 9348   3.581   6.441   8.320  0.7125  0.8046 -0.0468
   93CHL1  H23B 9349   3.498   6.595   8.333  0.9171  0.7317 -2.6979
   93CHL1   C24 9350   3.405   6.412   8.448  0.2867 -0.0568 -0.2271
   93CHL1  H24A 9351   3.396   6.302   8.438 -1.7236  0.0302  0.1154
   93CHL1  H24B 9352   3.451   6.434   8.546 -0.1513  0.9288 -0.2315
   93CHL1   C25 9353   3.266   6.461   8.467 -0.7547  0.3392 -0.0428
   93CHL1   H25 9354   3.205   6.406   8.391  0.2491 -0.9135  0.0239
   93CHL1   C26 9355   3.216   6.414   8.608 -0.1464  0.3549  0.3485
   93CHL1  H26A 9356   3.229   6.304   8.621  0.2970  0.6510  3.1690
   93CHL1  H26B 9357   3.269   6.463   8.693  1.6069 -0.4694 -0.2193
   93CHL1  H26C 9358   3.107   6.430   8.622  0.3513  2.2782  2.6151
   93CHL1   C27 9359   3.237   6.611   8.456 -0.3763 -0.1702 -0.4247
   93CHL1  H27A 9360   3.127   6.627   8.461 -0.3839 -0.4226  0.3536
   93CHL1  H27B 9361   3.286   6.659   8.543  1.6497 -3.3086  0.3096
   93CHL1  H27C 9362   3.286   6.651   8.364 -0.8184 -0.7758 -0.9310
   94CHL1    C3 9363   1.181   5.211   7.021  0.1778 -0.7330  0.6538
   94CHL1    H3 9364   1.073   5.237   7.031 -0.0376 -0.8135 -1.0639
   94CHL1    O3 9365   1.225   5.197   6.890  0.2305 -0.2915 -0.9480
   94CHL1   H3' 9366   1.318   5.173   6.898  0.2096  0.0673  0.8788
   94CHL1    C4 9367   1.272   5.323   7.093  0.2265 -0.5214 -0.4356
   94CHL1   H4A 9368   1.377   5.292   7.074 -0.3569 -1.4699 -2.3571
   94CHL1   H4B 9369   1.261   5.426   7.053  0.4930  0.5964  2.1345
   94CHL1    C5 9370   1.255   5.321   7.245  0.6080 -0.6466  0.1744
   94CHL1    C6 9371   1.239   5.435   7.316 -0.0957  0.0216 -0.8781
   94CHL1    H6 9372   1.244   5.536   7.272 -0.0426  0.8098  0.8620
   94CHL1    C7 9373   1.239   5.436   7.465  1.0609 -1.8267  0.3594
   94CHL1   H7A 9374   1.295   5.519   7.512 -0.6029 -1.5932  2.0477
   94CHL1   H7B 9375   1.138   5.465   7.503  1.5600  0.6736 -0.0368
   94CHL1    C8 9376   1.285   5.309   7.532  0.3126  0.1315  0.0082
   94CHL1    H8 9377   1.395   5.312   7.526  0.3437 -1.4439 -1.1310
   94CHL1   C14 9378   1.249   5.315   7.684 -0.2471  0.3953 -0.6272
   94CHL1   H14 9379   1.138   5.321   7.684 -0.1782  2.1365 -0.2223
   94CHL1   C15 9380   1.286   5.440   7.766 -0.3210  0.0821 -0.6650
   94CHL1  H15A 9381   1.384   5.471   7.724  1.1909 -1.5410  1.4560
   94CHL1  H15B 9382   1.219   5.527   7.753 -0.7982 -0.0537  0.7134
   94CHL1   C16 9383   1.289   5.384   7.911 -0.0798 -1.8190 -0.5843
   94CHL1  H16A 9384   1.392   5.397   7.950  0.5526 -2.6047 -1.9223
   94CHL1  H16B 9385   1.226   5.448   7.976  0.1458  0.8103 -2.7969
   94CHL1   C17 9386   1.256   5.233   7.906  0.0896 -0.3343 -0.0566
   94CHL1   H17 9387   1.146   5.235   7.915  0.1077  1.4984  0.2408
   94CHL1   C13 9388   1.298   5.188   7.762 -0.2090 -0.0673 -0.8374
   94CHL1   C18 9389   1.449   5.180   7.752  0.8631  0.0875  0.3994
   94CHL1  H18A 9390   1.491   5.101   7.818  2.8564 -0.6307 -1.5988
   94CHL1  H18B 9391   1.487   5.149   7.652 -0.7649 -1.9937  0.3560
   94CHL1  H18C 9392   1.483   5.284   7.772 -1.5584  0.8733  0.7031
   94CHL1   C12 9393   1.220   5.070   7.696  0.1514  0.8033  0.1705
   94CHL1  H12A 9394   1.247   4.977   7.752  1.5635  0.3655 -1.1829
   94CHL1  H12B 9395   1.112   5.090   7.713 -0.3608 -0.9751 -0.7069
   94CHL1   C11 9396   1.251   5.050   7.543 -0.0305 -0.7536 -0.7517
   94CHL1  H11A 9397   1.353   5.007   7.535  0.1454 -1.1249  2.3187
   94CHL1  H11B 9398   1.178   4.973   7.511  1.2556 -1.5124 -1.9068
   94CHL1    C9 9399   1.227   5.185   7.462  0.8012 -0.5487 -0.0537
   94CHL1    H9 9400   1.116   5.196   7.463  0.9042  0.8080  1.4474
   94CHL1   C10 9401   1.268   5.184   7.308 -0.3569 -0.3663  0.3413
   94CHL1   C19 9402   1.416   5.142   7.303  0.3546  0.1933 -0.2637
   94CHL1  H19A 9403   1.416   5.036   7.336 -2.0107 -0.1057 -1.0391
   94CHL1  H19B 9404   1.453   5.129   7.199  2.7578 -0.3334  0.5936
   94CHL1  H19C 9405   1.489   5.198   7.365  0.4130  0.8509 -0.9039
   94CHL1    C1 9406   1.183   5.080   7.230  0.0209 -0.1883 -0.0117
   94CHL1   H1A 9407   1.221   4.979   7.256  1.3636 -0.1384 -1.6459
   94CHL1   H1B 9408   1.074   5.084   7.251  0.2566 -0.1354  1.2909
   94CHL1    C2 9409   1.199   5.075   7.081 -0.5147 -0.3101 -0.2204
   94CHL1   H2A 9410   1.138   5.000   7.026 -0.5425  0.2879 -1.0235
   94CHL1   H2B 9411   1.303   5.047   7.052 -0.0155  1.9436 -0.7660
   94CHL1   C20 9412   1.314   5.156   8.026  0.9788  0.4918  0.2847
   94CHL1   H20 9413   1.421   5.182   8.039  0.5717  2.3430  0.2777
   94CHL1   C21 9414   1.289   5.006   8.022  0.8277  0.1238  0.5404
   94CHL1  H21A 9415   1.181   4.982   8.009  1.3491 -3.4261  1.6076
   94CHL1  H21B 9416   1.330   4.955   8.112  3.0912  0.9433  0.0297
   94CHL1  H21C 9417   1.344   4.958   7.939 -0.4801 -3.0226  1.3540
   94CHL1   C22 9418   1.268   5.219   8.167 -0.5281 -0.6932  0.6051
   94CHL1  H22A 9419   1.284   5.329   8.178  1.7616 -0.8665 -0.4847
   94CHL1  H22B 9420   1.161   5.201   8.192 -0.0752 -0.8152  2.5591
   94CHL1   C23 9421   1.350   5.166   8.278  0.4669 -0.4180 -0.3458
   94CHL1  H23A 9422   1.327   5.060   8.299 -0.0018 -0.0504  1.1426
   94CHL1  H23B 9423   1.458   5.170   8.251  0.3475  0.7588 -0.7264
   94CHL1   C24 9424   1.335   5.245   8.409  0.4906 -0.1061  0.7038
   94CHL1  H24A 9425   1.408   5.193   8.474 -0.5598  0.4494  2.3930
   94CHL1  H24B 9426   1.374   5.348   8.393  0.6433 -0.3066 -0.3097
   94CHL1   C25 9427   1.196   5.222   8.470  0.1470  0.1669 -0.1889
   94CHL1   H25 9428   1.119   5.235   8.391  2.2226  1.7957 -2.0869
   94CHL1   C26 9429   1.171   5.086   8.523  0.5720  0.0287  0.5234
   94CHL1  H26A 9430   1.259   5.061   8.584 -0.4390  2.2264  3.0688
   94CHL1  H26B 9431   1.083   5.099   8.589  0.7206 -1.7911  1.1179
   94CHL1  H26C 9432   1.149   5.017   8.438 -1.4147  0.4278  0.6538
   94CHL1   C27 9433   1.169   5.330   8.568  1.0527  0.3248 -0.2125
   94CHL1  H27A 9434   1.254   5.349   8.637 -0.0191 -1.4581  1.7222
   94CHL1  H27B 9435   1.142   5.421   8.510  1.4502  0.1554 -0.6747
   94CHL1  H27C 9436   1.084   5.310   8.637 -1.6872  2.3075 -2.7346
   95CHL1    C3 9437   6.683   3.433   6.758 -0.1744 -0.6882 -0.0739
   95CHL1    H3 9438   6.627   3.527   6.771  3.3113  1.5790 -0.2262
   95CHL1    O3 9439   6.672   3.382   6.626  0.2078  0.1050  0.2329
   95CHL1   H3' 9440   6.577   3.372   6.621  0.1633 -0.1954  1.2889
   95CHL1    C4 9441   6.836   3.457   6.791  0.6864  1.0851  0.1402
   95CHL1   H4A 9442   6.896   3.369   6.760  1.2199  0.7072  2.1049
   95CHL1   H4B 9443   6.880   3.536   6.726  2.3668  0.0913  0.0192
   95CHL1    C5 9444   6.861   3.500   6.935 -0.4854  0.4776  0.1735
   95CHL1    C6 9445   6.925   3.617   6.961 -0.3669  0.0752 -0.4461
   95CHL1    H6 9446   6.984   3.663   6.881 -1.1515  0.2987 -0.9055
   95CHL1    C7 9447   6.953   3.652   7.103  0.0108 -0.4058 -0.2424
   95CHL1   H7A 9448   7.052   3.696   7.123 -1.6419  2.6524  1.9266
   95CHL1   H7B 9449   6.878   3.729   7.132  2.1572  0.4549  3.7060
   95CHL1    C8 9450   6.931   3.539   7.209  0.2976  0.3077 -0.1184
   95CHL1    H8 9451   7.019   3.471   7.206 -0.1799 -0.3784  0.9858
   95CHL1   C14 9452   6.916   3.598   7.351 -0.1033 -0.1717  0.0757
   95CHL1   H14 9453   6.820   3.652   7.345 -0.3470 -0.7407 -2.2044
   95CHL1   C15 9454   7.022   3.693   7.398 -0.1684 -0.2839  0.6465
   95CHL1  H15A 9455   7.118   3.640   7.382 -0.0444 -0.7965  2.7996
   95CHL1  H15B 9456   7.036   3.788   7.342  2.1035 -0.1448  1.3629
   95CHL1   C16 9457   7.004   3.697   7.554  0.1825 -0.7363  0.6424
   95CHL1  H16A 9458   7.106   3.675   7.593  1.1512  0.7116 -0.9284
   95CHL1  H16B 9459   6.976   3.802   7.577 -1.0764 -0.7406 -0.7040
   95CHL1   C17 9460   6.896   3.589   7.585  0.6388 -0.0650  0.3255
   95CHL1   H17 9461   6.801   3.645   7.599  0.4529 -0.2846 -0.0522
   95CHL1   C13 9462   6.893   3.502   7.461 -0.1022  0.3207  0.2793
   95CHL1   C18 9463   7.018   3.401   7.463 -0.3591 -0.0807 -0.5224
   95CHL1  H18A 9464   7.036   3.352   7.365  1.9302  0.2151 -0.2986
   95CHL1  H18B 9465   7.115   3.448   7.486 -1.2144  2.0262 -1.0233
   95CHL1  H18C 9466   7.004   3.322   7.541  0.8851  1.6822  1.6077
   95CHL1   C12 9467   6.757   3.431   7.441 -0.4489 -0.1233  0.4607
   95CHL1  H12A 9468   6.735   3.356   7.520  2.6785  0.8644  2.4729
   95CHL1  H12B 9469   6.676   3.507   7.451 -0.3410  0.2304 -1.0630
   95CHL1   C11 9470   6.751   3.367   7.301 -0.2437  0.2527 -0.2159
   95CHL1  H11A 9471   6.820   3.280   7.288  0.0531  0.7947 -2.8546
   95CHL1  H11B 9472   6.649   3.329   7.280 -0.5654  0.8138  0.2930
   95CHL1    C9 9473   6.802   3.457   7.180 -0.2181  1.1298 -0.7368
   95CHL1    H9 9474   6.724   3.536   7.183  0.1202  1.4530  2.0906
   95CHL1   C10 9475   6.796   3.401   7.041 -0.0146 -0.1369  0.7046
   95CHL1   C19 9476   6.876   3.271   7.045  0.0826 -0.0841  0.7004
   95CHL1  H19A 9477   6.870   3.225   6.944 -1.3449 -1.8464  1.5249
   95CHL1  H19B 9478   6.981   3.291   7.073  1.5641 -3.1318 -1.9588
   95CHL1  H19C 9479   6.828   3.192   7.108  1.5407 -2.0000 -0.4662
   95CHL1    C1 9480   6.649   3.370   6.997  0.2710  0.4927 -0.0069
   95CHL1   H1A 9481   6.612   3.288   7.064  1.0558 -0.2340 -0.4416
   95CHL1   H1B 9482   6.598   3.467   7.013 -1.3493 -0.3093 -0.1454
   95CHL1    C2 9483   6.632   3.327   6.855 -0.2471  0.0408  0.1489
   95CHL1   H2A 9484   6.525   3.308   6.831 -0.3948  0.1898  0.6974
   95CHL1   H2B 9485   6.698   3.238   6.845  1.0520  0.9328  0.5394
   95CHL1   C20 9486   6.936   3.524   7.720  0.0255  0.1366 -0.1510
   95CHL1   H20 9487   7.033   3.474   7.701 -1.0255 -2.7716  1.4923
   95CHL1   C21 9488   6.838   3.407   7.763 -0.3780 -1.1045 -0.6577
   95CHL1  H21A 9489   6.862   3.392   7.870  1.1054  1.0436 -0.6330
   95CHL1  H21B 9490   6.855   3.317   7.699  0.5039 -0.8550 -0.7990
   95CHL1  H21C 9491   6.729   3.428   7.757 -0.8292 -3.1805 -0.3828
   95CHL1   C22 9492   6.961   3.626   7.837 -0.3179 -0.0745 -0.8109
   95CHL1  H22A 9493   6.958   3.565   7.930 -1.6393 -0.5253 -1.1220
   95CHL1  H22B 9494   7.067   3.654   7.821  0.0640 -1.4052 -0.7210
   95CHL1   C23 9495   6.869   3.745   7.853  0.3511  0.0547  0.4890
   95CHL1  H23A 9496   6.894   3.814   7.769 -3.1734 -2.4621 -2.9724
   95CHL1  H23B 9497   6.766   3.707   7.834 -0.0689  1.6875 -0.7668
   95CHL1   C24 9498   6.891   3.826   7.986  0.8756  0.4269  0.1173
   95CHL1  H24A 9499   7.002   3.826   7.991  1.0293 -1.7315 -1.8073
   95CHL1  H24B 9500   6.854   3.931   7.978 -1.2519 -0.1233  1.7765
   95CHL1   C25 9501   6.830   3.773   8.119 -0.2253 -0.1475  1.1780
   95CHL1   H25 9502   6.887   3.681   8.145 -0.6038 -1.1027 -1.1484
   95CHL1   C26 9503   6.845   3.876   8.232  0.7542 -0.2491 -0.0907
   95CHL1  H26A 9504   6.777   3.962   8.215  0.6602 -0.0205  1.3022
   95CHL1  H26B 9505   6.816   3.832   8.330  2.4073 -1.8132 -0.2453
   95CHL1  H26C 9506   6.951   3.909   8.229  1.2895 -1.7033  1.1996
   95CHL1   C27 9507   6.681   3.748   8.116 -0.0686  0.4849  1.0625
   95CHL1  H27A 9508   6.631   3.719   8.211 -2.5281  2.3920  0.4315
   95CHL1  H27B 9509   6.630   3.836   8.071  2.0029  1.5571  0.6810
   95CHL1  H27C 9510   6.670   3.666   8.042 -0.1420  3.3603 -2.3714
   96CHL1    C3 9511   4.465   6.828   6.740  0.0079 -0.1255  0.0349
   96CHL1    H3 9512   4.470   6.917   6.805 -1.1659 -2.0610  2.9973
   96CHL1    O3 9513   4.458   6.851   6.598  0.3406 -0.1025 -0.0552
   96CHL1   H3' 9514   4.462   6.764   6.556  0.2287 -0.5130  0.7665
   96CHL1    C4 9515   4.585   6.738   6.764  1.0362  0.4451  1.0576
   96CHL1   H4A 9516   4.568   6.653   6.694 -0.7798  2.9890 -1.8644
   96CHL1   H4B 9517   4.671   6.792   6.720  0.9929 -0.0909  0.2970
   96CHL1    C5 9518   4.603   6.707   6.913 -0.1630 -0.4297 -0.0515
   96CHL1    C6 9519   4.708   6.768   6.977  0.0993  0.4140  0.1019
   96CHL1    H6 9520   4.785   6.826   6.922 -0.0445  1.7825  1.2858
   96CHL1    C7 9521   4.732   6.747   7.121  0.0148  0.2181 -0.2163
   96CHL1   H7A 9522   4.836   6.716   7.146 -0.0843  0.9012  1.1309
   96CHL1   H7B 9523   4.709   6.839   7.180  0.7878  0.4417 -0.2492
   96CHL1    C8 9524   4.639   6.639   7.179 -0.2664 -0.3498 -0.3227
   96CHL1    H8 9525   4.669   6.537   7.148 -0.2810  0.1853 -2.2178
   96CHL1   C14 9526   4.639   6.651   7.332 -0.3573  0.1186  0.6584
   96CHL1   H14 9527   4.602   6.747   7.374  1.4845  0.2165  2.2206
   96CHL1   C15 9528   4.780   6.654   7.395 -0.5455  0.3006  0.2556
   96CHL1  H15A 9529   4.848   6.582   7.344 -1.8906 -0.0886 -1.0598
   96CHL1  H15B 9530   4.831   6.751   7.374 -0.6892  0.4459  0.5700
   96CHL1   C16 9531   4.766   6.611   7.541 -0.6362 -0.3256  0.3632
   96CHL1  H16A 9532   4.825   6.519   7.562  1.5377  1.1497  1.0686
   96CHL1  H16B 9533   4.809   6.696   7.598  0.6499  0.4199 -1.5685
   96CHL1   C17 9534   4.609   6.588   7.558  0.1773 -0.8417  0.3236
   96CHL1   H17 9535   4.558   6.685   7.577 -0.7101 -1.1566 -0.3721
   96CHL1   C13 9536   4.560   6.549   7.413  0.1479 -0.1017 -0.4140
   96CHL1   C18 9537   4.610   6.403   7.378 -0.4249 -0.0066  0.1143
   96CHL1  H18A 9538   4.718   6.383   7.396  0.2830  2.3670 -1.0726
   96CHL1  H18B 9539   4.542   6.335   7.433 -1.8203  1.8861  0.8503
   96CHL1  H18C 9540   4.602   6.387   7.268 -0.1932 -2.8007  0.4350
   96CHL1   C12 9541   4.412   6.574   7.374  0.0520  0.2713  0.1612
   96CHL1  H12A 9542   4.359   6.489   7.421  0.0742  1.0674  1.6851
   96CHL1  H12B 9543   4.367   6.672   7.403 -2.1154 -0.6946  0.2224
   96CHL1   C11 9544   4.399   6.555   7.218  0.0431 -0.0289  0.0487
   96CHL1  H11A 9545   4.417   6.448   7.194 -0.4828  0.0934 -0.9319
   96CHL1  H11B 9546   4.295   6.583   7.193 -0.6713 -1.3375  1.3756
   96CHL1    C9 9547   4.491   6.650   7.134  0.0139 -0.4499  0.6120
   96CHL1    H9 9548   4.459   6.755   7.150  2.0350  0.6725 -1.9169
   96CHL1   C10 9549   4.476   6.639   6.980  0.2596  0.0575  0.0053
   96CHL1   C19 9550   4.458   6.489   6.938  0.2141  0.0582 -0.0566
   96CHL1  H19A 9551   4.360   6.438   6.954  1.1429 -2.9716 -2.7243
   96CHL1  H19B 9552   4.470   6.484   6.827  0.4711  2.3547 -0.1737
   96CHL1  H19C 9553   4.536   6.423   6.980  0.7742  0.5108 -0.3693
   96CHL1    C1 9554   4.350   6.715   6.934  0.6227 -1.0586  0.0473
   96CHL1   H1A 9555   4.258   6.661   6.964 -0.8045 -0.8163 -3.3945
   96CHL1   H1B 9556   4.358   6.816   6.978  1.1613 -1.7847  1.6768
   96CHL1    C2 9557   4.345   6.737   6.779  0.4230  0.0982 -1.1197
   96CHL1   H2A 9558   4.257   6.804   6.765 -1.7611 -2.0798  1.0174
   96CHL1   H2B 9559   4.331   6.642   6.722 -0.8365  2.1655 -4.5850
   96CHL1   C20 9560   4.579   6.483   7.666 -0.2210 -0.7913 -0.0660
   96CHL1   H20 9561   4.599   6.379   7.632  1.1661 -0.2347 -1.0632
   96CHL1   C21 9562   4.431   6.488   7.706 -0.1020  0.6691 -0.0833
   96CHL1  H21A 9563   4.380   6.461   7.611  1.9645  0.1071 -1.1011
   96CHL1  H21B 9564   4.406   6.594   7.727 -0.1419  1.3158 -2.9094
   96CHL1  H21C 9565   4.403   6.411   7.781 -1.6236 -0.6357 -1.8701
   96CHL1   C22 9566   4.658   6.501   7.805 -0.3900 -0.1303  0.5703
   96CHL1  H22A 9567   4.615   6.421   7.868  0.2166 -0.9028  0.0350
   96CHL1  H22B 9568   4.760   6.471   7.770 -1.0699 -0.1870 -1.5321
   96CHL1   C23 9569   4.650   6.645   7.865  1.0266  0.6141  0.5161
   96CHL1  H23A 9570   4.672   6.716   7.782 -1.8093  0.7590 -0.2234
   96CHL1  H23B 9571   4.548   6.672   7.901  1.3970  2.0294  0.5761
   96CHL1   C24 9572   4.748   6.675   7.971  0.0774  0.4973  0.3638
   96CHL1  H24A 9573   4.850   6.667   7.928 -0.7450  1.5984 -1.9735
   96CHL1  H24B 9574   4.739   6.784   7.989  1.7649  0.3865  2.2757
   96CHL1   C25 9575   4.744   6.594   8.102  0.2932 -0.9342  0.0214
   96CHL1   H25 9576   4.772   6.490   8.073  0.5490 -0.5293 -1.2440
   96CHL1   C26 9577   4.840   6.653   8.210 -0.2234 -0.3391 -0.0548
   96CHL1  H26A 9578   4.798   6.748   8.250  2.1254  1.2860 -1.2464
   96CHL1  H26B 9579   4.834   6.579   8.293 -1.4211  0.3759  0.5166
   96CHL1  H26C 9580   4.948   6.659   8.186 -0.6927  0.4958 -2.1479
   96CHL1   C27 9581   4.604   6.581   8.169 -0.2864  0.3522  0.3789
   96CHL1  H27A 9582   4.524   6.537   8.106  0.4478 -0.7859  0.2161
   96CHL1  H27B 9583   4.607   6.528   8.266  1.1455  0.6566  0.5320
   96CHL1  H27C 9584   4.576   6.686   8.194  1.9538  0.9556  0.6001
   97OSM      N 9585   1.104   4.234  10.947 -0.0295 -0.1553  0.5146
   97OSM    C15 9586   1.163   4.144  11.050  0.1409  0.8016 -0.7264
   97OSM   H15A 9587   1.267   4.166  11.068  0.7669 -1.7902 -0.7606
   97OSM   H15B 9588   1.164   4.039  11.023  0.3132 -0.0477  2.1958
   97OSM   H15C 9589   1.098   4.142  11.136 -0.1944 -0.1118 -0.9895
   97OSM    C14 9590   1.184   4.229  10.815 -0.2473  0.3584  0.0520
   97OSM   H14A 9591   1.153   4.303  10.743  0.5850  0.3187 -0.3715
   97OSM   H14B 9592   1.172   4.128  10.778 -0.5965 -0.0998  1.3527
   97OSM   H14C 9593   1.288   4.247  10.840  0.6003 -3.8399  0.3710
   97OSM    C13 9594   0.965   4.190  10.918 -0.1003 -0.3437  0.0239
   97OSM   H13A 9595   0.919   4.266  10.856 -2.2287 -0.9759  0.7407
   97OSM   H13B 9596   0.896   4.193  11.002 -1.3914  0.9332 -1.0168
   97OSM   H13C 9597   0.959   4.088  10.883 -0.0032 -0.4553  0.3257
   97OSM    C12 9598   1.105   4.377  11.005  0.0847 -0.3553  0.3325
   97OSM   H12A 9599   1.211   4.398  11.011 -0.0874  1.1158 -0.9578
   97OSM   H12B 9600   1.057   4.387  11.101  0.7518  1.1607  0.5329
   97OSM    C11 9601   1.045   4.493  10.918 -0.3435  0.4021 -0.3738
   97OSM   H11A 9602   1.104   4.510  10.826 -0.1955 -1.5944 -0.6774
   97OSM   H11B 9603   1.060   4.580  10.985  1.3340  1.1680 -1.6847
   97OSM      P 9604   0.813   4.582  10.833 -0.0772  0.4828  0.0207
   97OSM    O13 9605   0.687   4.566  10.907  0.0590  0.2329  0.2407
   97OSM    O14 9606   0.876   4.718  10.838  0.8360  0.0275  0.0969
   97OSM    O11 9607   0.783   4.536  10.687  0.1379  0.4557 -0.0157
   97OSM    O12 9608   0.907   4.472  10.895 -0.2413  0.4122 -0.3699
   97OSM    C1S 9609   0.762   4.394  10.658  0.1563 -1.1927  0.3371
   97OSM    H1S 9610   0.653   4.388  10.639 -0.4887 -1.2775  3.6286
   97OSM    H1T 9611   0.801   4.328  10.738 -0.1539 -1.7766  0.0136
   97OSM     NF 9612   0.782   4.226  10.485 -0.3905 -0.0031 -0.3768
   97OSM    HNF 9613   0.841   4.160  10.531 -0.7149  1.4643  2.3165
   97OSM    C2S 9614   0.831   4.354  10.519  0.3634  0.6965 -0.2225
   97OSM    H2S 9615   0.790   4.422  10.441 -0.3402  1.8021  1.0547
   97OSM    C3S 9616   0.989   4.377  10.522 -0.0051  1.1918 -0.3160
   97OSM    H3S 9617   1.031   4.302  10.593  0.1449  0.0663 -1.5518
   97OSM     O3 9618   1.034   4.507  10.566 -0.3225 -0.3224 -1.4456
   97OSM    HO3 9619   0.951   4.548  10.594  0.2901  1.1340 -1.6363
   97OSM    C4S 9620   1.056   4.352  10.390 -0.3749  0.5278  0.4550
   97OSM    H4S 9621   1.013   4.414  10.310  0.8393  2.1710  1.0022
   97OSM    C5S 9622   1.171   4.279  10.374 -0.5332  0.0192  0.4995
   97OSM    H5S 9623   1.205   4.230  10.467 -2.2930 -0.7191  0.8056
   97OSM    C6S 9624   1.259   4.249  10.253 -0.0841  0.2004 -0.8172
   97OSM    H6S 9625   1.320   4.159  10.275 -1.7967 -1.1790 -1.4152
   97OSM    H6T 9626   1.332   4.331  10.235 -0.5757  1.0081  0.7063
   97OSM    C7S 9627   1.168   4.239  10.131 -0.2452 -0.5128 -0.7351
   97OSM    H7S 9628   1.119   4.337  10.113 -0.7538 -0.8835 -1.4241
   97OSM    H7T 9629   1.093   4.159  10.147  1.4537 -2.4245 -1.7751
   97OSM    C8S 9630   1.250   4.203  10.004 -0.6636 -0.3578  0.3914
   97OSM    H8S 9631   1.293   4.102  10.020 -1.0087 -0.5419  0.1603
   97OSM    H8T 9632   1.330   4.276   9.978 -3.5275  2.2433 -1.8804
   97OSM    C9S 9633   1.158   4.202   9.881 -0.0463 -0.0445  0.1272
   97OSM    H9S 9634   1.124   4.305   9.856 -0.3781 -0.3449 -0.6865
   97OSM    H9T 9635   1.074   4.131   9.897  0.8046 -0.9432  0.7047
   97OSM   C10S 9636   1.242   4.159   9.760  0.1329  0.6242  0.6912
   97OSM   H10S 9637   1.285   4.058   9.776  2.8846  0.1705 -6.1819
   97OSM   H10T 9638   1.320   4.238   9.749 -0.6410  1.2030 -1.0878
   97OSM   C11S 9639   1.158   4.141   9.627  0.1043  0.1687 -0.5785
   97OSM   H11S 9640   1.087   4.058   9.648 -1.8993  1.5345 -1.5687
   97OSM   H11T 9641   1.222   4.099   9.546  0.3782  0.1846 -0.3704
   97OSM   C12S 9642   1.078   4.259   9.577 -0.4444  0.1628 -0.0877
   97OSM   H12S 9643   1.130   4.357   9.589 -0.0518  0.1126 -1.2781
   97OSM   H12T 9644   0.982   4.257   9.634  0.1303  1.7858  1.0141
   97OSM   C13S 9645   1.043   4.247   9.424 -0.1597  1.2746  0.4097
   97OSM   H13S 9646   1.131   4.210   9.368  0.0103 -0.2232  1.6347
   97OSM   H13T 9647   1.012   4.350   9.394 -1.9200  0.1710 -1.9636
   97OSM   C14S 9648   0.924   4.154   9.388 -0.1101  0.9564 -0.2606
   97OSM   H14S 9649   0.854   4.214   9.326  0.5347  1.9168 -0.0900
   97OSM   H14T 9650   0.877   4.111   9.479  1.9805  1.9310  1.3830
   97OSM   C15S 9651   0.967   4.035   9.301  0.0314 -0.3285  0.4625
   97OSM   H15S 9652   1.039   3.965   9.349  0.4701 -1.5541 -1.8116
   97OSM   H15T 9653   1.022   4.084   9.218 -0.0379 -0.9352  0.0450
   97OSM   C16S 9654   0.853   3.956   9.248 -0.4532 -0.4923 -0.1660
   97OSM   H16S 9655   0.766   4.024   9.233 -2.5484 -3.0369 -0.3917
   97OSM   H16T 9656   0.812   3.884   9.322 -3.1672  0.2856 -0.7801
   97OSM   C17S 9657   0.870   3.890   9.106  0.7521 -0.1104 -0.1083
   97OSM   H17S 9658   0.934   3.799   9.111 -0.5030 -0.9443  1.8549
   97OSM   H17T 9659   0.929   3.968   9.052  2.0310 -0.5891  0.5389
   97OSM   C18S 9660   0.733   3.861   9.048  0.3263 -0.1202 -0.5646
   97OSM   H18S 9661   0.746   3.798   8.957 -0.3368 -2.1360  0.6681
   97OSM   H18T 9662   0.668   3.946   9.019 -1.1245 -0.4333  1.5373
   97OSM   H18U 9663   0.673   3.803   9.121  0.2287  1.3703  0.5837
   97OSM    C1F 9664   0.657   4.203  10.437  0.8206  0.1991  0.5183
   97OSM     OF 9665   0.598   4.300  10.390  0.1297 -0.2187 -1.0553
   97OSM    C2F 9666   0.602   4.066  10.452 -0.3303 -0.0076  0.6401
   97OSM    H2F 9667   0.537   4.074  10.543  0.4777  1.6642  1.1148
   97OSM    H2G 9668   0.682   3.992  10.469  1.5862  1.9853  0.6912
   97OSM    C3F 9669   0.511   4.020  10.334 -0.2334 -0.1796  0.2089
   97OSM    H3F 9670   0.423   4.086  10.348 -1.4045 -1.7509  0.5544
   97OSM    H3G 9671   0.485   3.913  10.351 -2.9290  0.1592 -1.2661
   97OSM    C4F 9672   0.576   4.035  10.189 -0.8510  0.2187 -0.0334
   97OSM    H4F 9673   0.587   4.144  10.172  0.3148  0.1260  0.0791
   97OSM    H4G 9674   0.509   3.981  10.118 -0.7356 -2.4315  1.7278
   97OSM    C5F 9675   0.718   3.966  10.164  0.0035 -0.3186  0.1347
   97OSM    H5F 9676   0.699   3.856  10.168 -1.8210  0.0019  1.8822
   97OSM    H5G 9677   0.787   3.996  10.245  0.8163 -0.3358 -0.5365
   97OSM    C6F 9678   0.784   4.007  10.031  0.2826 -0.3168  0.5783
   97OSM    H6F 9679   0.864   3.932  10.014  0.8993  0.5708 -0.4743
   97OSM    H6G 9680   0.830   4.107  10.031 -1.0594  0.3820  2.7554
   97OSM    C7F 9681   0.690   3.981   9.916  0.6347  0.0379  0.0105
   97OSM    H7F 9682   0.608   4.056   9.912  0.9550  0.5365  1.8515
   97OSM    H7G 9683   0.637   3.885   9.930 -0.5382  0.3050 -2.1783
   97OSM    C8F 9684   0.767   3.992   9.791 -0.0296 -0.5041  0.2542
   97OSM    H8F 9685   0.847   3.915   9.795  1.2711  0.8475  1.1631
   97OSM    H8G 9686   0.821   4.089   9.786  0.0849 -0.5333  0.9341
   97OSM    C9F 9687   0.680   3.980   9.671 -0.8926  0.0064  0.2882
   97OSM    H9F 9688   0.616   4.063   9.640 -0.3006  0.8521  1.2827
   97OSM   C10F 9689   0.677   3.874   9.587 -0.2239  0.4247  0.0442
   97OSM   H10F 9690   0.622   3.869   9.492  0.2517 -1.5400 -0.1842
   97OSM   C11F 9691   0.767   3.752   9.603  0.2742  0.0108 -0.3144
   97OSM   H11F 9692   0.801   3.758   9.709 -2.1803  2.7043  0.4450
   97OSM   H11G 9693   0.855   3.737   9.536 -0.9566 -0.1837 -1.9562
   97OSM   C12F 9694   0.702   3.614   9.578  0.3564 -0.0533 -0.1943
   97OSM   H12F 9695   0.600   3.620   9.622  0.9329 -1.1464  1.3580
   97OSM   H12G 9696   0.750   3.533   9.636 -0.2438 -1.7653 -1.9770
   97OSM   C13F 9697   0.683   3.577   9.430 -0.1221 -0.7218 -1.1955
   97OSM   H13F 9698   0.772   3.518   9.399 -0.5802 -1.3910 -1.2511
   97OSM   H13G 9699   0.675   3.674   9.376 -1.4397  0.2473  0.6285
   97OSM   C14F 9700   0.551   3.504   9.401  0.0283 -0.1015  0.5589
   97OSM   H14F 9701   0.466   3.574   9.412  0.2962  0.1251  1.2328
   97OSM   H14G 9702   0.523   3.428   9.477  1.0880 -0.5269  0.5413
   97OSM   C15F 9703   0.561   3.423   9.273  0.1867  0.1484 -0.4363
   97OSM   H15F 9704   0.467   3.364   9.261 -0.2367  0.0062  2.7144
   97OSM   H15G 9705   0.644   3.350   9.278  0.5028  0.5149 -0.2630
   97OSM   C16F 9706   0.588   3.518   9.153 -0.2113  0.4628  0.0098
   97OSM   H16F 9707   0.689   3.562   9.172 -1.0379  1.9156  1.2597
   97OSM   H16G 9708   0.515   3.601   9.159 -1.5001 -0.7326  2.0401
   97OSM   C17F 9709   0.569   3.452   9.020 -0.7153 -0.3801  0.6547
   97OSM   H17F 9710   0.461   3.451   8.992 -0.8038  2.3369  0.6132
   97OSM   H17G 9711   0.613   3.350   9.022  1.0366  0.2427 -1.9985
   97OSM   C18F 9712   0.649   3.535   8.924 -0.5724 -0.1998 -0.0404
   97OSM   H18F 9713   0.598   3.630   8.898  2.0330  1.2814 -0.0844
   97OSM   H18G 9714   0.655   3.485   8.826  0.0837  1.0554 -0.6719
   97OSM   H18H 9715   0.747   3.556   8.973 -0.0410  1.9432 -1.8400
   98OSM      N 9716   5.450   4.937  11.035 -0.5548  0.3791  0.3751
   98OSM    C15 9717   5.570   4.862  10.986 -0.1866  0.5387 -0.6038
   98OSM   H15A 9718   5.635   4.857  11.073 -2.8972  0.7926  1.5688
   98OSM   H15B 9719   5.621   4.917  10.908  1.0388  0.1790 -0.0899
   98OSM   H15C 9720   5.541   4.766  10.947 -1.4612  0.2912  0.8732
   98OSM    C14 9721   5.371   4.851  11.137  0.0598 -0.0320  0.2736
   98OSM   H14A 9722   5.313   4.768  11.099 -0.8161  0.6930 -0.0075
   98OSM   H14B 9723   5.303   4.903  11.203 -0.5087 -0.9898  0.4581
   98OSM   H14C 9724   5.452   4.823  11.202 -0.1051  0.0875  0.5343
   98OSM    C13 9725   5.494   5.061  11.100 -0.2775 -0.0337  0.1013
   98OSM   H13A 9726   5.404   5.119  11.114 -1.6093 -2.1839  0.8035
   98OSM   H13B 9727   5.565   5.111  11.035 -0.2885  1.9746  1.5352
   98OSM   H13C 9728   5.544   5.046  11.194 -0.2027 -1.2437 -0.1207
   98OSM    C12 9729   5.356   4.978  10.920 -0.0389 -0.0942  0.2812
   98OSM   H12A 9730   5.403   5.048  10.852 -0.5128 -0.7613 -0.7696
   98OSM   H12B 9731   5.264   5.012  10.964  0.0314  0.7165 -0.1696
   98OSM    C11 9732   5.320   4.865  10.820 -0.5261  0.1005  0.4399
   98OSM   H11A 9733   5.408   4.805  10.789  0.1779  1.4877 -0.3393
   98OSM   H11B 9734   5.283   4.917  10.730  1.1969 -0.6248 -0.7504
   98OSM      P 9735   5.064   4.799  10.841  0.2715  0.2288  0.4301
   98OSM    O13 9736   4.987   4.699  10.933 -0.5523  0.1846  0.7630
   98OSM    O14 9737   5.030   4.945  10.851  0.1377  1.2036 -0.2297
   98OSM    O11 9738   5.060   4.747  10.693 -0.1914 -0.2536  0.6688
   98OSM    O12 9739   5.216   4.786  10.870  0.3145  0.1887  0.4586
   98OSM    C1S 9740   5.144   4.633  10.668  0.2300  0.1704  0.1408
   98OSM    H1S 9741   5.130   4.554  10.744 -0.6843  0.6837  0.5284
   98OSM    H1T 9742   5.248   4.671  10.675  0.3693  0.3031 -1.8895
   98OSM     NF 9743   5.144   4.432  10.518 -0.1977 -0.2064  0.7897
   98OSM    HNF 9744   5.221   4.404  10.460 -0.2293  0.7766  0.2419
   98OSM    C2S 9745   5.126   4.576  10.522  0.2463  0.2431  0.3769
   98OSM    H2S 9746   5.017   4.596  10.509  0.0453 -0.8722  0.2071
   98OSM    C3S 9747   5.208   4.664  10.426 -0.3632 -0.4136  0.3870
   98OSM    H3S 9748   5.316   4.653  10.450 -0.8411 -0.7468  2.6120
   98OSM     O3 9749   5.167   4.801  10.448  0.4206  0.2129  0.2993
   98OSM    HO3 9750   5.108   4.790  10.523  0.8834 -1.2210  0.4726
   98OSM    C4S 9751   5.183   4.627  10.293  0.3620 -0.1317 -0.0844
   98OSM    H4S 9752   5.083   4.658  10.261  1.2204  3.1378  0.0042
   98OSM    C5S 9753   5.261   4.557  10.207  0.2250  0.0903 -0.2275
   98OSM    H5S 9754   5.352   4.515  10.252  0.1759 -0.1408 -0.3411
   98OSM    C6S 9755   5.238   4.516  10.064 -0.1306 -0.4764 -0.9290
   98OSM    H6S 9756   5.281   4.596  10.000 -1.5250  4.1646  3.3063
   98OSM    H6T 9757   5.130   4.523  10.039 -0.5672  1.5483  1.1896
   98OSM    C7S 9758   5.309   4.388  10.033  0.8223  0.7200  0.4857
   98OSM    H7S 9759   5.254   4.317  10.098  1.8889 -0.9983 -0.4072
   98OSM    H7T 9760   5.416   4.396  10.059  1.4137  0.8060 -1.7664
   98OSM    C8S 9761   5.270   4.343   9.893 -0.3960  0.5775 -0.6063
   98OSM    H8S 9762   5.163   4.313   9.897 -0.7988  2.0501  0.5509
   98OSM    H8T 9763   5.324   4.251   9.863  0.2400  0.8692 -0.3716
   98OSM    C9S 9764   5.277   4.436   9.769  0.1564 -0.1606 -0.5681
   98OSM    H9S 9765   5.370   4.497   9.780 -0.6170  0.5957  3.0726
   98OSM    H9T 9766   5.190   4.504   9.756  0.1108 -0.5281 -2.4860
   98OSM   C10S 9767   5.293   4.341   9.643  0.1108  0.2690 -1.0308
   98OSM   H10S 9768   5.199   4.284   9.628 -1.6819  3.2388 -1.8573
   98OSM   H10T 9769   5.386   4.284   9.665 -0.1214  0.4368  0.4816
   98OSM   C11S 9770   5.318   4.424   9.514  0.4311 -0.4983 -0.6434
   98OSM   H11S 9771   5.408   4.487   9.525 -0.5723  1.4536 -2.7967
   98OSM   H11T 9772   5.234   4.489   9.483  0.7582 -0.6448 -1.9040
   98OSM   C12S 9773   5.355   4.330   9.397  0.2735  0.0848  0.8528
   98OSM   H12S 9774   5.300   4.234   9.401 -1.2579  0.8844 -0.1738
   98OSM   H12T 9775   5.465   4.316   9.402  0.0785 -1.2898  1.7543
   98OSM   C13S 9776   5.336   4.390   9.258  0.8882 -0.4924  0.2118
   98OSM   H13S 9777   5.404   4.479   9.253 -0.2252  0.3187 -1.5786
   98OSM   H13T 9778   5.242   4.441   9.227  1.6237  0.3471 -0.7188
   98OSM   C14S 9779   5.353   4.285   9.149 -0.1095 -0.7792 -0.0162
   98OSM   H14S 9780   5.324   4.322   9.048  0.6464 -1.6681 -0.5817
   98OSM   H14T 9781   5.281   4.203   9.170 -1.2700  0.0027 -0.8179
   98OSM   C15S 9782   5.495   4.231   9.136 -0.2383  0.9693 -0.9336
   98OSM   H15S 9783   5.529   4.193   9.234 -1.7823 -3.2898 -1.8486
   98OSM   H15T 9784   5.561   4.320   9.121 -0.6268  1.6431  1.0965
   98OSM   C16S 9785   5.508   4.127   9.030 -0.4110  0.4663  0.5703
   98OSM   H16S 9786   5.429   4.051   9.053 -1.0213  1.1650  0.8098
   98OSM   H16T 9787   5.599   4.067   9.051 -0.2615  0.9775  1.4206
   98OSM   C17S 9788   5.511   4.169   8.885  0.4237  0.3337 -0.5598
   98OSM   H17S 9789   5.597   4.234   8.861 -0.1145  0.3705 -2.5708
   98OSM   H17T 9790   5.418   4.226   8.863 -0.4879 -0.5744  0.7520
   98OSM   C18S 9791   5.517   4.051   8.781 -0.3685  0.3462 -0.0110
   98OSM   H18S 9792   5.417   4.018   8.744 -0.3337  1.4012 -1.1179
   98OSM   H18T 9793   5.562   3.958   8.822 -1.0560 -0.2997 -0.6907
   98OSM   H18U 9794   5.589   4.063   8.697  2.1869 -2.3118  1.6195
   98OSM    C1F 9795   5.064   4.343  10.572 -0.0609 -0.0089  0.2323
   98OSM     OF 9796   4.962   4.383  10.628  0.0584 -0.6827  0.0363
   98OSM    C2F 9797   5.096   4.198  10.562  0.3244 -0.5063 -0.0245
   98OSM    H2F 9798   5.067   4.159  10.662 -4.8387  0.2821 -0.9669
   98OSM    H2G 9799   5.206   4.187  10.550  0.3016 -1.1808  0.3419
   98OSM    C3F 9800   5.017   4.109  10.452 -0.0818 -0.5887 -0.4794
   98OSM    H3F 9801   4.911   4.088  10.480  0.1081 -0.7217  0.1522
   98OSM    H3G 9802   5.082   4.020  10.447  1.6389  0.5784  0.2572
   98OSM    C4F 9803   5.012   4.185  10.319 -0.5065  0.3094 -0.1642
   98OSM    H4F 9804   5.108   4.239  10.301 -2.4665  3.8121 -1.1439
   98OSM    H4G 9805   4.950   4.278  10.323  2.0523  2.2152 -1.6953
   98OSM    C5F 9806   4.972   4.100  10.203 -0.6090  0.7304 -0.2866
   98OSM    H5F 9807   4.867   4.075  10.227 -0.8398  0.5372 -1.4476
   98OSM    H5G 9808   5.043   4.016  10.215 -0.8988  0.5199 -0.0501
   98OSM    C6F 9809   4.975   4.170  10.065 -0.2704  0.4030  0.3669
   98OSM    H6F 9810   5.083   4.194  10.050  0.4419 -1.1369  2.5364
   98OSM    H6G 9811   4.920   4.266  10.070  0.1408  0.6717 -0.1373
   98OSM    C7F 9812   4.920   4.081   9.951 -0.2379 -0.7259  0.4822
   98OSM    H7F 9813   4.917   4.152   9.866  0.4140 -1.0442  0.1873
   98OSM    H7G 9814   4.814   4.050   9.964 -0.5574 -0.2573 -0.8300
   98OSM    C8F 9815   5.014   3.967   9.900 -0.1678  0.0472 -0.8599
   98OSM    H8F 9816   5.069   3.922   9.985 -1.2095 -1.8557 -1.1056
   98OSM    H8G 9817   5.085   4.013   9.828 -1.4503  0.0491 -2.1841
   98OSM    C9F 9818   4.950   3.846   9.844  0.2305 -0.1053  0.1791
   98OSM    H9F 9819   4.914   3.769   9.915  0.5819 -2.0446 -1.6426
   98OSM   C10F 9820   4.925   3.826   9.716 -0.3029 -0.4058 -0.2667
   98OSM   H10F 9821   4.862   3.743   9.681 -1.5866  0.3590  0.1393
   98OSM   C11F 9822   4.966   3.913   9.604  0.1154 -0.1687  0.0956
   98OSM   H11F 9823   4.997   4.014   9.639  1.3975 -0.2157 -0.8081
   98OSM   H11G 9824   4.891   3.930   9.524  1.7055  1.7090 -1.1159
   98OSM   C12F 9825   5.079   3.843   9.536 -0.3648 -0.0550 -0.6597
   98OSM   H12F 9826   5.051   3.757   9.471  0.9954  0.1978 -1.6214
   98OSM   H12G 9827   5.156   3.808   9.608  4.0087  1.6278 -4.0516
   98OSM   C13F 9828   5.148   3.946   9.451  0.4090 -0.8253  0.2889
   98OSM   H13F 9829   5.205   4.020   9.511 -2.0988  1.8056 -0.3337
   98OSM   H13G 9830   5.077   4.013   9.396 -2.0471  0.4496  4.5534
   98OSM   C14F 9831   5.248   3.894   9.345  0.9061  0.4335  0.3099
   98OSM   H14F 9832   5.309   3.811   9.387  0.4286 -0.9015 -1.4860
   98OSM   H14G 9833   5.320   3.978   9.330  0.4135  0.7646 -0.2529
   98OSM   C15F 9834   5.179   3.844   9.223 -0.0438  0.7638 -0.1705
   98OSM   H15F 9835   5.113   3.919   9.173 -0.2846 -0.2559 -1.4359
   98OSM   H15G 9836   5.123   3.753   9.251  0.1296  0.6745 -0.1110
   98OSM   C16F 9837   5.288   3.798   9.121 -0.2518  0.8732  0.0911
   98OSM   H16F 9838   5.328   3.702   9.160 -3.5049 -1.6357 -2.2148
   98OSM   H16G 9839   5.369   3.874   9.116 -0.6362  1.4378  1.6048
   98OSM   C17F 9840   5.237   3.775   8.974 -0.5923  0.0813  0.5707
   98OSM   H17F 9841   5.314   3.787   8.895  0.2825 -1.6269  1.1061
   98OSM   H17G 9842   5.174   3.865   8.959 -1.3545 -0.7117 -1.2655
   98OSM   C18F 9843   5.140   3.656   8.949 -0.5240 -0.2504 -0.1271
   98OSM   H18F 9844   5.190   3.557   8.946  0.2175  0.1365 -1.3630
   98OSM   H18G 9845   5.094   3.670   8.849  1.5918  0.1618 -1.1041
   98OSM   H18H 9846   5.067   3.662   9.033 -0.3461  0.6920 -0.0244
   99OSM      N 9847   2.143   4.581  11.024  0.3155  0.0017 -0.2585
   99OSM    C15 9848   2.270   4.665  11.016  0.1412  0.2193 -0.4760
   99OSM   H15A 9849   2.228   4.763  10.997  1.4207  0.5552 -1.7097
   99OSM   H15B 9850   2.332   4.626  10.937  1.3156  1.0574 -0.0067
   99OSM   H15C 9851   2.338   4.660  11.100 -0.5528  0.0322  0.0842
   99OSM    C14 9852   2.186   4.448  11.062  0.3415  1.1209 -0.5434
   99OSM   H14A 9853   2.115   4.372  11.031  1.0861  0.4393 -0.6380
   99OSM   H14B 9854   2.214   4.442  11.166  0.0520  0.7346 -0.4828
   99OSM   H14C 9855   2.277   4.421  11.011 -0.2318  2.4752 -2.3797
   99OSM    C13 9856   2.043   4.635  11.125  0.1920  0.3221 -0.2884
   99OSM   H13A 9857   2.070   4.620  11.229 -0.8357  0.8502  0.0636
   99OSM   H13B 9858   1.950   4.583  11.108 -0.9503  2.2230 -0.2170
   99OSM   H13C 9859   2.037   4.740  11.098 -0.7211 -0.0647 -1.6946
   99OSM    C12 9860   2.076   4.568  10.888 -0.2108  0.2951  0.1563
   99OSM   H12A 9861   2.143   4.516  10.821 -0.3594  1.8239 -1.2605
   99OSM   H12B 9862   2.063   4.665  10.841  0.4971  0.7108  0.7962
   99OSM    C11 9863   1.953   4.483  10.863 -0.1110  0.3483 -0.3042
   99OSM   H11A 9864   1.921   4.498  10.757 -1.4165  0.7632  0.1300
   99OSM   H11B 9865   1.868   4.510  10.928 -0.0395  0.5060 -0.2740
   99OSM      P 9866   1.888   4.232  10.838 -0.0164 -0.0854  0.2381
   99OSM    O13 9867   1.962   4.105  10.853 -0.4271  0.7352 -0.4856
   99OSM    O14 9868   1.759   4.244  10.900  0.6358  0.1358 -0.9896
   99OSM    O11 9869   1.875   4.257  10.680  0.1459  0.2099 -0.0139
   99OSM    O12 9870   1.979   4.350  10.886  0.0132  0.2525  0.4246
   99OSM    C1S 9871   1.985   4.265  10.601  0.2857  0.8585  0.1545
   99OSM    H1S 9872   2.046   4.172  10.604 -0.8302  0.1433  1.1657
   99OSM    H1T 9873   2.047   4.355  10.622  0.5840  0.7147 -0.0973
   99OSM     NF 9874   2.043   4.238  10.355 -0.3107 -0.1328  1.1452
   99OSM    HNF 9875   2.105   4.307  10.319  1.2933 -1.1776  1.7805
   99OSM    C2S 9876   1.936   4.284  10.451 -0.8667 -0.3519 -0.0611
   99OSM    H2S 9877   1.853   4.211  10.440 -1.2343 -0.1802  1.3175
   99OSM    C3S 9878   1.886   4.431  10.428 -0.1661  0.2268 -0.4914
   99OSM    H3S 9879   1.977   4.493  10.440 -0.3809  0.4871 -0.1778
   99OSM     O3 9880   1.803   4.473  10.536 -0.0862 -0.0740  0.2640
   99OSM    HO3 9881   1.816   4.402  10.599 -0.0630  1.2006  1.7603
   99OSM    C4S 9882   1.831   4.443  10.285  0.0681 -0.2051  0.0043
   99OSM    H4S 9883   1.898   4.462  10.200  0.0372  0.9795  0.2298
   99OSM    C5S 9884   1.700   4.436  10.253 -0.0642  0.3080 -0.3606
   99OSM    H5S 9885   1.617   4.440  10.325 -0.4422 -0.8862 -0.7098
   99OSM    C6S 9886   1.649   4.443  10.113 -0.4405 -0.2763 -0.0787
   99OSM    H6S 9887   1.619   4.549  10.097  1.0178  0.1282 -0.2858
   99OSM    H6T 9888   1.562   4.375  10.104 -0.4250 -0.5155  1.3050
   99OSM    C7S 9889   1.747   4.410  10.004 -0.7200 -0.7965 -0.9693
   99OSM    H7S 9890   1.807   4.319  10.024  1.0692  0.8261  1.6016
   99OSM    H7T 9891   1.815   4.497   9.996 -2.8976  1.2796  1.2358
   99OSM    C8S 9892   1.685   4.383   9.871  0.8413  0.9288 -0.7324
   99OSM    H8S 9893   1.600   4.313   9.887  2.0663 -0.5860 -0.6334
   99OSM    H8T 9894   1.759   4.321   9.815  0.7210  0.4472 -0.3639
   99OSM    C9S 9895   1.647   4.507   9.788 -0.5624  0.2734 -0.7942
   99OSM    H9S 9896   1.733   4.565   9.749  1.0171 -0.9121  0.7914
   99OSM    H9T 9897   1.604   4.569   9.870  0.4701  0.1057 -0.1063
   99OSM   C10S 9898   1.553   4.478   9.672 -0.4119  0.4234  0.1685
   99OSM   H10S 9899   1.515   4.575   9.634  0.5561  0.2075 -1.4382
   99OSM   H10T 9900   1.463   4.427   9.713 -1.5650  1.2548 -1.2409
   99OSM   C11S 9901   1.622   4.383   9.559 -0.8416 -0.8000  0.3209
   99OSM   H11S 9902   1.666   4.293   9.608 -0.4768 -0.5928  0.3790
   99OSM   H11T 9903   1.704   4.445   9.518  0.1132 -2.3771 -0.2816
   99OSM   C12S 9904   1.530   4.329   9.449  0.4965  0.3888  0.2360
   99OSM   H12S 9905   1.465   4.250   9.492  0.8218  0.0529  0.1136
   99OSM   H12T 9906   1.455   4.401   9.408  0.8226 -1.0787 -3.3739
   99OSM   C13S 9907   1.602   4.253   9.331 -0.6620 -0.8287 -0.3245
   99OSM   H13S 9908   1.636   4.154   9.368 -0.0288 -1.1577 -1.6981
   99OSM   H13T 9909   1.688   4.311   9.291  0.6075 -2.1683  0.3833
   99OSM   C14S 9910   1.496   4.231   9.225  0.3757 -0.4468  0.2682
   99OSM   H14S 9911   1.399   4.213   9.276  0.1377  0.6259  0.2215
   99OSM   H14T 9912   1.515   4.144   9.158  0.4217  0.1621 -0.5322
   99OSM   C15S 9913   1.493   4.340   9.105 -0.4973  0.2552 -0.6322
   99OSM   H15S 9914   1.454   4.438   9.138  1.6746  2.2686 -3.5126
   99OSM   H15T 9915   1.408   4.318   9.037 -0.7582 -0.5565 -0.0520
   99OSM   C16S 9916   1.619   4.358   9.013  0.0970  0.1544 -0.4392
   99OSM   H16S 9917   1.661   4.255   9.005  2.6794  0.8816  2.1313
   99OSM   H16T 9918   1.697   4.411   9.071  0.3396  0.4152 -0.9974
   99OSM   C17S 9919   1.605   4.428   8.877 -0.2845 -0.4474 -0.0665
   99OSM   H17S 9920   1.710   4.421   8.843 -0.0147  0.9055  0.4220
   99OSM   H17T 9921   1.582   4.534   8.900  0.2593 -0.6017  1.2628
   99OSM   C18S 9922   1.505   4.369   8.782  0.4693  0.1916  0.1971
   99OSM   H18S 9923   1.536   4.407   8.682  1.7821 -0.3391  0.3732
   99OSM   H18T 9924   1.398   4.388   8.801  0.3285 -1.5334  1.3837
   99OSM   H18U 9925   1.520   4.259   8.787 -0.7885 -0.0479 -0.7235
   99OSM    C1F 9926   2.073   4.109  10.331 -0.4543  0.0102  0.4771
   99OSM     OF 9927   2.009   4.023  10.395  0.2924  0.3104  0.1108
   99OSM    C2F 9928   2.187   4.084  10.240  0.1214  0.2023  0.3702
   99OSM    H2F 9929   2.279   4.059  10.297  0.4592  1.0439  0.2126
   99OSM    H2G 9930   2.201   4.171  10.171  1.6456 -2.0914 -2.4020
   99OSM    C3F 9931   2.153   3.965  10.146  0.3591  0.0094 -0.5405
   99OSM    H3F 9932   2.250   3.925  10.109  0.9688  1.0004 -0.0515
   99OSM    H3G 9933   2.109   3.879  10.200 -0.2172 -0.9508 -2.4233
   99OSM    C4F 9934   2.056   3.985  10.035  0.6390 -0.1165  0.5019
   99OSM    H4F 9935   1.966   4.037  10.074  2.1975  2.4621  0.8812
   99OSM    H4G 9936   2.030   3.891   9.983  2.6555  0.4729 -1.7189
   99OSM    C5F 9937   2.106   4.064   9.913 -1.2899  0.0421  0.0679
   99OSM    H5F 9938   2.190   4.018   9.856 -1.5984  1.5604 -1.6893
   99OSM    H5G 9939   2.121   4.170   9.943  0.1732 -1.3548  5.4546
   99OSM    C6F 9940   1.991   4.062   9.816  0.4879 -0.2056 -0.1120
   99OSM    H6F 9941   1.906   4.079   9.886  0.6451 -0.0742  0.0486
   99OSM    H6G 9942   1.960   3.968   9.767 -3.0359  0.3904  0.6889
   99OSM    C7F 9943   2.012   4.181   9.711  0.0244  0.0713  0.8181
   99OSM    H7F 9944   2.035   4.270   9.774 -3.6496  1.6700  0.1786
   99OSM    H7G 9945   1.912   4.207   9.669  0.9381 -0.5392 -1.9920
   99OSM    C8F 9946   2.117   4.168   9.605  0.0932 -0.3426 -0.3649
   99OSM    H8F 9947   2.208   4.143   9.664 -1.1866 -2.1221  0.9816
   99OSM    H8G 9948   2.127   4.268   9.559 -0.2743 -0.8741 -1.6304
   99OSM    C9F 9949   2.088   4.055   9.508  0.3837  0.0059  0.4896
   99OSM    H9F 9950   2.124   3.959   9.547 -0.8666  0.3400  2.6494
   99OSM   C10F 9951   2.029   4.055   9.384 -0.4332  0.0850  0.1365
   99OSM   H10F 9952   2.026   3.953   9.341 -2.5551 -0.6000  1.7572
   99OSM   C11F 9953   1.971   4.168   9.298  0.6784 -0.0653  0.0321
   99OSM   H11F 9954   1.968   4.265   9.351  1.3356  1.5186 -2.6181
   99OSM   H11G 9955   1.866   4.142   9.271 -0.1128  2.5461  0.3303
   99OSM   C12F 9956   2.053   4.210   9.169  0.8782 -0.3574 -0.1663
   99OSM   H12F 9957   2.063   4.126   9.097 -0.6049  0.8585 -1.9087
   99OSM   H12G 9958   2.157   4.232   9.203  0.3208 -1.0311  2.1078
   99OSM   C13F 9959   1.994   4.335   9.086 -0.3549  0.2946 -0.7131
   99OSM   H13F 9960   2.015   4.427   9.145 -1.1224 -0.6009  1.0197
   99OSM   H13G 9961   1.888   4.324   9.056 -0.5174 -0.2695  0.0287
   99OSM   C14F 9962   2.068   4.356   8.950 -0.5306 -0.3074 -0.2944
   99OSM   H14F 9963   2.173   4.388   8.965 -0.4275  0.9664 -3.0714
   99OSM   H14G 9964   2.023   4.446   8.902  0.2123 -0.5796 -1.5271
   99OSM   C15F 9965   2.068   4.233   8.861  0.4922 -0.6986  0.6757
   99OSM   H15F 9966   1.969   4.187   8.840  0.6077 -0.3626 -0.6852
   99OSM   H15G 9967   2.147   4.166   8.902 -0.0669 -1.0795  1.1569
   99OSM   C16F 9968   2.117   4.270   8.722 -0.1652  0.2676  0.5814
   99OSM   H16F 9969   2.204   4.338   8.731 -0.7953  1.0485  0.9001
   99OSM   H16G 9970   2.038   4.335   8.679  0.8306  0.7082 -0.6346
   99OSM   C17F 9971   2.152   4.152   8.619  0.4897 -0.2923  0.2728
   99OSM   H17F 9972   2.199   4.069   8.677  0.6495 -0.8075 -0.5817
   99OSM   H17G 9973   2.234   4.185   8.551 -0.0739  0.8192  0.1215
   99OSM   C18F 9974   2.032   4.106   8.532 -0.5470  0.0178 -0.7830
   99OSM   H18F 9975   2.066   4.023   8.467 -0.4768 -0.4436 -0.1671
   99OSM   H18G 9976   1.999   4.188   8.465 -2.0307  1.3937  1.4810
   99OSM   H18H 9977   1.944   4.084   8.596  0.7897  0.5928  1.3858
  100OSM      N 9978   2.865   5.083  10.895 -0.0604 -0.1267  0.0281
  100OSM    C15 9979   3.013   5.075  10.909 -0.2597 -0.0077 -0.1474
  100OSM   H15A 9980   3.061   5.136  10.835 -1.1909  2.8211  1.4158
  100OSM   H15B 9981   3.046   4.973  10.912 -2.3695 -0.7698 -0.8887
  100OSM   H15C 9982   3.036   5.116  11.006  0.2503 -1.1577  0.2343
  100OSM    C14 9983   2.799   4.990  10.995 -0.1718 -0.1024  0.1286
  100OSM   H14A 9984   2.853   4.897  10.990  0.3095  0.1401  0.7297
  100OSM   H14B 9985   2.695   4.978  10.970  0.5259 -1.5466 -2.4300
  100OSM   H14C 9986   2.815   5.031  11.094  0.4151  0.4407 -0.1796
  100OSM    C13 9987   2.813   5.222  10.919 -0.4932  0.1923 -0.2821
  100OSM   H13A 9988   2.870   5.293  10.860  0.6590  0.3732  1.0073
  100OSM   H13B 9989   2.824   5.258  11.020 -0.7323  3.2337 -1.2073
  100OSM   H13C 9990   2.715   5.225  10.873 -1.1888 -1.7211  0.9746
  100OSM    C12 9991   2.835   5.049  10.750  0.7186 -0.1181  0.4545
  100OSM   H12A 9992   2.843   4.942  10.737 -2.2414 -0.3414 -0.1664
  100OSM   H12B 9993   2.913   5.098  10.692  0.9300  0.9109  1.5814
  100OSM    C11 9994   2.700   5.104  10.701 -0.4065 -0.1715 -0.2300
  100OSM   H11A 9995   2.619   5.088  10.775 -2.1802  3.1035 -1.2779
  100OSM   H11B 9996   2.675   5.042  10.613 -0.6960 -0.8368  0.3150
  100OSM      P 9997   2.758   5.288  10.512 -0.2561  0.1394 -0.8000
  100OSM    O13 9998   2.705   5.424  10.488 -0.5209 -0.2563  0.3094
  100OSM    O14 9999   2.906   5.270  10.503 -0.4226 -0.4521 -0.6741
  100OSM    O1110000   2.668   5.205  10.408 -0.3640  0.4820 -0.0226
  100OSM    O1210001   2.710   5.239  10.652  0.0847  0.1543  0.1953
  100OSM    C1S10002   2.528   5.211  10.405 -0.5529  0.2169 -0.6912
  100OSM    H1S10003   2.502   5.318  10.421  1.3702  0.3057  2.8709
  100OSM    H1T10004   2.486   5.148  10.486 -2.3000  1.9575 -0.1467
  100OSM     NF10005   2.336   5.174  10.253  0.2552 -0.3092 -0.4029
  100OSM    HNF10006   2.275   5.094  10.256 -0.5946  0.3563  1.2472
  100OSM    C2S10007   2.477   5.150  10.272 -0.0008 -0.2295  0.2700
  100OSM    H2S10008   2.528   5.206  10.190 -0.8798 -0.4894 -0.4735
  100OSM    C3S10009   2.522   5.000  10.270 -0.0995  0.8682  0.2398
  100OSM    H3S10010   2.454   4.946  10.339  0.6048  0.2528  0.4664
  100OSM     O310011   2.654   4.962  10.311  0.3655  0.2089  0.0387
  100OSM    HO310012   2.692   5.046  10.337  0.2982  1.0846 -2.4514
  100OSM    C4S10013   2.495   4.934  10.138  0.1462 -0.5005 -0.2344
  100OSM    H4S10014   2.389   4.909  10.122 -0.6753  2.0663  0.6818
  100OSM    C5S10015   2.584   4.910  10.038 -0.1090 -0.2285  0.3265
  100OSM    H5S10016   2.685   4.952  10.055 -0.5978  1.3805 -0.5800
  100OSM    C6S10017   2.567   4.845   9.902  0.6318 -0.0802 -0.2071
  100OSM    H6S10018   2.544   4.736   9.902 -0.2020  0.0870  0.6174
  100OSM    H6T10019   2.663   4.855   9.847  0.4075 -0.2637 -0.6365
  100OSM    C7S10020   2.444   4.892   9.812 -0.3997 -0.6627  0.7010
  100OSM    H7S10021   2.350   4.873   9.870 -1.4490 -0.5710 -0.9167
  100OSM    H7T10022   2.435   4.837   9.717 -1.3042 -0.1831  0.4913
  100OSM    C8S10023   2.460   5.036   9.758 -0.0110 -0.5215 -0.4549
  100OSM    H8S10024   2.569   5.056   9.746  0.2902  0.5129  3.0223
  100OSM    H8T10025   2.429   5.113   9.832 -1.3306 -1.0448 -0.4296
  100OSM    C9S10026   2.384   5.073   9.629 -0.0125  0.3151 -0.1279
  100OSM    H9S10027   2.425   5.012   9.546 -2.5754 -1.4676 -0.1999
  100OSM    H9T10028   2.401   5.179   9.603  1.4130  1.0623  3.3042
  100OSM   C10S10029   2.231   5.042   9.636 -0.0260  0.1910  0.8373
  100OSM   H10S10030   2.183   5.126   9.693 -1.3490  1.4426 -1.9304
  100OSM   H10T10031   2.212   4.944   9.683  2.4883 -1.1005 -0.6516
  100OSM   C11S10032   2.178   5.036   9.492  0.3808 -0.6018 -0.6303
  100OSM   H11S10033   2.070   5.013   9.508  0.7625 -2.9408 -1.0441
  100OSM   H11T10034   2.218   4.955   9.428  1.7471  0.4954 -1.2073
  100OSM   C12S10035   2.191   5.163   9.410 -0.0790 -0.5154 -0.8787
  100OSM   H12S10036   2.296   5.198   9.419 -1.4719  3.9515  1.5777
  100OSM   H12T10037   2.129   5.245   9.453 -0.0144 -0.9750  0.1061
  100OSM   C13S10038   2.165   5.145   9.261 -0.6642 -0.0122  0.5634
  100OSM   H13S10039   2.059   5.125   9.236  0.0541 -3.2315 -0.4663
  100OSM   H13T10040   2.205   5.049   9.220 -2.3668 -0.2842 -0.5414
  100OSM   C14S10041   2.213   5.272   9.173  0.1213  0.0125 -0.1555
  100OSM   H14S10042   2.317   5.257   9.138 -0.1977 -2.0360 -0.3747
  100OSM   H14T10043   2.194   5.371   9.220  1.7954  1.0440 -1.5508
  100OSM   C15S10044   2.133   5.262   9.043  0.2338  0.0532 -0.1533
  100OSM   H15S10045   2.025   5.267   9.065  0.4605 -0.6742  1.2196
  100OSM   H15T10046   2.155   5.162   8.998 -0.9184  0.4868 -1.7792
  100OSM   C16S10047   2.168   5.370   8.945  0.3085 -0.3592 -0.1080
  100OSM   H16S10048   2.278   5.358   8.941  0.3903  0.1067  0.5624
  100OSM   H16T10049   2.135   5.464   8.994  0.7678 -0.0122 -0.4666
  100OSM   C17S10050   2.097   5.362   8.808 -0.5009 -0.1020  0.1377
  100OSM   H17S10051   1.991   5.328   8.815 -1.5831  2.3779 -2.3161
  100OSM   H17T10052   2.157   5.300   8.739 -1.9437  0.0096 -1.2657
  100OSM   C18S10053   2.101   5.495   8.735  0.1422  0.5216  0.3397
  100OSM   H18S10054   2.054   5.484   8.635  0.3993 -0.4563  0.3149
  100OSM   H18T10055   2.209   5.516   8.720  0.1630 -0.0530 -0.3650
  100OSM   H18U10056   2.060   5.582   8.790  1.5704  1.2400  0.2959
  100OSM    C1F10057   2.279   5.296  10.240  0.2372  0.2012  0.2240
  100OSM     OF10058   2.346   5.399  10.252  0.3970 -0.3464 -0.6343
  100OSM    C2F10059   2.133   5.302  10.197 -0.0846 -0.1434 -0.1671
  100OSM    H2F10060   2.056   5.337  10.269  0.2193  0.9841 -0.3796
  100OSM    H2G10061   2.095   5.199  10.177 -0.6836  0.1289 -0.4614
  100OSM    C3F10062   2.120   5.397  10.076  0.6518  0.2147 -0.4690
  100OSM    H3F10063   2.156   5.501  10.091  1.7883 -0.3875  1.2542
  100OSM    H3G10064   2.015   5.398  10.040  0.7458 -1.8564 -0.9223
  100OSM    C4F10065   2.194   5.341   9.956  0.6880  0.2677  0.4445
  100OSM    H4F10066   2.148   5.248   9.915 -1.7005  1.9827 -1.0218
  100OSM    H4G10067   2.298   5.321   9.988  1.0897  0.3156 -0.7878
  100OSM    C5F10068   2.208   5.443   9.849 -0.0273  0.4539  0.4780
  100OSM    H5F10069   2.269   5.402   9.766  0.7943 -0.9772  1.7388
  100OSM    H5G10070   2.257   5.529   9.900  0.8836  0.1251  0.1735
  100OSM    C6F10071   2.083   5.502   9.787 -0.9209 -0.1920  0.2379
  100OSM    H6F10072   2.110   5.572   9.704  2.1057 -2.2324 -0.6789
  100OSM    H6G10073   2.051   5.581   9.859  1.1922  3.1305 -2.1378
  100OSM    C7F10074   1.983   5.406   9.732 -0.5380  0.5271 -0.3462
  100OSM    H7F10075   1.957   5.333   9.812  1.4493 -0.0573 -0.1931
  100OSM    H7G10076   2.035   5.346   9.655  1.1876  2.8403 -1.0997
  100OSM    C8F10077   1.855   5.471   9.680 -0.3316 -0.3961  0.4660
  100OSM    H8F10078   1.821   5.552   9.749 -1.0354  1.3687 -1.8079
  100OSM    H8G10079   1.787   5.384   9.680 -0.8998 -0.0607 -2.4552
  100OSM    C9F10080   1.883   5.528   9.545  0.4431 -0.3220 -0.0867
  100OSM    H9F10081   1.959   5.608   9.553 -0.2180  0.4796 -1.4025
  100OSM   C10F10082   1.822   5.492   9.426  0.4608  0.4466 -0.2425
  100OSM   H10F10083   1.858   5.527   9.328  0.0678  0.2336 -0.4649
  100OSM   C11F10084   1.722   5.380   9.414 -0.1321 -0.2975 -0.6241
  100OSM   H11F10085   1.633   5.422   9.362  0.0457 -0.2883 -0.9204
  100OSM   H11G10086   1.682   5.354   9.515  1.1091 -0.6637 -0.2147
  100OSM   C12F10087   1.779   5.251   9.348  0.4012  0.6286 -0.4716
  100OSM   H12F10088   1.704   5.171   9.367  0.9746  0.3333  0.6335
  100OSM   H12G10089   1.868   5.211   9.401 -0.3980 -0.8223 -0.1568
  100OSM   C13F10090   1.797   5.241   9.192  0.2684 -0.0258 -1.7066
  100OSM   H13F10091   1.828   5.136   9.173 -3.0262 -1.6150  0.5726
  100OSM   H13G10092   1.880   5.313   9.179  2.0603 -1.9694 -1.4552
  100OSM   C14F10093   1.685   5.283   9.099 -0.6587 -0.1398 -0.3593
  100OSM   H14F10094   1.646   5.379   9.141  0.6146  0.7825 -1.2056
  100OSM   H14G10095   1.611   5.201   9.098  2.3116 -3.0103  0.3789
  100OSM   C15F10096   1.743   5.311   8.957  0.2765  0.2684  0.2883
  100OSM   H15F10097   1.785   5.212   8.929 -0.7278 -0.4396  1.1992
  100OSM   H15G10098   1.826   5.383   8.975  0.8460  0.3788 -2.3934
  100OSM   C16F10099   1.634   5.359   8.867  0.1642  0.1283  0.2682
  100OSM   H16F10100   1.601   5.456   8.911  2.4859  1.8154 -1.4456
  100OSM   H16G10101   1.545   5.293   8.861  0.8085 -0.5969 -2.5992
  100OSM   C17F10102   1.684   5.387   8.727  0.0310 -0.4275 -0.1804
  100OSM   H17F10103   1.736   5.294   8.692 -0.9959 -0.7137 -0.9647
  100OSM   H17G10104   1.758   5.470   8.730  0.2888 -0.6617  0.1319
  100OSM   C18F10105   1.571   5.434   8.631 -0.0658 -0.7610  0.0320
  100OSM   H18F10106   1.624   5.461   8.537  1.4221  2.2334  1.6082
  100OSM   H18G10107   1.534   5.533   8.665  2.0404  1.1084 -2.6485
  100OSM   H18H10108   1.490   5.361   8.609 -1.0036  0.4279 -0.5990
  101OSM      N10109   5.342   1.041  10.845  0.0741  0.5548  0.1980
  101OSM    C1510110   5.337   0.892  10.867 -0.1953 -0.1501  0.5088
  101OSM   H15A10111   5.247   0.882  10.924 -0.8037 -0.4425 -0.4757
  101OSM   H15B10112   5.423   0.849  10.916 -0.4856 -0.9247  0.3484
  101OSM   H15C10113   5.314   0.841  10.774 -1.8121 -1.8851  1.7987
  101OSM    C1410114   5.245   1.075  10.735  0.6820 -0.5157  0.5265
  101OSM   H14A10115   5.260   1.021  10.642 -0.8418 -1.0297  0.5503
  101OSM   H14B10116   5.245   1.181  10.716  0.1053 -0.4591  0.8277
  101OSM   H14C10117   5.145   1.049  10.766  0.3173  1.5014  1.1855
  101OSM    C1310118   5.303   1.114  10.963 -0.4340 -0.8138 -0.5527
  101OSM   H13A10119   5.324   1.220  10.955  0.0622 -0.7265  1.3024
  101OSM   H13B10120   5.366   1.080  11.044  1.6295 -0.8727 -2.0981
  101OSM   H13C10121   5.203   1.106  11.002 -0.1452 -1.2650  0.1080
  101OSM    C1210122   5.487   1.088  10.810  0.1240  0.1534  0.6364
  101OSM   H12A10123   5.482   1.194  10.788  0.9863  0.2167  0.7444
  101OSM   H12B10124   5.531   1.034  10.728 -1.7107 -1.3451  0.5574
  101OSM    C1110125   5.588   1.082  10.926  0.4756  0.3217 -0.1549
  101OSM   H11A10126   5.557   1.146  11.012 -1.3210 -1.0804  0.3056
  101OSM   H11B10127   5.680   1.129  10.886  1.4027  0.0594  1.5532
  101OSM      P10128   5.735   0.870  10.923  0.3898 -0.1773 -0.5119
  101OSM    O1310129   5.857   0.939  10.984  0.2345 -0.0987  0.3029
  101OSM    O1410130   5.731   0.727  10.953  0.3295  0.7716  0.7747
  101OSM    O1110131   5.738   0.895  10.766  0.6123  0.4030 -0.1299
  101OSM    O1210132   5.607   0.945  10.974  0.3080 -0.2533  0.3644
  101OSM    C1S10133   5.654   0.830  10.677  0.1532  0.4133  0.4289
  101OSM    H1S10134   5.548   0.864  10.681 -0.2140 -0.6932  0.6008
  101OSM    H1T10135   5.651   0.721  10.697 -0.8528  0.0874 -1.3093
  101OSM     NF10136   5.592   0.872  10.432  0.3185  0.3045 -0.2610
  101OSM    HNF10137   5.582   0.794  10.371  0.9802  1.3631 -1.8051
  101OSM    C2S10138   5.703   0.858  10.530  0.6313 -0.0789  0.3055
  101OSM    H2S10139   5.752   0.957  10.543  0.1859  0.2895 -0.6908
  101OSM    C3S10140   5.811   0.751  10.497  0.2363  0.4216 -0.3519
  101OSM    H3S10141   5.752   0.662  10.465 -0.1596  0.8537 -0.8217
  101OSM     O310142   5.888   0.708  10.614 -0.6112 -0.0577  0.1083
  101OSM    HO310143   5.869   0.769  10.686 -2.3839  0.8654 -1.0762
  101OSM    C4S10144   5.894   0.793  10.387 -0.4536 -0.4778 -0.0886
  101OSM    H4S10145   5.923   0.899  10.380  1.0447 -0.9552 -2.2925
  101OSM    C5S10146   5.935   0.725  10.280  0.4098 -0.1383  0.6297
  101OSM    H5S10147   5.909   0.619  10.267 -2.4165  0.4373  1.0742
  101OSM    C6S10148   6.024   0.778  10.168 -0.3941 -0.2729  0.0755
  101OSM    H6S10149   6.132   0.754  10.176  0.0196  1.2444 -0.6590
  101OSM    H6T10150   6.033   0.888  10.169 -0.7679 -0.2214  2.8031
  101OSM    C7S10151   5.966   0.720  10.040 -0.0438  0.0310  0.6262
  101OSM    H7S10152   5.861   0.755  10.034 -0.6486 -1.8660 -1.2014
  101OSM    H7T10153   5.962   0.609  10.045 -1.8114  0.0435  0.1843
  101OSM    C8S10154   6.032   0.777   9.910 -0.5252 -0.6439  0.5898
  101OSM    H8S10155   6.142   0.763   9.920 -0.1638 -0.1499 -1.9663
  101OSM    H8T10156   6.024   0.888   9.917  0.3188 -0.6996  3.3312
  101OSM    C9S10157   5.977   0.716   9.785 -0.0530  0.2424 -0.2897
  101OSM    H9S10158   5.874   0.753   9.770 -0.4244 -1.1073 -1.2800
  101OSM    H9T10159   5.964   0.605   9.783 -1.9599  0.4026  0.7813
  101OSM   C10S10160   6.054   0.758   9.661  0.6169  0.3426  0.2345
  101OSM   H10S10161   6.161   0.727   9.655  1.4211  2.5063  2.1837
  101OSM   H10T10162   6.064   0.868   9.654  1.2991  0.3366  1.0164
  101OSM   C11S10163   5.993   0.702   9.526  0.2627 -0.6172 -0.6416
  101OSM   H11S10164   5.885   0.725   9.524  0.3319 -0.2787 -2.4028
  101OSM   H11T10165   6.006   0.592   9.536  1.5596 -0.3670  0.9531
  101OSM   C12S10166   6.058   0.760   9.396  0.1495  0.2623  0.1678
  101OSM   H12S10167   6.167   0.743   9.387  0.2094  0.2824  0.8086
  101OSM   H12T10168   6.040   0.869   9.391  0.8064  0.3675  0.0703
  101OSM   C13S10169   5.998   0.689   9.278  0.0988  0.2007  0.6832
  101OSM   H13S10170   5.888   0.709   9.284 -0.1130 -1.3173  2.6228
  101OSM   H13T10171   6.014   0.579   9.281 -0.3950 -0.0041 -1.6301
  101OSM   C14S10172   6.052   0.732   9.140  0.3078 -0.2355 -0.2863
  101OSM   H14S10173   6.156   0.697   9.127  1.6272  3.5653 -1.2086
  101OSM   H14T10174   6.055   0.843   9.150  0.4849 -0.2730  0.0614
  101OSM   C15S10175   5.959   0.694   9.022  0.0450  0.4487  0.0045
  101OSM   H15S10176   5.855   0.704   9.059 -0.2129 -0.5426 -0.4060
  101OSM   H15T10177   5.963   0.587   8.990 -0.7982  1.1510 -2.7960
  101OSM   C16S10178   5.973   0.766   8.889  0.2118  0.7469 -0.8035
  101OSM   H16S10179   6.077   0.750   8.854  1.0333  0.3395  1.6276
  101OSM   H16T10180   5.958   0.875   8.909  0.3172  0.7431 -0.7021
  101OSM   C17S10181   5.876   0.724   8.785  0.3575  0.9467 -0.5844
  101OSM   H17S10182   5.848   0.802   8.710  1.5744  2.6927  0.7002
  101OSM   H17T10183   5.778   0.717   8.837  0.9240  2.2841  0.7176
  101OSM   C18S10184   5.926   0.600   8.713  0.2236 -0.7780  0.4481
  101OSM   H18S10185   5.944   0.516   8.783 -0.9221 -1.1294  0.3445
  101OSM   H18T10186   6.015   0.623   8.651 -1.0207  0.0121 -1.1368
  101OSM   H18U10187   5.853   0.574   8.633 -1.0504  3.4055 -0.0160
  101OSM    C1F10188   5.495   0.957  10.412  0.0906 -0.6658  0.1158
  101OSM     OF10189   5.510   1.074  10.454 -0.2954  0.2087 -0.1198
  101OSM    C2F10190   5.365   0.896  10.365 -0.1970 -0.1801 -0.1391
  101OSM    H2F10191   5.311   0.853  10.452 -2.3644  0.0796 -1.2800
  101OSM    H2G10192   5.381   0.821  10.285  1.0711  0.4481 -0.5007
  101OSM    C3F10193   5.275   1.004  10.307 -0.7492  0.1317  0.1461
  101OSM    H3F10194   5.319   1.069  10.228  0.4580 -0.0826  0.6253
  101OSM    H3G10195   5.246   1.079  10.383  1.9452  1.6140 -0.1828
  101OSM    C4F10196   5.141   0.941  10.263  0.1681 -0.3605  0.3119
  101OSM    H4F10197   5.066   1.022  10.276  1.4734  0.9156  0.2271
  101OSM    H4G10198   5.118   0.863  10.338  1.6225 -1.0433  0.0965
  101OSM    C5F10199   5.120   0.891  10.110 -0.3581 -0.3837 -0.2519
  101OSM    H5F10200   5.014   0.863  10.090  0.0158 -1.5319 -0.7321
  101OSM    H5G10201   5.191   0.807  10.093  0.7960  0.6233 -0.5589
  101OSM    C6F10202   5.160   1.007  10.000 -0.4070  0.5556 -0.0658
  101OSM    H6F10203   5.105   1.100  10.027  0.4188  0.4876  2.0402
  101OSM    H6G10204   5.268   1.032  10.006  0.0129 -1.5294  2.5261
  101OSM    C7F10205   5.121   0.968   9.854  0.6513 -0.3586 -0.1383
  101OSM    H7F10206   5.012   0.943   9.851  0.8735 -1.3530 -0.1267
  101OSM    H7G10207   5.163   0.869   9.827 -0.4237 -0.1775 -2.8404
  101OSM    C8F10208   5.157   1.070   9.748  0.1524 -0.3791  0.1261
  101OSM    H8F10209   5.100   1.160   9.780 -0.1385 -1.3158  2.4488
  101OSM    H8G10210   5.115   1.032   9.653 -1.5314 -0.0969  0.7387
  101OSM    C9F10211   5.311   1.093   9.738 -0.1174  0.5169  0.4546
  101OSM    H9F10212   5.366   1.071   9.831 -0.7554  1.9346  1.1995
  101OSM   C10F10213   5.368   1.127   9.621 -1.3170  0.7325  0.1010
  101OSM   H10F10214   5.475   1.133   9.600 -1.6918 -1.3020 -2.9095
  101OSM   C11F10215   5.294   1.150   9.490  0.0920  0.7462  0.2648
  101OSM   H11F10216   5.195   1.196   9.513 -0.3449  0.7142 -1.4563
  101OSM   H11G10217   5.271   1.057   9.434  2.3772 -0.6141  1.4510
  101OSM   C12F10218   5.360   1.244   9.385  0.0307  0.6235  0.0315
  101OSM   H12F10219   5.445   1.196   9.334  0.5326  1.0026  0.4973
  101OSM   H12G10220   5.393   1.339   9.432 -2.6354  2.3847 -1.3922
  101OSM   C13F10221   5.272   1.295   9.272 -0.8737  0.5735 -1.1845
  101OSM   H13F10222   5.178   1.343   9.310 -0.8544  1.1078 -1.7933
  101OSM   H13G10223   5.243   1.220   9.195  0.4933  0.8198 -1.9711
  101OSM   C14F10224   5.346   1.397   9.189 -0.3214 -0.9686  0.2688
  101OSM   H14F10225   5.456   1.376   9.188 -0.0988 -0.0066 -2.0887
  101OSM   H14G10226   5.335   1.501   9.226 -1.5656 -0.6631 -0.8770
  101OSM   C15F10227   5.301   1.400   9.044  0.0123  0.4107  0.7616
  101OSM   H15F10228   5.282   1.299   9.001  1.2929  0.1334  0.7912
  101OSM   H15G10229   5.389   1.435   8.986 -1.2307 -0.1559 -1.5758
  101OSM   C16F10230   5.176   1.486   9.014  0.1270  0.5916 -0.6044
  101OSM   H16F10231   5.202   1.590   9.042 -0.8758  0.8334 -0.5208
  101OSM   H16G10232   5.096   1.452   9.084 -0.4246  0.1020 -1.4542
  101OSM   C17F10233   5.134   1.479   8.867  0.2588 -0.1468 -0.3011
  101OSM   H17F10234   5.090   1.377   8.862 -0.9108  0.1740  1.9566
  101OSM   H17G10235   5.221   1.488   8.799  0.1723 -1.1190 -0.5566
  101OSM   C18F10236   5.032   1.595   8.844 -0.3551  0.3146 -0.2272
  101OSM   H18F10237   5.081   1.694   8.857  0.0050  0.0868  0.1723
  101OSM   H18G10238   4.945   1.581   8.912  0.0269  2.6495  0.8526
  101OSM   H18H10239   5.005   1.593   8.736  1.6758  0.3140 -0.7818
  102OSM      N10240   2.294   1.453  11.099  0.3310  0.1662 -0.3640
  102OSM    C1510241   2.249   1.589  11.129  0.8197 -0.2721 -0.0228
  102OSM   H15A10242   2.148   1.608  11.096  0.6391 -0.7957  0.2142
  102OSM   H15B10243   2.316   1.652  11.073  2.5777 -1.1675  0.9697
  102OSM   H15C10244   2.242   1.601  11.236 -2.3079 -0.0359 -0.1632
  102OSM    C1410245   2.437   1.427  11.153  0.4094 -0.3445 -0.2926
  102OSM   H14A10246   2.424   1.453  11.257  0.1661 -1.2018 -0.0988
  102OSM   H14B10247   2.501   1.502  11.109  1.8618 -0.1136  2.0389
  102OSM   H14C10248   2.479   1.330  11.130  1.0743  0.0014 -0.5548
  102OSM    C1310249   2.204   1.358  11.164  0.4880  0.0711  0.0324
  102OSM   H13A10250   2.109   1.362  11.112 -0.1123  1.0208  1.1736
  102OSM   H13B10251   2.196   1.368  11.271 -0.4422 -0.5990  0.0276
  102OSM   H13C10252   2.246   1.261  11.142  2.1647  0.6319  0.5515
  102OSM    C1210253   2.293   1.420  10.957 -0.2030 -0.3622  0.1010
  102OSM   H12A10254   2.193   1.441  10.921 -0.8324 -1.6953  0.9619
  102OSM   H12B10255   2.317   1.315  10.949 -2.1662 -1.0127  1.7106
  102OSM    C1110256   2.385   1.492  10.853  0.3049  0.1071 -0.9114
  102OSM   H11A10257   2.375   1.447  10.752 -0.1343  0.8566 -1.2143
  102OSM   H11B10258   2.492   1.479  10.881  0.8943  1.6824 -2.2756
  102OSM      P10259   2.229   1.696  10.796  0.0418  0.3248  0.4791
  102OSM    O1310260   2.145   1.588  10.744  0.1804  0.1614 -0.6725
  102OSM    O1410261   2.174   1.780  10.903  0.3588  0.0247 -0.5174
  102OSM    O1110262   2.279   1.783  10.675 -0.0606  0.3391  0.0247
  102OSM    O1210263   2.357   1.633  10.849 -0.3086  0.7640 -0.4068
  102OSM    C1S10264   2.390   1.726  10.594  0.4127 -1.0298 -0.4521
  102OSM    H1S10265   2.391   1.616  10.581 -0.1590 -0.9468 -1.3120
  102OSM    H1T10266   2.487   1.757  10.640 -0.2397 -0.6967  0.7314
  102OSM     NF10267   2.464   1.699  10.365 -0.0861  0.0339 -0.2233
  102OSM    HNF10268   2.539   1.749  10.323 -0.0747  0.5456  0.3829
  102OSM    C2S10269   2.373   1.772  10.449  1.0368 -0.7218  0.0253
  102OSM    H2S10270   2.269   1.740  10.425  1.1492 -1.3478  0.3522
  102OSM    C3S10271   2.379   1.930  10.425  0.2107  0.8789  0.3686
  102OSM    H3S10272   2.477   1.963  10.467  1.1195  1.5346 -2.0984
  102OSM     O310273   2.291   2.009  10.498  0.5105 -0.0813  0.0308
  102OSM    HO310274   2.250   1.948  10.559  1.1485 -1.0816 -0.5198
  102OSM    C4S10275   2.370   1.958  10.272  0.4537 -0.6039 -0.1642
  102OSM    H4S10276   2.463   1.985  10.221 -0.4634  0.3593 -1.4005
  102OSM    C5S10277   2.257   1.982  10.203 -0.0441 -0.5131 -0.2830
  102OSM    H5S10278   2.165   1.963  10.259  0.3460 -0.2516  0.4645
  102OSM    C6S10279   2.249   2.018  10.063  0.3112  0.1263  0.3884
  102OSM    H6S10280   2.193   2.113  10.049 -0.0354  0.1960  2.0067
  102OSM    H6T10281   2.200   1.941  10.000 -1.9098  2.1086 -0.4352
  102OSM    C7S10282   2.383   2.040   9.987 -0.3309  0.3070 -0.2956
  102OSM    H7S10283   2.444   1.950  10.009  0.3043  0.6069 -0.8221
  102OSM    H7T10284   2.425   2.130  10.037  0.4160 -0.7033  0.9565
  102OSM    C8S10285   2.383   2.048   9.834  0.3633 -0.1107 -0.5109
  102OSM    H8S10286   2.362   1.944   9.800  1.6778 -1.0372  1.3763
  102OSM    H8T10287   2.489   2.053   9.801  1.0369 -2.0764  1.1930
  102OSM    C9S10288   2.284   2.148   9.778 -0.2620 -0.0076  0.1677
  102OSM    H9S10289   2.320   2.252   9.786 -2.3881  1.0257 -2.1937
  102OSM    H9T10290   2.194   2.138   9.842 -0.7861 -2.1233 -0.7920
  102OSM   C10S10291   2.241   2.139   9.630  0.3563  0.5177 -0.4337
  102OSM   H10S10292   2.163   2.218   9.623  1.5969  1.7959 -0.2736
  102OSM   H10T10293   2.194   2.043   9.602  1.2811  0.1837 -0.8583
  102OSM   C11S10294   2.351   2.166   9.529  0.8443 -0.2023  0.0377
  102OSM   H11S10295   2.422   2.081   9.520 -2.6244 -3.5681  1.6256
  102OSM   H11T10296   2.409   2.261   9.535 -0.4276  0.7085 -1.2630
  102OSM   C12S10297   2.285   2.180   9.389  1.1644 -0.3531  0.4407
  102OSM   H12S10298   2.197   2.246   9.382 -0.8197 -2.9868 -1.7078
  102OSM   H12T10299   2.245   2.083   9.351 -0.3999  1.3280 -2.5313
  102OSM   C13S10300   2.376   2.234   9.275 -0.1501  0.1365  0.8026
  102OSM   H13S10301   2.474   2.194   9.310 -0.2294 -0.3778  0.4536
  102OSM   H13T10302   2.390   2.344   9.276  0.6339  0.0386  1.2911
  102OSM   C14S10303   2.328   2.177   9.138  0.6223 -0.2588  0.6216
  102OSM   H14S10304   2.222   2.211   9.133  1.1172  1.3925  0.7254
  102OSM   H14T10305   2.314   2.070   9.163  0.9541  0.0886  2.4271
  102OSM   C15S10306   2.414   2.216   9.020  0.0276  0.2880  0.5759
  102OSM   H15S10307   2.515   2.175   9.038 -0.1265  0.8664  3.0748
  102OSM   H15T10308   2.420   2.327   9.017  0.4420  0.2734  0.8831
  102OSM   C16S10309   2.366   2.157   8.883  0.4995 -0.1696  0.1858
  102OSM   H16S10310   2.277   2.216   8.851  1.3398  0.4891 -1.0028
  102OSM   H16T10311   2.347   2.049   8.900  3.0744 -0.5368  1.1044
  102OSM   C17S10312   2.466   2.159   8.766 -0.3449  0.0291 -0.2654
  102OSM   H17S10313   2.547   2.087   8.791  0.1225  0.3176 -0.9028
  102OSM   H17T10314   2.521   2.255   8.754  0.4100 -0.6799 -3.9793
  102OSM   C18S10315   2.411   2.128   8.629  0.1150  0.1313 -0.1894
  102OSM   H18S10316   2.384   2.020   8.639 -0.5787  0.4834  2.2258
  102OSM   H18T10317   2.487   2.140   8.549 -1.3329  0.2254 -1.6011
  102OSM   H18U10318   2.316   2.185   8.623 -0.7876 -1.4192 -1.6446
  102OSM    C1F10319   2.447   1.574  10.330 -0.5917 -0.2385  1.1826
  102OSM     OF10320   2.363   1.503  10.380 -0.6009 -0.2653  0.4594
  102OSM    C2F10321   2.545   1.531  10.227 -0.1887  0.3724  0.5116
  102OSM    H2F10322   2.644   1.524  10.277 -0.2316 -3.2709  0.3685
  102OSM    H2G10323   2.546   1.608  10.146  1.9127 -2.1069 -2.0442
  102OSM    C3F10324   2.515   1.390  10.167 -0.0926  0.1465 -0.1139
  102OSM    H3F10325   2.405   1.389  10.151 -0.3381 -3.5533  0.9166
  102OSM    H3G10326   2.515   1.315  10.248 -1.4792 -0.2135 -0.4205
  102OSM    C4F10327   2.588   1.380  10.033 -0.3425  0.4815 -0.4582
  102OSM    H4F10328   2.680   1.441  10.044 -0.2112  0.4768 -1.4828
  102OSM    H4G10329   2.529   1.433   9.955  0.4550  2.1578  0.0284
  102OSM    C5F10330   2.615   1.237   9.986  0.6121  0.5551 -0.4112
  102OSM    H5F10331   2.519   1.180   9.990  1.3930 -0.7455  2.1629
  102OSM    H5G10332   2.683   1.195  10.064  0.2294 -0.2386 -0.4894
  102OSM    C6F10333   2.689   1.233   9.853  0.1226 -0.9920 -0.9178
  102OSM    H6F10334   2.710   1.127   9.829 -0.8873 -0.9808 -1.9951
  102OSM    H6G10335   2.789   1.278   9.868 -0.4873  0.2731 -0.4372
  102OSM    C7F10336   2.623   1.311   9.731 -0.2750  0.6535 -0.5032
  102OSM    H7F10337   2.631   1.421   9.728 -0.8375  0.6893 -0.8059
  102OSM    H7G10338   2.516   1.280   9.737  0.0495 -0.5758 -0.6754
  102OSM    C8F10339   2.681   1.273   9.602  0.1549  0.2212  0.1664
  102OSM    H8F10340   2.613   1.318   9.526  1.0579  0.8551 -0.2833
  102OSM    H8G10341   2.671   1.162   9.608 -0.8908  0.2921 -0.1547
  102OSM    C9F10342   2.827   1.315   9.578 -0.4324  0.6407  0.3424
  102OSM    H9F10343   2.889   1.276   9.660 -0.5803  1.4941  0.8676
  102OSM   C10F10344   2.880   1.397   9.481 -0.3526 -0.3713 -0.5069
  102OSM   H10F10345   2.989   1.414   9.484 -0.2037 -1.4086  0.9709
  102OSM   C11F10346   2.801   1.463   9.366  1.5153 -0.0252 -0.4469
  102OSM   H11F10347   2.819   1.572   9.348  1.7748 -0.0816 -0.5360
  102OSM   H11G10348   2.695   1.458   9.399  1.8474  0.7480  0.7833
  102OSM   C12F10349   2.788   1.393   9.228 -0.0157 -0.7419 -0.1802
  102OSM   H12F10350   2.761   1.287   9.247  1.9859 -0.7998  3.1813
  102OSM   H12G10351   2.888   1.396   9.180 -1.0955 -0.7305 -2.5450
  102OSM   C13F10352   2.690   1.464   9.134 -0.2982  0.0505  0.4842
  102OSM   H13F10353   2.702   1.574   9.144  2.7549 -0.2788  1.4103
  102OSM   H13G10354   2.588   1.436   9.170 -0.8321 -0.2177 -1.1686
  102OSM   C14F10355   2.717   1.426   8.989 -0.1335 -0.2863  0.0739
  102OSM   H14F10356   2.715   1.316   8.974 -1.3822 -0.0791 -1.6871
  102OSM   H14G10357   2.817   1.466   8.965 -0.0546 -1.0189 -0.9100
  102OSM   C15F10358   2.615   1.502   8.896  0.6683  0.3634  0.3595
  102OSM   H15F10359   2.602   1.603   8.939 -0.2641 -0.9759  3.4997
  102OSM   H15G10360   2.516   1.453   8.900 -0.2742  1.9731 -1.3333
  102OSM   C16F10361   2.665   1.508   8.754 -0.1457  0.4417  0.1986
  102OSM   H16F10362   2.763   1.559   8.748  1.6656 -2.7908 -0.4385
  102OSM   H16G10363   2.592   1.556   8.687  0.0969 -2.0974 -2.0375
  102OSM   C17F10364   2.690   1.359   8.698 -0.4881 -0.4098 -0.4026
  102OSM   H17F10365   2.599   1.303   8.729 -1.7700  1.5341 -0.5306
  102OSM   H17G10366   2.778   1.310   8.745 -0.6211  0.3121  0.6344
  102OSM   C18F10367   2.690   1.357   8.547 -0.0454 -1.0147  0.0418
  102OSM   H18F10368   2.753   1.441   8.511 -0.1692 -0.9044  0.0849
  102OSM   H18G10369   2.584   1.371   8.517  0.2967 -2.8514 -2.3650
  102OSM   H18H10370   2.731   1.259   8.514  0.8693 -0.6360  0.0227
  103OSM      N10371   5.473   6.789  11.054  0.4690  0.1952 -0.0305
  103OSM    C1510372   5.592   6.860  11.108 -0.5302 -0.2261 -0.1096
  103OSM   H15A10373   5.672   6.856  11.035  1.2569 -0.1136  1.7657
  103OSM   H15B10374   5.634   6.823  11.200 -1.0666  1.1172  0.7187
  103OSM   H15C10375   5.572   6.966  11.119  0.5306 -0.2071  2.2667
  103OSM    C1410376   5.499   6.642  11.058 -0.3408  0.3192  0.1325
  103OSM   H14A10377   5.584   6.621  10.996 -1.4314 -1.2349 -0.9321
  103OSM   H14B10378   5.408   6.595  11.023 -0.8853  0.8310  0.8383
  103OSM   H14C10379   5.505   6.611  11.162 -0.7395  0.7555  0.2882
  103OSM    C1310380   5.353   6.819  11.132 -0.6586 -0.9230 -0.3703
  103OSM   H13A10381   5.259   6.784  11.091 -2.3461  3.2543 -0.5990
  103OSM   H13B10382   5.338   6.925  11.145 -0.6633 -0.6965 -2.0654
  103OSM   H13C10383   5.371   6.788  11.234 -0.2160  1.4139  0.3097
  103OSM    C1210384   5.438   6.837  10.910 -0.1608 -0.5022 -0.2782
  103OSM   H12A10385   5.406   6.940  10.912  2.5089  0.4260 -0.3160
  103OSM   H12B10386   5.349   6.785  10.878 -0.8635 -1.5179  2.9132
  103OSM    C1110387   5.552   6.828  10.802  0.4375  0.4657  0.3109
  103OSM   H11A10388   5.502   6.855  10.707  1.0893  0.3936 -0.0545
  103OSM   H11B10389   5.590   6.724  10.804 -1.1865 -0.1626  0.1787
  103OSM      P10390   5.649   7.064  10.792  0.3191 -0.0704  0.0681
  103OSM    O1310391   5.511   7.114  10.806  0.0798  0.0173  0.3822
  103OSM    O1410392   5.761   7.138  10.863  0.9872  0.8707  0.2461
  103OSM    O1110393   5.667   7.059  10.634 -0.3017  0.4048 -0.2572
  103OSM    O1210394   5.657   6.915  10.832 -0.1423 -0.4228 -0.1380
  103OSM    C1S10395   5.796   7.009  10.588  0.2564 -0.2103 -0.5064
  103OSM    H1S10396   5.795   6.899  10.604 -2.8841 -0.3775 -1.2683
  103OSM    H1T10397   5.882   7.052  10.643  0.2638 -1.7945  0.7917
  103OSM     NF10398   5.913   6.953  10.374 -0.3674  0.0736  0.0281
  103OSM    HNF10399   5.999   7.001  10.358 -0.5566  0.6670  0.7387
  103OSM    C2S10400   5.796   7.020  10.427 -0.1801  0.1912  1.0396
  103OSM    H2S10401   5.701   6.979  10.387 -1.4855  2.9694  1.0570
  103OSM    C3S10402   5.777   7.175  10.398 -0.1715 -0.0822 -0.6346
  103OSM    H3S10403   5.851   7.234  10.457  0.0323 -0.8524 -0.1023
  103OSM     O310404   5.648   7.230  10.426 -0.6556  0.0135 -0.0761
  103OSM    HO310405   5.603   7.171  10.488  0.7454 -1.7875 -0.6744
  103OSM    C4S10406   5.808   7.203  10.246 -0.3272  0.0812 -0.1637
  103OSM    H4S10407   5.908   7.248  10.231 -0.7220  0.8622 -0.4689
  103OSM    C5S10408   5.722   7.204  10.141  0.2445 -0.0815 -0.2478
  103OSM    H5S10409   5.613   7.190  10.147 -0.0763  1.3821 -1.8089
  103OSM    C6S10410   5.769   7.235  10.003  0.1890 -0.3604  0.3830
  103OSM    H6S10411   5.877   7.252   9.986  0.4708 -1.0474  1.3652
  103OSM    H6T10412   5.718   7.329   9.973  0.2267  0.0066  1.4238
  103OSM    C7S10413   5.728   7.122   9.907  0.5366 -0.1107  0.5673
  103OSM    H7S10414   5.618   7.105   9.912  0.1070  1.4768 -1.7263
  103OSM    H7T10415   5.785   7.034   9.944 -2.7530 -3.2678 -1.2739
  103OSM    C8S10416   5.754   7.164   9.763 -0.1781  0.0961  0.0634
  103OSM    H8S10417   5.836   7.238   9.769 -0.4689  0.3859  0.4993
  103OSM    H8T10418   5.670   7.217   9.713  0.4623  0.6393 -0.4588
  103OSM    C9S10419   5.788   7.034   9.680  0.2824 -0.3127  0.1880
  103OSM    H9S10420   5.697   6.973   9.662 -0.2169 -0.1372  1.9250
  103OSM    H9T10421   5.860   6.967   9.732 -0.4378 -0.1161  1.4724
  103OSM   C10S10422   5.848   7.074   9.540  0.1755 -0.5273 -0.6155
  103OSM   H10S10423   5.952   7.111   9.547 -0.1197  0.3481 -0.7350
  103OSM   H10T10424   5.805   7.161   9.486  1.9380 -0.5225 -2.1072
  103OSM   C11S10425   5.844   6.965   9.439  0.1074  0.2705 -0.0099
  103OSM   H11S10426   5.745   6.917   9.426 -0.1469  0.6604  0.4431
  103OSM   H11T10427   5.922   6.890   9.465 -0.1870  0.1728  0.6087
  103OSM   C12S10428   5.877   7.019   9.301 -0.9035 -0.2183  0.7343
  103OSM   H12S10429   5.973   7.076   9.304 -0.9517 -0.1471  0.9221
  103OSM   H12T10430   5.800   7.093   9.272  1.6002  1.6763 -1.5647
  103OSM   C13S10431   5.897   6.907   9.186  0.2688 -0.1060 -0.6033
  103OSM   H13S10432   5.813   6.835   9.197 -1.1513  1.5127 -0.5052
  103OSM   H13T10433   6.002   6.873   9.195  0.7646  0.4389 -3.4533
  103OSM   C14S10434   5.885   6.979   9.051  0.1689 -0.0402  0.1262
  103OSM   H14S10435   5.940   7.075   9.039 -1.7622  0.9684 -1.1091
  103OSM   H14T10436   5.780   7.016   9.048  0.9345  2.3816  0.8093
  103OSM   C15S10437   5.944   6.880   8.938  1.1831 -0.2075 -0.2990
  103OSM   H15S10438   5.918   6.778   8.973  2.9566 -1.3682 -2.1087
  103OSM   H15T10439   6.054   6.872   8.922  1.0913 -0.9889 -0.5967
  103OSM   C16S10440   5.865   6.880   8.805 -0.2470 -0.1722  0.3343
  103OSM   H16S10441   5.757   6.874   8.833  0.5793  0.9153  4.4110
  103OSM   H16T10442   5.883   6.786   8.750  0.9235  0.3611 -0.2233
  103OSM   C17S10443   5.889   6.998   8.712 -0.0637 -0.1139 -0.2571
  103OSM   H17S10444   5.988   6.984   8.664  0.6575  1.4389  0.6740
  103OSM   H17T10445   5.890   7.097   8.762 -1.7173  0.1652 -0.7186
  103OSM   C18S10446   5.793   7.017   8.594 -0.2911 -0.1888  0.1724
  103OSM   H18S10447   5.687   6.989   8.605 -0.2835 -0.5708 -0.6082
  103OSM   H18T10448   5.835   6.968   8.503  1.2074  3.0332 -1.0296
  103OSM   H18U10449   5.796   7.125   8.567  0.3893 -0.1995  0.1803
  103OSM    C1F10450   5.920   6.821  10.344 -0.0614  0.3227  0.2520
  103OSM     OF10451   5.850   6.745  10.408 -0.4745 -0.0806 -0.5061
  103OSM    C2F10452   6.013   6.779  10.226  0.8635  1.0513 -0.5117
  103OSM    H2F10453   6.086   6.707  10.268  0.4003  1.5606  1.2269
  103OSM    H2G10454   6.052   6.878  10.191  1.3473  1.0839  0.1036
  103OSM    C3F10455   5.935   6.717  10.114  0.2432 -0.3609 -0.2973
  103OSM    H3F10456   5.835   6.766  10.109  0.0591 -0.6975  0.0188
  103OSM    H3G10457   5.916   6.610  10.133 -1.1413 -0.5296 -2.3545
  103OSM    C4F10458   6.008   6.733   9.982  0.6545  0.5927 -0.0756
  103OSM    H4F10459   6.101   6.673   9.977  0.6106  0.6060 -1.5257
  103OSM    H4G10460   6.048   6.836   9.970  3.0748 -0.1279  1.0981
  103OSM    C5F10461   5.918   6.700   9.860 -0.2553 -0.0863 -0.3101
  103OSM    H5F10462   5.881   6.799   9.825  0.9936  0.0161 -1.3948
  103OSM    H5G10463   5.828   6.641   9.889 -0.0242 -0.8830 -1.1958
  103OSM    C6F10464   5.980   6.615   9.746 -0.2049  0.3116 -0.2554
  103OSM    H6F10465   6.011   6.516   9.788 -2.7280 -1.1930 -1.6938
  103OSM    H6G10466   6.073   6.663   9.709  0.6395 -1.2898 -0.3003
  103OSM    C7F10467   5.890   6.574   9.628  1.0888 -0.3601 -0.0246
  103OSM    H7F10468   5.868   6.665   9.568  1.7121  1.0178  1.7605
  103OSM    H7G10469   5.789   6.551   9.670  0.9732  0.8620  0.4128
  103OSM    C8F10470   5.931   6.453   9.545  0.2233  0.5958  0.4023
  103OSM    H8F10471   5.847   6.418   9.482  1.5128 -0.4003 -0.8429
  103OSM    H8G10472   5.957   6.368   9.612 -0.0592  0.6533  0.5852
  103OSM    C9F10473   6.060   6.475   9.471 -0.4241 -0.0864  0.5930
  103OSM    H9F10474   6.158   6.463   9.518  2.1104  0.1448 -4.0555
  103OSM   C10F10475   6.059   6.513   9.341 -0.2133 -0.1433 -0.6807
  103OSM   H10F10476   6.160   6.521   9.296  0.6480  0.0471  1.1972
  103OSM   C11F10477   5.942   6.536   9.247 -0.4971 -0.0418 -0.5405
  103OSM   H11F10478   5.901   6.638   9.260 -1.0264 -0.3068 -0.1130
  103OSM   H11G10479   5.853   6.472   9.265 -0.9424  0.8897  0.6659
  103OSM   C12F10480   5.988   6.527   9.096 -0.2900  0.7296 -0.2812
  103OSM   H12F10481   6.059   6.610   9.081  0.1054  0.5827  0.6962
  103OSM   H12G10482   5.904   6.551   9.026 -1.3732 -1.6251  0.1054
  103OSM   C13F10483   6.043   6.387   9.058 -0.5334  0.4847  0.9893
  103OSM   H13F10484   5.954   6.322   9.062 -2.4977  3.0578  1.5724
  103OSM   H13G10485   6.113   6.345   9.134 -0.9721 -1.6624  0.2533
  103OSM   C14F10486   6.112   6.385   8.913 -0.9245  0.6282 -1.0026
  103OSM   H14F10487   6.103   6.282   8.872  0.1060  1.3644 -3.2467
  103OSM   H14G10488   6.220   6.410   8.916 -1.4670  3.2543  2.2651
  103OSM   C15F10489   6.043   6.480   8.816 -0.3435 -0.2497  0.5826
  103OSM   H15F10490   6.066   6.583   8.849  0.5505 -0.2222 -0.0987
  103OSM   H15G10491   5.934   6.459   8.811  0.0310 -2.3698  0.2374
  103OSM   C16F10492   6.104   6.457   8.675 -0.3282 -0.2217  0.9144
  103OSM   H16F10493   6.087   6.360   8.622  1.5347 -0.4752  0.7154
  103OSM   H16G10494   6.214   6.472   8.670 -0.5818  1.4751 -0.0267
  103OSM   C17F10495   6.058   6.561   8.564 -0.5039  0.2602  0.5610
  103OSM   H17F10496   6.087   6.665   8.590  1.5110  0.1836 -1.1274
  103OSM   H17G10497   5.948   6.578   8.568 -0.1813  2.7924  0.1919
  103OSM   C18F10498   6.117   6.534   8.425  0.9048  0.4391 -0.3374
  103OSM   H18F10499   6.227   6.522   8.432  0.7671 -0.5094  0.3668
  103OSM   H18G10500   6.097   6.619   8.357  1.6756 -1.0507 -2.5248
  103OSM   H18H10501   6.081   6.437   8.384 -0.7100  1.2188 -0.8112
  104OSM      N10502   1.091   2.484  10.823  0.7747 -0.4226 -0.2153
  104OSM    C1510503   1.090   2.607  10.911 -0.1332 -0.2405 -0.2474
  104OSM   H15A10504   0.990   2.648  10.913 -0.3822 -0.7786  2.8548
  104OSM   H15B10505   1.156   2.682  10.870  0.5999 -2.2839 -3.1341
  104OSM   H15C10506   1.127   2.583  11.010  0.2316  0.3060 -0.2453
  104OSM    C1410507   1.031   2.519  10.694 -0.3067 -0.0025  0.1500
  104OSM   H14A10508   1.079   2.609  10.659  1.4009 -0.6537  0.7117
  104OSM   H14B10509   0.925   2.541  10.701 -0.4997 -0.6910 -0.3916
  104OSM   H14C10510   1.045   2.435  10.627 -1.7693 -0.0726 -0.1011
  104OSM    C1310511   1.230   2.442  10.801  1.1585 -0.5060  0.4521
  104OSM   H13A10512   1.290   2.523  10.762  2.2446 -1.8312 -0.7352
  104OSM   H13B10513   1.235   2.366  10.725 -0.6154  0.0219 -0.2610
  104OSM   H13C10514   1.287   2.422  10.891 -0.2656 -0.9479  1.2918
  104OSM    C1210515   1.016   2.373  10.895 -0.7940  0.0190  0.0769
  104OSM   H12A10516   1.070   2.339  10.982 -0.8370  1.1583  0.5638
  104OSM   H12B10517   1.025   2.288  10.829 -1.9606  0.3094 -0.4870
  104OSM    C1110518   0.867   2.395  10.933  0.3044 -0.0929 -0.2861
  104OSM   H11A10519   0.857   2.472  11.012 -1.5945 -0.7823  0.2153
  104OSM   H11B10520   0.827   2.302  10.979  2.9428 -0.5804  1.2234
  104OSM      P10521   0.720   2.334  10.722 -0.2524  0.2424  0.3305
  104OSM    O1310522   0.817   2.227  10.674  0.4792  0.9716 -0.0688
  104OSM    O1410523   0.597   2.285  10.794  0.0401  0.0299  0.7240
  104OSM    O1110524   0.688   2.432  10.606  0.2121 -0.0356  0.1355
  104OSM    O1210525   0.795   2.431  10.818 -0.4816  0.0063 -0.7215
  104OSM    C1S10526   0.672   2.389  10.473  0.5889 -0.1720 -0.4085
  104OSM    H1S10527   0.614   2.295  10.462  0.8834 -0.4641  0.4645
  104OSM    H1T10528   0.775   2.378  10.434  0.5237  0.2642 -0.7086
  104OSM     NF10529   0.597   2.467  10.248  0.1592  0.2322  0.5203
  104OSM    HNF10530   0.679   2.454  10.193 -1.8113 -0.7996 -2.4018
  104OSM    C2S10531   0.606   2.507  10.386  0.2841  0.0752  0.6349
  104OSM    H2S10532   0.509   2.532  10.436 -2.4456 -1.8325 -3.1568
  104OSM    C3S10533   0.698   2.624  10.409 -0.2606  0.0992  0.5195
  104OSM    H3S10534   0.799   2.585  10.382 -0.4216 -0.4806  0.7322
  104OSM     O310535   0.694   2.682  10.539  0.0981 -0.4633  0.2315
  104OSM    HO310536   0.652   2.614  10.592 -0.6068 -1.3693 -1.4099
  104OSM    C4S10537   0.663   2.737  10.321  0.0512  0.2635  0.7592
  104OSM    H4S10538   0.557   2.756  10.302 -0.3596 -2.8923 -0.8616
  104OSM    C5S10539   0.757   2.812  10.258  0.5432 -0.5339  0.2560
  104OSM    H5S10540   0.862   2.800  10.288  0.4986 -0.9462  0.2559
  104OSM    C6S10541   0.721   2.924  10.167  0.2176 -0.4521  0.0211
  104OSM    H6S10542   0.765   3.019  10.203 -1.1963  0.1904  0.1297
  104OSM    H6T10543   0.612   2.944  10.161 -0.0192 -1.3884  0.9316
  104OSM    C7S10544   0.776   2.878  10.033  0.5637 -0.0915 -0.0865
  104OSM    H7S10545   0.722   2.787   9.998  0.5334  0.1267 -0.6093
  104OSM    H7T10546   0.880   2.840  10.039  0.6434 -0.6744 -3.3637
  104OSM    C8S10547   0.751   2.986   9.924 -0.3769  0.6842  0.1364
  104OSM    H8S10548   0.801   3.080   9.956 -0.0676  0.5865 -0.0561
  104OSM    H8T10549   0.642   3.008   9.925 -0.6536 -0.6345  1.3070
  104OSM    C9S10550   0.816   2.931   9.795  0.2634 -0.2591  0.3864
  104OSM    H9S10551   0.758   2.848   9.749  0.5425 -0.6338  0.7020
  104OSM    H9T10552   0.923   2.902   9.796  0.7148  1.1796 -1.4233
  104OSM   C10S10553   0.797   3.038   9.680  0.0002  0.4902  0.2201
  104OSM   H10S10554   0.843   3.134   9.711 -2.0079  1.6277 -0.1625
  104OSM   H10T10555   0.688   3.060   9.677  0.4117  2.6320 -0.7664
  104OSM   C11S10556   0.842   3.002   9.533 -0.1206 -1.0128 -0.4915
  104OSM   H11S10557   0.839   2.892   9.523 -1.8739 -1.0738  0.4188
  104OSM   H11T10558   0.949   3.031   9.534  0.1961 -2.1565 -0.0690
  104OSM   C12S10559   0.762   3.060   9.411 -0.1509  0.0126 -0.6285
  104OSM   H12S10560   0.787   3.168   9.404 -3.2634  0.9395  0.6832
  104OSM   H12T10561   0.656   3.051   9.441  0.2010  0.6998  0.9857
  104OSM   C13S10562   0.780   2.999   9.270 -0.0715 -0.3688 -1.0438
  104OSM   H13S10563   0.764   2.889   9.282  0.5817 -0.2770  1.3231
  104OSM   H13T10564   0.881   3.004   9.225  0.1963 -1.7147 -0.6476
  104OSM   C14S10565   0.691   3.063   9.165  0.5616  0.0648  0.1299
  104OSM   H14S10566   0.728   3.167   9.154  3.0060 -0.5249  1.8294
  104OSM   H14T10567   0.587   3.061   9.203  0.1202  3.2514 -0.6406
  104OSM   C15S10568   0.706   2.990   9.030  0.0008  0.0403 -0.1639
  104OSM   H15S10569   0.633   3.029   8.956 -1.4308 -1.4114  0.4253
  104OSM   H15T10570   0.661   2.891   9.054  0.5680  0.0573  1.0460
  104OSM   C16S10571   0.847   2.979   8.976 -0.0808  0.5558 -0.1157
  104OSM   H16S10572   0.913   2.896   9.007 -1.2835 -0.4961 -0.2959
  104OSM   H16T10573   0.900   3.072   9.007 -0.5802  1.2326 -1.2481
  104OSM   C17S10574   0.854   2.983   8.823 -0.4594 -0.2840  0.2908
  104OSM   H17S10575   0.960   2.981   8.791 -0.3449 -0.2618  0.6678
  104OSM   H17T10576   0.826   3.088   8.799  3.2526  1.3372  2.2056
  104OSM   C18S10577   0.780   2.877   8.738  0.2667  0.5521 -0.1834
  104OSM   H18S10578   0.674   2.908   8.735 -0.3620 -1.3918  0.1679
  104OSM   H18T10579   0.789   2.774   8.780  1.1740  1.3847  1.8088
  104OSM   H18U10580   0.817   2.872   8.634 -0.0163  0.3244 -0.2747
  104OSM    C1F10581   0.486   2.397  10.216 -0.0406 -0.7089 -0.0127
  104OSM     OF10582   0.380   2.414  10.279  0.0145  0.1726 -0.5103
  104OSM    C2F10583   0.501   2.305  10.100 -1.1376  0.2542 -0.2314
  104OSM    H2F10584   0.451   2.209  10.127 -0.4135 -0.2291 -0.5687
  104OSM    H2G10585   0.604   2.270  10.077 -2.6187 -3.8091 -1.5375
  104OSM    C3F10586   0.427   2.368   9.978 -0.6127  0.3617 -0.2019
  104OSM    H3F10587   0.493   2.446   9.934  1.0575 -0.1943  1.2068
  104OSM    H3G10588   0.335   2.414  10.021  0.3598  1.8850  0.3245
  104OSM    C4F10589   0.384   2.274   9.869 -0.0619 -0.4684  0.7141
  104OSM    H4F10590   0.310   2.206   9.916 -1.3332  0.4022  0.0527
  104OSM    H4G10591   0.466   2.215   9.824 -1.2041 -0.0245 -2.1811
  104OSM    C5F10592   0.327   2.357   9.751  0.2220 -0.0042 -0.3805
  104OSM    H5F10593   0.407   2.412   9.698  0.0767  2.3355  1.6379
  104OSM    H5G10594   0.252   2.436   9.776 -0.3028 -0.2537 -1.1207
  104OSM    C6F10595   0.258   2.261   9.646  0.1288 -0.2653 -0.2329
  104OSM    H6F10596   0.168   2.220   9.697  0.4991  1.6490  2.1762
  104OSM    H6G10597   0.326   2.175   9.631  0.3204 -0.1611  0.0301
  104OSM    C7F10598   0.210   2.321   9.516  0.0377  0.1962  0.4551
  104OSM    H7F10599   0.148   2.413   9.529 -1.2360 -0.6012  0.1710
  104OSM    H7G10600   0.149   2.251   9.456 -0.3667  1.3023 -0.4703
  104OSM    C8F10601   0.322   2.364   9.414 -0.1216  0.1344 -0.6293
  104OSM    H8F10602   0.402   2.428   9.457 -0.8476  1.5136 -1.2393
  104OSM    H8G10603   0.277   2.430   9.337 -0.1860  0.3407 -0.4158
  104OSM    C9F10604   0.383   2.244   9.347  0.1165 -0.1946  0.0745
  104OSM    H9F10605   0.394   2.160   9.417 -1.1403 -2.1207 -1.8844
  104OSM   C10F10606   0.409   2.233   9.220 -0.2434 -0.2620  0.5830
  104OSM   H10F10607   0.441   2.138   9.175 -2.5096 -0.9254  0.2461
  104OSM   C11F10608   0.385   2.339   9.110  0.7795  0.7234 -0.2100
  104OSM   H11F10609   0.457   2.330   9.025 -0.3158  2.2829 -1.3656
  104OSM   H11G10610   0.402   2.440   9.153 -1.5940  1.0012  0.2060
  104OSM   C12F10611   0.240   2.336   9.055 -0.2572  0.6287 -0.4754
  104OSM   H12F10612   0.178   2.281   9.130 -0.2193 -0.2662 -1.0824
  104OSM   H12G10613   0.240   2.285   8.957  1.0318 -0.2304 -0.0551
  104OSM   C13F10614   0.178   2.469   9.025  0.2958  0.1140 -0.6624
  104OSM   H13F10615   0.256   2.544   9.000 -0.3923  1.7218  1.6822
  104OSM   H13G10616   0.132   2.499   9.122  1.2770  1.0072 -0.4585
  104OSM   C14F10617   0.064   2.474   8.919 -0.1844 -0.0674  0.1949
  104OSM   H14F10618  -0.024   2.412   8.945 -0.2366  0.3976  1.1710
  104OSM   H14G10619   0.102   2.436   8.821 -1.2555  0.6693 -0.5283
  104OSM   C15F10620   0.026   2.621   8.895 -0.4489  0.4119 -0.7680
  104OSM   H15F10621   0.119   2.679   8.873 -0.3605  1.5111  1.9730
  104OSM   H15G10622  -0.012   2.664   8.991  1.1851  0.4213 -0.0825
  104OSM   C16F10623  -0.083   2.623   8.783  0.1250 -0.1870 -0.7409
  104OSM   H16F10624  -0.175   2.577   8.823  0.8839  0.7360  2.3296
  104OSM   H16G10625  -0.046   2.562   8.698  1.9667  2.0815 -1.6805
  104OSM   C17F10626  -0.106   2.763   8.741 -0.2216  0.1478  0.1276
  104OSM   H17F10627  -0.006   2.798   8.709  0.2859 -1.4281 -0.0973
  104OSM   H17G10628  -0.142   2.821   8.829  0.5864 -0.6116  0.9810
  104OSM   C18F10629  -0.194   2.770   8.622  0.5107  0.6339 -0.4891
  104OSM   H18F10630  -0.297   2.733   8.643  0.2446  0.0308 -2.6307
  104OSM   H18G10631  -0.152   2.708   8.540  3.2816  1.6945  0.0061
  104OSM   H18H10632  -0.211   2.872   8.580 -0.2538  0.1524 -1.3766
  105OSM      N10633   6.801   5.574  11.147 -0.0868  0.6754  0.1861
  105OSM    C1510634   6.790   5.524  11.287 -0.0973  0.2199 -0.4081
  105OSM   H15A10635   6.885   5.548  11.333 -0.2484 -0.9180  0.5438
  105OSM   H15B10636   6.776   5.417  11.296  1.9418  0.0418  1.5512
  105OSM   H15C10637   6.722   5.579  11.350  0.3114 -2.8640  3.1053
  105OSM    C1410638   6.806   5.721  11.134 -0.0383 -1.2976 -0.2366
  105OSM   H14A10639   6.716   5.763  11.177  0.1217 -0.1359 -0.9920
  105OSM   H14B10640   6.812   5.761  11.034 -1.6842  1.6336  0.6963
  105OSM   H14C10641   6.885   5.763  11.195 -0.6040  0.8232 -0.8742
  105OSM    C1310642   6.927   5.512  11.079  0.4870  0.4320  0.3496
  105OSM   H13A10643   6.926   5.404  11.089  0.1588  0.4096  0.0936
  105OSM   H13B10644   7.012   5.541  11.139 -1.9589  2.1863  3.2175
  105OSM   H13C10645   6.946   5.536  10.975 -0.0043  0.5164  0.2773
  105OSM    C1210646   6.678   5.532  11.071 -0.4450 -0.4904 -0.6452
  105OSM   H12A10647   6.598   5.583  11.121  0.9375 -0.4209  1.6449
  105OSM   H12B10648   6.661   5.426  11.084 -0.4578 -0.4444 -0.2653
  105OSM    C1110649   6.670   5.580  10.924  0.2877  0.5695  0.2570
  105OSM   H11A10650   6.626   5.501  10.860  1.8572 -1.3906  1.5021
  105OSM   H11B10651   6.775   5.599  10.895  0.3435  2.8243  1.6928
  105OSM      P10652   6.620   5.816  10.833  0.2849 -0.4412 -0.2872
  105OSM    O1310653   6.484   5.873  10.812  0.0154  0.0952  0.5567
  105OSM    O1410654   6.727   5.901  10.890 -0.1237  0.2184  0.3535
  105OSM    O1110655   6.663   5.742  10.706  0.1876  0.6562 -0.1386
  105OSM    O1210656   6.592   5.699  10.926  0.3323  0.3755 -0.1454
  105OSM    C1S10657   6.594   5.747  10.578  0.1536 -0.0270  0.0829
  105OSM    H1S10658   6.553   5.849  10.557  0.3510  0.4478  1.7948
  105OSM    H1T10659   6.505   5.681  10.576  2.4027 -3.2571 -0.1414
  105OSM     NF10660   6.596   5.703  10.334 -0.0845  0.0091  0.0588
  105OSM    HNF10661   6.545   5.620  10.308 -1.1457  0.4708  0.6116
  105OSM    C2S10662   6.684   5.705  10.456  0.0793  0.4006  0.6235
  105OSM    H2S10663   6.750   5.791  10.433 -0.1962  0.8266  1.3960
  105OSM    C3S10664   6.752   5.566  10.488 -0.3795 -0.4008 -0.4140
  105OSM    H3S10665   6.667   5.495  10.490 -1.5497  0.9296 -0.9676
  105OSM     O310666   6.817   5.555  10.615 -0.8896 -0.0378  0.2390
  105OSM    HO310667   6.777   5.617  10.677  1.9787  1.8267  0.4097
  105OSM    C4S10668   6.843   5.529  10.378 -0.6540 -0.1031 -0.1710
  105OSM    H4S10669   6.901   5.612  10.336 -1.4368 -0.3038 -1.7527
  105OSM    C5S10670   6.857   5.403  10.329  0.1907 -0.2715  0.3370
  105OSM    H5S10671   6.790   5.327  10.372  0.5464  0.1006  1.5896
  105OSM    C6S10672   6.956   5.379  10.224 -0.2802 -0.0082 -0.4055
  105OSM    H6S10673   7.042   5.329  10.273 -0.1671  1.2334  0.7401
  105OSM    H6T10674   6.994   5.474  10.180 -1.0483  0.8577  0.7339
  105OSM    C7S10675   6.913   5.300  10.101 -0.6530  0.3214 -0.6725
  105OSM    H7S10676   6.842   5.354  10.036 -1.0647  0.4569 -0.1183
  105OSM    H7T10677   6.856   5.212  10.138 -1.3168  1.6396  1.6364
  105OSM    C8S10678   7.028   5.255  10.013 -0.4048  0.5386  0.0167
  105OSM    H8S10679   7.110   5.221  10.079 -2.2310 -1.7779  1.2604
  105OSM    H8T10680   7.070   5.329   9.942  0.8850  1.6543  1.8607
  105OSM    C9S10681   6.984   5.123   9.930  0.0751  0.2692 -0.1171
  105OSM    H9S10682   6.891   5.155   9.878 -0.8968  0.3660  1.6178
  105OSM    H9T10683   6.954   5.047  10.005 -1.8100  0.8011 -0.2981
  105OSM   C10S10684   7.089   5.054   9.834  0.6115 -0.1498  0.2624
  105OSM   H10S10685   7.139   5.130   9.770 -0.3521  0.4446  0.2082
  105OSM   H10T10686   7.041   4.971   9.779  0.2846 -0.1172  0.5001
  105OSM   C11S10687   7.205   4.973   9.905  0.3331  0.1292 -0.2343
  105OSM   H11S10688   7.154   4.896   9.967  1.8588 -0.8460 -0.1435
  105OSM   H11T10689   7.270   5.032   9.972 -0.6724  0.2979  0.6217
  105OSM   C12S10690   7.270   4.866   9.805 -0.3820 -0.4321 -1.0608
  105OSM   H12S10691   7.191   4.816   9.746 -3.0446  2.0281  0.1214
  105OSM   H12T10692   7.319   4.799   9.879  0.2994  0.5634 -0.5903
  105OSM   C13S10693   7.378   4.932   9.724 -0.1569 -0.1376  0.7999
  105OSM   H13S10694   7.461   4.941   9.798  1.2676 -1.7138 -0.5111
  105OSM   H13T10695   7.342   5.034   9.699  1.1916 -0.0829 -1.1103
  105OSM   C14S10696   7.435   4.848   9.605 -0.7463 -0.0753 -0.3396
  105OSM   H14S10697   7.365   4.836   9.519 -1.8389 -0.3481  0.5593
  105OSM   H14T10698   7.456   4.756   9.665 -1.1330  0.8728  1.3088
  105OSM   C15S10699   7.563   4.913   9.537 -0.1592 -0.4862 -0.6129
  105OSM   H15S10700   7.583   4.860   9.441  1.3433  1.5381 -1.4811
  105OSM   H15T10701   7.648   4.887   9.604 -0.3568 -2.0816 -0.9363
  105OSM   C16S10702   7.554   5.056   9.498  0.0735  0.1157  0.6302
  105OSM   H16S10703   7.541   5.110   9.594  2.1453 -0.8085  1.5072
  105OSM   H16T10704   7.476   5.076   9.422  2.0026  0.1666 -1.4662
  105OSM   C17S10705   7.689   5.109   9.446 -0.1503 -0.7316 -0.0437
  105OSM   H17S10706   7.719   5.039   9.365  0.9223 -0.3336 -0.0141
  105OSM   H17T10707   7.765   5.120   9.526  0.4184  0.2795 -0.7052
  105OSM   C18S10708   7.670   5.249   9.383  0.0850  0.2574 -0.0866
  105OSM   H18S10709   7.679   5.329   9.460 -3.0768  0.9899 -0.3393
  105OSM   H18T10710   7.573   5.267   9.332 -0.2516 -0.8031  0.1542
  105OSM   H18U10711   7.753   5.257   9.310  1.3415 -3.4530  0.7578
  105OSM    C1F10712   6.548   5.818  10.281 -0.0880  0.1859  0.4435
  105OSM     OF10713   6.592   5.935  10.308 -0.4900 -0.0857 -0.1704
  105OSM    C2F10714   6.429   5.796  10.195  0.2986 -0.2939  0.8753
  105OSM    H2F10715   6.339   5.792  10.260  1.5017  1.6781  2.7918
  105OSM    H2G10716   6.432   5.694  10.152 -0.5222 -0.3639  0.9679
  105OSM    C3F10717   6.412   5.891  10.077  0.2285  0.7486  0.3045
  105OSM    H3F10718   6.408   5.992  10.122  2.5405  1.7974 -1.6114
  105OSM    H3G10719   6.313   5.870  10.033 -0.7680  1.0548  2.2939
  105OSM    C4F10720   6.524   5.887   9.979 -0.0408 -0.4286 -0.7368
  105OSM    H4F10721   6.623   5.903  10.026 -0.3827 -1.5393  0.4065
  105OSM    H4G10722   6.514   5.974   9.911 -0.1440  0.2460  0.1371
  105OSM    C5F10723   6.519   5.764   9.882 -0.3222  0.3035 -0.1165
  105OSM    H5F10724   6.411   5.751   9.861 -0.6223  0.9273  0.9647
  105OSM    H5G10725   6.547   5.680   9.949  0.8059  1.4377  0.8918
  105OSM    C6F10726   6.596   5.774   9.754 -0.0466 -0.6809  0.8195
  105OSM    H6F10727   6.690   5.717   9.772  0.4413  0.2184  1.1646
  105OSM    H6G10728   6.624   5.879   9.732 -0.9380 -0.4422  0.7901
  105OSM    C7F10729   6.522   5.717   9.624 -0.2830 -0.0445  0.7486
  105OSM    H7F10730   6.424   5.768   9.618  0.5123  1.5949  1.0048
  105OSM    H7G10731   6.512   5.607   9.636 -1.1544 -0.2988 -1.6922
  105OSM    C8F10732   6.592   5.753   9.492 -0.1812  0.2105  0.7266
  105OSM    H8F10733   6.697   5.717   9.497  0.4619  1.4300 -1.9369
  105OSM    H8G10734   6.610   5.861   9.477  2.1807 -0.4645 -2.4702
  105OSM    C9F10735   6.523   5.704   9.366  0.2257  0.2672 -0.0704
  105OSM    H9F10736   6.413   5.703   9.372  0.2053 -0.9141 -0.4122
  105OSM   C10F10737   6.586   5.654   9.261 -0.3470  0.2660  0.5811
  105OSM   H10F10738   6.525   5.610   9.180 -0.0609  0.4418  0.2690
  105OSM   C11F10739   6.738   5.636   9.244  0.4281 -0.9515  0.3281
  105OSM   H11F10740   6.773   5.536   9.276  2.2716 -0.2435  0.6970
  105OSM   H11G10741   6.784   5.706   9.318  0.2651 -0.2915 -0.1821
  105OSM   C12F10742   6.794   5.662   9.099 -0.5825 -0.3825  0.8175
  105OSM   H12F10743   6.733   5.744   9.055  1.7860  0.5245 -0.9531
  105OSM   H12G10744   6.792   5.568   9.040  1.0437  0.0556  0.0252
  105OSM   C13F10745   6.944   5.687   9.096 -1.0075  0.1278 -0.5040
  105OSM   H13F10746   6.994   5.600   9.144 -0.9216  0.4892  0.0707
  105OSM   H13G10747   6.976   5.769   9.165  3.3195 -1.8432  0.1775
  105OSM   C14F10748   7.004   5.719   8.956 -0.9248 -0.7341 -0.0831
  105OSM   H14F10749   7.097   5.781   8.961 -0.7064 -0.2611 -4.8114
  105OSM   H14G10750   6.943   5.798   8.907  1.2581  0.1891 -1.5013
  105OSM   C15F10751   7.023   5.600   8.862  0.1943  0.0695  0.4219
  105OSM   H15F10752   6.922   5.556   8.844 -0.1021  1.1430 -0.7222
  105OSM   H15G10753   7.088   5.516   8.895  4.2100  1.0719 -3.8635
  105OSM   C16F10754   7.079   5.638   8.729  0.0087  0.2451  0.3064
  105OSM   H16F10755   7.189   5.654   8.730  0.4250 -2.0570 -0.8849
  105OSM   H16G10756   7.032   5.733   8.697  1.5357  0.4178 -1.5904
  105OSM   C17F10757   7.029   5.533   8.629  0.2501 -0.1901 -0.2922
  105OSM   H17F10758   6.919   5.538   8.613 -0.2370 -2.7310  1.5962
  105OSM   H17G10759   7.046   5.440   8.688  1.0599  0.5212  0.6186
  105OSM   C18F10760   7.109   5.521   8.501 -0.2495 -0.1588  0.3275
  105OSM   H18F10761   7.058   5.448   8.434  1.3715  0.3827 -1.6265
  105OSM   H18G10762   7.217   5.499   8.517 -0.5192 -0.9136  1.1579
  105OSM   H18H10763   7.104   5.616   8.444  3.0447  0.0510  0.2262
  106OSM      N10764   3.766   4.444  10.996 -0.8324 -0.0965 -0.1287
  106OSM    C1510765   3.734   4.466  11.143 -0.0385 -0.4579  0.4774
  106OSM   H15A10766   3.646   4.409  11.171 -1.5252  0.9678 -1.1064
  106OSM   H15B10767   3.719   4.571  11.163 -0.0604 -0.6082  1.3134
  106OSM   H15C10768   3.820   4.442  11.205  1.3835  2.0516 -0.4103
  106OSM    C1410769   3.651   4.491  10.920 -0.8224  0.0357 -0.0766
  106OSM   H14A10770   3.571   4.420  10.938 -0.0438 -0.7498  0.3815
  106OSM   H14B10771   3.680   4.489  10.816  0.3949 -0.4772  0.2530
  106OSM   H14C10772   3.619   4.588  10.953  2.1349  0.4887  1.8820
  106OSM    C1310773   3.890   4.519  10.961 -0.3133  0.8248 -0.3907
  106OSM   H13A10774   3.976   4.481  11.015 -1.0043 -3.6529 -1.9702
  106OSM   H13B10775   3.880   4.621  10.993 -1.0925  0.0904  1.9820
  106OSM   H13C10776   3.910   4.501  10.857  1.8722 -3.9263  0.5759
  106OSM    C1210777   3.782   4.294  10.956  1.0513 -0.1261  0.1920
  106OSM   H12A10778   3.866   4.268  11.019  0.3517  0.9588  1.6473
  106OSM   H12B10779   3.814   4.301  10.853  0.0549  0.9125 -0.0637
  106OSM    C1110780   3.656   4.207  10.977  0.1397  0.2574 -0.9107
  106OSM   H11A10781   3.605   4.241  11.069  0.5493 -2.2275  0.3281
  106OSM   H11B10782   3.679   4.099  10.993  0.6430  0.6112  0.8985
  106OSM      P10783   3.585   4.163  10.723 -0.1129  0.5145 -0.2208
  106OSM    O1310784   3.502   4.042  10.716 -0.2390 -0.1413 -0.1189
  106OSM    O1410785   3.552   4.265  10.628  0.3201 -0.2704  0.1289
  106OSM    O1110786   3.738   4.132  10.714 -0.5945 -0.1168  0.8947
  106OSM    O1210787   3.568   4.221  10.867  0.3988  0.5362  0.1872
  106OSM    C1S10788   3.788   4.018  10.638  0.0334 -0.3389 -0.0614
  106OSM    H1S10789   3.707   3.955  10.596 -2.3413  2.4780 -0.0012
  106OSM    H1T10790   3.852   3.957  10.706  0.2753  1.4754  1.4403
  106OSM     NF10791   3.937   3.968  10.448 -0.1499  0.1041  0.4716
  106OSM    HNF10792   4.033   3.941  10.454 -0.5998 -1.5359  0.5993
  106OSM    C2S10793   3.886   4.080  10.532  0.4328  0.1540  0.4823
  106OSM    H2S10794   3.828   4.148  10.465 -0.4587  0.8669  1.9308
  106OSM    C3S10795   4.007   4.158  10.597 -0.0281  0.6199  0.3145
  106OSM    H3S10796   4.059   4.082  10.658  1.2919 -1.5300 -3.1736
  106OSM     O310797   3.968   4.266  10.678 -0.2690  0.0706  0.0134
  106OSM    HO310798   3.875   4.241  10.680 -0.1411 -0.3983  0.4856
  106OSM    C4S10799   4.109   4.189  10.484 -0.2888 -0.2376 -0.2347
  106OSM    H4S10800   4.187   4.112  10.480 -0.3748 -0.2727 -1.7550
  106OSM    C5S10801   4.112   4.297  10.405 -0.1348  0.1718  0.3773
  106OSM    H5S10802   4.024   4.363  10.405  0.3347  0.8060  0.3189
  106OSM    C6S10803   4.214   4.333  10.292  0.2224  0.8233 -0.0774
  106OSM    H6S10804   4.314   4.293  10.320  0.9887  2.3186 -0.5713
  106OSM    H6T10805   4.225   4.441  10.269 -1.4705  0.7186 -1.6137
  106OSM    C7S10806   4.150   4.271  10.165  0.2039 -0.3556 -0.3724
  106OSM    H7S10807   4.048   4.310  10.144  0.8485  0.0196 -3.2090
  106OSM    H7T10808   4.158   4.162  10.187  1.1194 -0.5486 -1.5749
  106OSM    C8S10809   4.235   4.310  10.042 -0.1527  0.0403  0.1207
  106OSM    H8S10810   4.224   4.222   9.975 -0.2912  0.8354 -0.9412
  106OSM    H8T10811   4.342   4.317  10.072  0.4012 -1.1962 -1.4133
  106OSM    C9S10812   4.186   4.440   9.977  0.0243 -0.6063  0.3088
  106OSM    H9S10813   4.190   4.516  10.058 -1.8883 -0.2684  0.1350
  106OSM    H9T10814   4.082   4.438   9.937  0.6763 -0.2448 -1.5091
  106OSM   C10S10815   4.261   4.457   9.852  0.5428 -0.1556  0.5940
  106OSM   H10S10816   4.242   4.391   9.764 -2.4881  1.8565 -0.3956
  106OSM   H10T10817   4.371   4.465   9.871  0.5597  0.7509  0.1365
  106OSM   C11S10818   4.223   4.597   9.788  0.0568 -0.0521  0.5803
  106OSM   H11S10819   4.229   4.677   9.865  0.7880 -0.2170  0.7046
  106OSM   H11T10820   4.114   4.581   9.773  0.3551 -0.4879 -1.4179
  106OSM   C12S10821   4.305   4.641   9.669  0.0503  0.2381 -0.5479
  106OSM   H12S10822   4.409   4.647   9.709  0.0832  2.7587 -0.8807
  106OSM   H12T10823   4.280   4.743   9.633  1.7541  1.0284  0.4044
  106OSM   C13S10824   4.301   4.549   9.547 -0.1240  0.6485 -0.2185
  106OSM   H13S10825   4.194   4.545   9.516 -0.0919 -1.7978 -0.2205
  106OSM   H13T10826   4.338   4.447   9.574 -0.1133  1.4026  2.9770
  106OSM   C14S10827   4.378   4.605   9.431  0.6479  0.5854 -0.2685
  106OSM   H14S10828   4.405   4.536   9.348  0.4692  0.4957 -0.2539
  106OSM   H14T10829   4.474   4.645   9.468  1.2525 -2.1546  1.3978
  106OSM   C15S10830   4.302   4.721   9.364  0.6025  0.5680 -0.0271
  106OSM   H15S10831   4.334   4.823   9.395 -1.5935  0.9086  1.2707
  106OSM   H15T10832   4.199   4.715   9.404  1.0209 -0.0503  0.9992
  106OSM   C16S10833   4.317   4.717   9.217 -1.1141 -0.0142 -0.2188
  106OSM   H16S10834   4.309   4.611   9.183 -0.3710 -0.4936  1.0202
  106OSM   H16T10835   4.411   4.759   9.178 -1.5486  0.5725 -0.6533
  106OSM   C17S10836   4.203   4.782   9.138  0.9138 -0.3405  0.2879
  106OSM   H17S10837   4.115   4.714   9.150  0.3822  0.5388  1.6900
  106OSM   H17T10838   4.217   4.789   9.028 -2.2616 -0.7693 -0.2357
  106OSM   C18S10839   4.156   4.910   9.193  0.8659 -0.2316 -0.0292
  106OSM   H18S10840   4.226   4.996   9.179  1.7410 -0.7102  1.2400
  106OSM   H18T10841   4.145   4.912   9.303 -2.1626 -0.9809 -0.2287
  106OSM   H18U10842   4.064   4.953   9.148  1.2916  1.5800  0.7379
  106OSM    C1F10843   3.860   3.894  10.377 -0.4173  0.2830 -0.6334
  106OSM     OF10844   3.748   3.934  10.346  0.1491 -0.4082 -0.3710
  106OSM    C2F10845   3.911   3.754  10.347 -0.2718  0.0819  0.4160
  106OSM    H2F10846   3.833   3.677  10.363 -0.5370  0.3989  0.6673
  106OSM    H2G10847   3.996   3.728  10.412  2.1144  1.4207 -1.9656
  106OSM    C3F10848   3.947   3.747  10.197  0.1672  0.6558 -0.0326
  106OSM    H3F10849   3.853   3.741  10.138  1.8369 -0.9827 -2.7463
  106OSM    H3G10850   4.007   3.656  10.176  2.2619  2.1396 -0.8393
  106OSM    C4F10851   4.037   3.861  10.139  0.4171  0.1255  0.0272
  106OSM    H4F10852   4.118   3.892  10.209  0.3586  1.9418 -0.6708
  106OSM    H4G10853   3.974   3.952  10.137  0.0211 -0.1585 -1.2108
  106OSM    C5F10854   4.084   3.838   9.996  0.1441 -0.9507  0.9699
  106OSM    H5F10855   4.081   3.729   9.970 -1.3229 -0.3546 -1.7498
  106OSM    H5G10856   4.190   3.868   9.977 -0.5585 -0.4133 -3.0015
  106OSM    C6F10857   4.004   3.921   9.892 -0.5809  0.0127 -0.4443
  106OSM    H6F10858   4.015   4.029   9.916 -0.5012 -0.4208  1.7346
  106OSM    H6G10859   3.896   3.902   9.912 -0.1393 -3.2058 -0.6326
  106OSM    C7F10860   4.040   3.891   9.749  0.3574 -1.3833 -0.0262
  106OSM    H7F10861   3.995   3.794   9.718 -0.3045 -0.4790 -2.1098
  106OSM    H7G10862   4.147   3.890   9.722  0.0370  0.5569 -1.6598
  106OSM    C8F10863   3.987   4.010   9.661  0.2868 -0.3223  0.0334
  106OSM    H8F10864   4.032   4.105   9.697 -1.0381 -0.1402  1.3501
  106OSM    H8G10865   3.879   4.030   9.673  0.2009 -0.8520  0.1795
  106OSM    C9F10866   4.007   3.982   9.513  0.7800 -0.1081 -0.1508
  106OSM    H9F10867   3.932   3.906   9.484 -0.7190  1.2384  0.0698
  106OSM   C10F10868   4.088   4.027   9.412  0.2889  0.3096  0.1940
  106OSM   H10F10869   4.089   3.969   9.318  1.7948 -0.2915  0.5451
  106OSM   C11F10870   4.191   4.132   9.422  0.6152  0.2636  0.1047
  106OSM   H11F10871   4.289   4.083   9.402 -1.0297 -2.8929 -0.9432
  106OSM   H11G10872   4.193   4.170   9.527 -1.5896  0.4729  0.1243
  106OSM   C12F10873   4.178   4.261   9.338 -0.2887  0.3254 -0.1780
  106OSM   H12F10874   4.256   4.332   9.372 -0.1870  0.8799 -1.4997
  106OSM   H12G10875   4.080   4.311   9.354  0.0706  0.7613  0.7229
  106OSM   C13F10876   4.188   4.234   9.189  0.3711  0.6210 -0.9796
  106OSM   H13F10877   4.087   4.199   9.161 -0.0425  0.5799  0.4846
  106OSM   H13G10878   4.250   4.147   9.156 -2.4466 -1.1024 -2.0279
  106OSM   C14F10879   4.222   4.362   9.115  0.3071  0.2755  0.3238
  106OSM   H14F10880   4.309   4.405   9.169  0.5664 -0.4671  0.5130
  106OSM   H14G10881   4.134   4.424   9.142  1.0918  1.5336  0.0942
  106OSM   C15F10882   4.224   4.350   8.967  0.5966 -0.2292 -0.5328
  106OSM   H15F10883   4.119   4.333   8.936  0.5609 -0.5218 -0.2581
  106OSM   H15G10884   4.288   4.260   8.948  0.2952 -0.4517 -0.5001
  106OSM   C16F10885   4.285   4.471   8.893 -0.1313 -0.0222 -0.1671
  106OSM   H16F10886   4.390   4.485   8.927 -0.5423 -0.3876  1.3081
  106OSM   H16G10887   4.216   4.556   8.912  0.5101  0.2517  1.0500
  106OSM   C17F10888   4.292   4.455   8.739  0.2793 -0.0295  0.2403
  106OSM   H17F10889   4.356   4.366   8.721  2.7067  1.5795  0.4393
  106OSM   H17G10890   4.357   4.531   8.690  2.7776 -1.9160  0.4598
  106OSM   C18F10891   4.152   4.437   8.677 -0.0865  0.2280 -0.0049
  106OSM   H18F10892   4.100   4.344   8.708 -1.5870  0.8932 -0.4685
  106OSM   H18G10893   4.157   4.439   8.566  0.7867  0.0288  0.0183
  106OSM   H18H10894   4.085   4.521   8.704 -0.9478 -1.0122  1.8449
  107OSM      N10895   5.431   4.447  11.074  0.9250 -0.6106  1.0417
  107OSM    C1510896   5.551   4.537  11.090  0.8580  0.0059  0.2209
  107OSM   H15A10897   5.622   4.521  11.011  2.1715 -0.1386  1.3851
  107OSM   H15B10898   5.611   4.499  11.171 -1.0529 -1.0671  1.2111
  107OSM   H15C10899   5.526   4.642  11.101  1.3550  0.1785 -0.2739
  107OSM    C1410900   5.481   4.307  11.075  0.2216  0.3436 -0.3884
  107OSM   H14A10901   5.548   4.289  10.993  1.9003  0.5048  0.8922
  107OSM   H14B10902   5.398   4.238  11.065  0.4615  0.1385 -0.9716
  107OSM   H14C10903   5.532   4.283  11.167 -2.0503 -1.8914  0.4081
  107OSM    C1310904   5.339   4.455  11.191  0.1209 -0.6715  0.2321
  107OSM   H13A10905   5.278   4.543  11.178  2.9405  1.4222  0.1248
  107OSM   H13B10906   5.382   4.482  11.287  0.5212  0.7839 -0.3396
  107OSM   H13C10907   5.270   4.374  11.211 -0.5245 -0.3176 -0.4997
  107OSM    C1210908   5.358   4.482  10.949  0.4450 -0.0349  0.3215
  107OSM   H12A10909   5.327   4.584  10.963  3.5591  0.8894  1.4142
  107OSM   H12B10910   5.269   4.421  10.949  0.6794 -0.4143 -0.9972
  107OSM    C1110911   5.432   4.467  10.820 -1.1688 -0.4831 -0.5368
  107OSM   H11A10912   5.355   4.491  10.745 -3.0084  0.1413  1.4570
  107OSM   H11B10913   5.454   4.362  10.791 -2.1484 -1.0884  0.7775
  107OSM      P10914   5.677   4.554  10.746  0.1450  0.0232  0.0162
  107OSM    O1310915   5.718   4.687  10.693 -0.9516  0.3654 -0.1368
  107OSM    O1410916   5.770   4.488  10.842  0.6831 -0.1391 -0.1756
  107OSM    O1110917   5.645   4.440  10.638 -0.2360  0.2640  0.0130
  107OSM    O1210918   5.533   4.565  10.813 -0.4419  0.1519 -0.0077
  107OSM    C1S10919   5.737   4.425  10.521 -0.0042  0.1927  0.7710
  107OSM    H1S10920   5.834   4.383  10.556  0.6797  0.4476 -0.7532
  107OSM    H1T10921   5.760   4.517  10.463 -1.2702  2.1408  3.1871
  107OSM     NF10922   5.772   4.304  10.316  0.5532 -0.2385 -0.0749
  107OSM    HNF10923   5.747   4.345  10.229 -0.7860  0.9730  0.8468
  107OSM    C2S10924   5.681   4.317  10.420 -0.6379  0.3210  0.4858
  107OSM    H2S10925   5.673   4.229  10.488 -0.7338 -1.1438 -1.3453
  107OSM    C3S10926   5.544   4.354  10.368  0.0238  1.3971  0.3561
  107OSM    H3S10927   5.551   4.446  10.305 -1.1312 -0.2543 -2.3411
  107OSM     O310928   5.446   4.383  10.465 -0.0986  0.1442 -0.0006
  107OSM    HO310929   5.491   4.370  10.549  1.6042 -0.9193 -1.0156
  107OSM    C4S10930   5.496   4.244  10.279  0.4872 -0.0938 -0.1429
  107OSM    H4S10931   5.510   4.263  10.171 -0.8666 -0.5525 -0.4111
  107OSM    C5S10932   5.426   4.134  10.310  1.2315  0.6232  0.1519
  107OSM    H5S10933   5.403   4.120  10.417 -1.7410  0.2171 -0.4662
  107OSM    C6S10934   5.374   4.029  10.212 -0.4040 -0.3425 -0.0994
  107OSM    H6S10935   5.277   4.063  10.170  1.4162  1.6606 -3.0486
  107OSM    H6T10936   5.378   3.927  10.255  1.8088 -0.8414 -1.3164
  107OSM    C7S10937   5.460   4.027  10.076  0.8773  0.6839 -0.0717
  107OSM    H7S10938   5.566   4.013  10.105  0.8339 -1.5467 -0.7550
  107OSM    H7T10939   5.434   4.120  10.021  0.6462  0.9084  0.4148
  107OSM    C8S10940   5.412   3.916   9.985 -0.0462  0.1235 -0.2945
  107OSM    H8S10941   5.304   3.906  10.006 -0.2008  0.9154 -0.6901
  107OSM    H8T10942   5.457   3.818  10.013  2.5509  0.9254 -1.3639
  107OSM    C9S10943   5.451   3.947   9.837  0.1368  1.3633 -0.0361
  107OSM    H9S10944   5.390   4.030   9.795 -2.1210  1.1736  2.6037
  107OSM    H9T10945   5.425   3.852   9.786  0.1903  0.9840  0.6348
  107OSM   C10S10946   5.601   3.976   9.818  0.1529  0.1741 -0.7792
  107OSM   H10S10947   5.650   3.883   9.855 -2.4497 -1.3862 -0.9960
  107OSM   H10T10948   5.638   4.059   9.881 -1.7217  0.3280  0.2216
  107OSM   C11S10949   5.658   3.989   9.670 -0.0891  0.2423  0.2072
  107OSM   H11S10950   5.769   3.986   9.681  0.0101 -2.2360 -0.7349
  107OSM   H11T10951   5.620   4.083   9.625  0.2265  0.1056 -0.3569
  107OSM   C12S10952   5.618   3.878   9.571  0.5210  0.8572  0.1612
  107OSM   H12S10953   5.515   3.893   9.533 -0.3032  0.7840  2.2632
  107OSM   H12T10954   5.632   3.780   9.622  1.6115  0.3284 -1.0706
  107OSM   C13S10955   5.686   3.886   9.432  0.0886  0.6137  0.2015
  107OSM   H13S10956   5.796   3.874   9.438 -0.0476 -1.5531 -0.6606
  107OSM   H13T10957   5.659   3.986   9.390 -3.0087 -0.2204 -0.0619
  107OSM   C14S10958   5.643   3.780   9.332  0.5050  0.0989 -0.0941
  107OSM   H14S10959   5.534   3.795   9.316  0.8619  0.6059 -2.5368
  107OSM   H14T10960   5.666   3.681   9.378  1.3092  0.8674  1.2006
  107OSM   C15S10961   5.715   3.804   9.200 -0.1813  0.1667  0.0662
  107OSM   H15S10962   5.824   3.792   9.215 -0.3617  0.3333  1.6953
  107OSM   H15T10963   5.698   3.909   9.170 -0.4490  0.2663  0.5586
  107OSM   C16S10964   5.661   3.722   9.090 -0.2081 -0.0840  0.0216
  107OSM   H16S10965   5.551   3.738   9.085 -0.8727 -3.8018  0.2952
  107OSM   H16T10966   5.674   3.613   9.106 -2.4426 -0.4674 -0.4219
  107OSM   C17S10967   5.725   3.758   8.958  0.1056 -0.0929  0.1729
  107OSM   H17S10968   5.835   3.743   8.970  0.0250  0.3062  1.6591
  107OSM   H17T10969   5.720   3.869   8.945  0.8343  0.3660  3.0158
  107OSM   C18S10970   5.672   3.675   8.847 -0.3374 -0.6340 -0.1380
  107OSM   H18S10971   5.574   3.718   8.818 -1.1030  1.0833  4.1296
  107OSM   H18T10972   5.658   3.573   8.887 -0.0910 -1.2519 -1.5736
  107OSM   H18U10973   5.750   3.666   8.769  0.1631 -0.9688  0.3960
  107OSM    C1F10974   5.889   4.241  10.330 -0.2805  0.0950 -0.1533
  107OSM     OF10975   5.921   4.179  10.434  0.7495  0.0962 -0.1589
  107OSM    C2F10976   5.979   4.258  10.215 -0.8715 -0.4424 -0.3317
  107OSM    H2F10977   6.073   4.286  10.269 -0.3144 -0.6178 -1.1894
  107OSM    H2G10978   5.937   4.342  10.156 -0.4099  0.2971  0.3589
  107OSM    C3F10979   5.986   4.126  10.131  0.6018  0.1874 -0.0128
  107OSM    H3F10980   5.885   4.112  10.086 -0.5308  0.7981  2.2202
  107OSM    H3G10981   6.012   4.039  10.195 -0.6574  0.7755  1.3556
  107OSM    C4F10982   6.075   4.131  10.005  0.6908  0.0941  0.3206
  107OSM    H4F10983   6.183   4.114  10.024  0.6813  1.4874  1.8863
  107OSM    H4G10984   6.052   4.233   9.970  1.9436  0.1273 -0.4459
  107OSM    C5F10985   6.040   4.019   9.904 -0.7451  0.0089  0.2647
  107OSM    H5F10986   5.933   4.004   9.881 -0.5438 -0.6917 -0.2625
  107OSM    H5G10987   6.065   3.930   9.965 -5.7430 -1.1346  1.0680
  107OSM    C6F10988   6.111   4.033   9.767 -0.3475  0.2748  0.1498
  107OSM    H6F10989   6.214   4.023   9.807 -1.2938 -3.2544  2.1330
  107OSM    H6G10990   6.069   4.131   9.737  6.1739  3.2336 -1.0531
  107OSM    C7F10991   6.090   3.925   9.664  0.1255 -0.3014  0.5283
  107OSM    H7F10992   5.982   3.917   9.637  0.2000 -0.3078  0.2276
  107OSM    H7G10993   6.109   3.825   9.707  1.4276 -0.7747 -1.0552
  107OSM    C8F10994   6.174   3.947   9.538 -0.5119  0.1263 -0.1777
  107OSM    H8F10995   6.284   3.941   9.550 -0.3817  1.2239 -0.6838
  107OSM    H8G10996   6.163   4.054   9.510  1.9758  0.7283  0.8144
  107OSM    C9F10997   6.135   3.851   9.420 -0.8612 -0.4808 -0.4840
  107OSM    H9F10998   6.145   3.744   9.444  2.8614 -0.0490  0.6226
  107OSM   C10F10999   6.092   3.885   9.299  0.0267 -0.4017  0.3060
  107OSM   H10F11000   6.050   3.801   9.242 -1.4557  0.0038  0.7595
  107OSM   C11F11001   6.078   4.034   9.252 -0.1830  0.7692  0.4184
  107OSM   H11F11002   6.054   4.104   9.335 -0.3021 -2.5333  3.3590
  107OSM   H11G11003   6.003   4.052   9.171 -0.6566  2.1424  1.1301
  107OSM   C12F11004   6.214   4.077   9.194  0.8468  0.8116 -0.3659
  107OSM   H12F11005   6.299   4.077   9.264  0.7389  0.7695 -0.2341
  107OSM   H12G11006   6.216   4.180   9.152  2.5003  0.7894 -0.3790
  107OSM   C13F11007   6.263   3.972   9.078  0.3890  0.5397 -0.0514
  107OSM   H13F11008   6.219   3.870   9.079 -1.1231  1.1605  1.5234
  107OSM   H13G11009   6.372   3.955   9.096 -0.0531 -0.9721  1.5581
  107OSM   C14F11010   6.242   4.019   8.934  0.4375  0.6089 -0.9413
  107OSM   H14F11011   6.312   4.099   8.904  0.1335  1.6805  1.0761
  107OSM   H14G11012   6.143   4.069   8.923 -0.3370 -0.8484 -0.9880
  107OSM   C15F11013   6.254   3.903   8.835  0.0809  0.1237 -0.1445
  107OSM   H15F11014   6.360   3.869   8.839  0.5197  1.5325  1.1428
  107OSM   H15G11015   6.250   3.937   8.729 -2.6311  0.0924 -0.1196
  107OSM   C16F11016   6.146   3.781   8.846 -0.3009  0.2865  1.0852
  107OSM   H16F11017   6.053   3.820   8.800 -0.6440 -1.1644  0.5209
  107OSM   H16G11018   6.118   3.759   8.952 -3.0751  0.4430  0.4740
  107OSM   C17F11019   6.180   3.650   8.773 -0.5806  0.0268 -0.8883
  107OSM   H17F11020   6.148   3.561   8.831 -0.4081  1.3697  1.3858
  107OSM   H17G11021   6.290   3.641   8.768 -0.6299 -0.2016 -2.0010
  107OSM   C18F11022   6.128   3.631   8.628 -0.1802 -0.3514  0.3775
  107OSM   H18F11023   6.119   3.729   8.575 -4.4245  0.0403  1.4274
  107OSM   H18G11024   6.021   3.601   8.626  0.1427 -1.5127  0.1495
  107OSM   H18H11025   6.187   3.557   8.571  0.4027  1.5779 -1.6851
  108OSM      N11026   2.821   6.258  10.709 -0.1190 -0.0203  0.2248
  108OSM    C1511027   2.879   6.368  10.628 -0.0049  0.2145 -0.1234
  108OSM   H15A11028   2.928   6.323  10.543  0.2296 -0.1516  0.1989
  108OSM   H15B11029   2.953   6.427  10.681 -0.8467  2.2293 -1.0816
  108OSM   H15C11030   2.814   6.438  10.578  1.1168 -1.2282 -3.9895
  108OSM    C1411031   2.941   6.170  10.755  0.0829 -0.5286 -0.2705
  108OSM   H14A11032   2.989   6.117  10.674 -0.1846 -2.1553  0.6047
  108OSM   H14B11033   2.921   6.096  10.831  2.6207 -0.7420  0.2886
  108OSM   H14C11034   3.022   6.234  10.790  1.0053 -1.2714 -0.9920
  108OSM    C1311035   2.751   6.309  10.827  0.4487  0.1463  0.1242
  108OSM   H13A11036   2.663   6.366  10.801 -0.7384 -1.6346 -0.0165
  108OSM   H13B11037   2.807   6.376  10.890  1.3358  0.9688 -1.4808
  108OSM   H13C11038   2.704   6.224  10.876  0.9861 -0.4361 -0.3580
  108OSM    C1211039   2.726   6.172  10.620 -0.2776  0.4631  0.4299
  108OSM   H12A11040   2.695   6.084  10.675  1.6246 -0.0682  0.7146
  108OSM   H12B11041   2.785   6.132  10.539 -0.1083 -0.8895  1.1885
  108OSM    C1111042   2.605   6.244  10.551  0.2811 -0.5919  0.3537
  108OSM   H11A11043   2.567   6.171  10.476 -1.1869  1.1107 -0.6492
  108OSM   H11B11044   2.625   6.335  10.491 -1.6048  0.2902  0.9699
  108OSM      P11045   2.395   6.377  10.631  0.1592  0.4730  0.2352
  108OSM    O1311046   2.266   6.313  10.645  0.0269 -0.1153  0.0969
  108OSM    O1411047   2.420   6.491  10.719  0.3146  0.1103 -0.2125
  108OSM    O1111048   2.397   6.416  10.476 -0.4550  0.6842 -0.0981
  108OSM    O1211049   2.512   6.276  10.655  0.4986  0.7078  0.0755
  108OSM    C1S11050   2.339   6.541  10.441 -0.2753  0.4028  0.1783
  108OSM    H1S11051   2.370   6.616  10.517  2.0800 -2.3627  2.1363
  108OSM    H1T11052   2.230   6.532  10.420 -0.1301 -1.7193  0.1309
  108OSM     NF11053   2.362   6.721  10.260  0.1499  0.5413 -0.0098
  108OSM    HNF11054   2.283   6.744  10.204  0.2321  1.6462  0.2934
  108OSM    C2S11055   2.387   6.582  10.292 -0.6248 -0.3384 -0.4078
  108OSM    H2S11056   2.497   6.564  10.285 -0.4602  1.0395 -2.0972
  108OSM    C3S11057   2.328   6.480  10.184  0.7579 -0.3453 -0.0304
  108OSM    H3S11058   2.218   6.491  10.170  0.8145 -0.8456 -0.9578
  108OSM     O311059   2.330   6.343  10.225 -0.4733  0.3414  0.0021
  108OSM    HO311060   2.361   6.347  10.316  0.2457 -0.0274 -0.2203
  108OSM    C4S11061   2.388   6.517  10.048 -0.2848 -0.1447  0.1438
  108OSM    H4S11062   2.352   6.613  10.007  3.0481  0.6905 -1.1360
  108OSM    C5S11063   2.479   6.447   9.972  0.2303  0.0134  0.3506
  108OSM    H5S11064   2.495   6.339   9.988  2.0188  0.0401 -0.8616
  108OSM    C6S11065   2.534   6.488   9.838 -0.5218  0.0031 -0.1560
  108OSM    H6S11066   2.508   6.404   9.771  2.7155 -3.5290  2.4986
  108OSM    H6T11067   2.645   6.487   9.846 -0.4116  0.5838 -1.4319
  108OSM    C7S11068   2.495   6.627   9.783 -0.4143  0.5914  0.1844
  108OSM    H7S11069   2.532   6.704   9.854  2.0659 -0.8574  0.5770
  108OSM    H7T11070   2.385   6.638   9.768 -0.8133  1.7384  3.2223
  108OSM    C8S11071   2.575   6.652   9.653 -0.0633  0.1246 -0.2968
  108OSM    H8S11072   2.560   6.571   9.577 -2.3517 -0.6124  0.8331
  108OSM    H8T11073   2.678   6.676   9.685 -0.7780  2.0089  0.7018
  108OSM    C9S11074   2.525   6.783   9.589 -0.0783 -0.2970 -0.1783
  108OSM    H9S11075   2.529   6.873   9.655 -0.8978 -0.1200 -0.3595
  108OSM    H9T11076   2.419   6.760   9.561 -0.3126 -1.5845  1.5883
  108OSM   C10S11077   2.608   6.829   9.471 -0.2279  0.0877  0.1366
  108OSM   H10S11078   2.614   6.754   9.389 -0.0311  1.0754 -0.7791
  108OSM   H10T11079   2.707   6.856   9.514 -0.1117 -0.2769  0.1053
  108OSM   C11S11080   2.545   6.952   9.413 -0.1146 -0.3948 -0.0802
  108OSM   H11S11081   2.509   7.017   9.496  2.9374  1.2056  0.1326
  108OSM   H11T11082   2.452   6.908   9.372 -2.0472  1.5911  1.9357
  108OSM   C12S11083   2.620   7.032   9.303  0.5662 -0.1140  0.1236
  108OSM   H12S11084   2.693   7.097   9.355  0.6440 -0.6675  0.7180
  108OSM   H12T11085   2.538   7.091   9.257 -0.3582 -0.9154  0.6840
  108OSM   C13S11086   2.676   6.943   9.188  0.1007  0.5240  0.5312
  108OSM   H13S11087   2.591   6.879   9.154  0.4520 -0.0504  0.7081
  108OSM   H13T11088   2.756   6.886   9.241 -0.5210  1.5456  2.6938
  108OSM   C14S11089   2.730   7.016   9.060  0.4495  0.3748 -0.4299
  108OSM   H14S11090   2.777   6.944   8.990 -1.7747 -0.9576 -0.6562
  108OSM   H14T11091   2.801   7.095   9.092 -0.7787  1.5690 -0.5673
  108OSM   C15S11092   2.613   7.088   8.990  0.6238 -0.0778  0.1995
  108OSM   H15S11093   2.586   7.178   9.048 -0.6225  1.3925 -2.4784
  108OSM   H15T11094   2.520   7.027   8.994  0.5993  0.0017  0.9512
  108OSM   C16S11095   2.638   7.135   8.847  0.5188  0.5255  0.4270
  108OSM   H16S11096   2.692   7.059   8.787 -1.3571 -0.3398 -0.2116
  108OSM   H16T11097   2.699   7.228   8.841  1.5204 -0.1052  0.4974
  108OSM   C17S11098   2.514   7.166   8.755 -0.0082 -0.1562 -1.0161
  108OSM   H17S11099   2.442   7.081   8.750 -2.1174  1.5089 -0.3428
  108OSM   H17T11100   2.553   7.173   8.652 -1.7086 -0.6210 -1.7274
  108OSM   C18S11101   2.440   7.291   8.788  0.3678  0.1020  0.3266
  108OSM   H18S11102   2.349   7.309   8.727 -0.3819  0.8927  1.6341
  108OSM   H18T11103   2.498   7.382   8.762  0.4188  0.0774  0.3535
  108OSM   H18U11104   2.412   7.299   8.895  0.3268  0.0207  0.3222
  108OSM    C1F11105   2.441   6.814  10.313 -0.3735 -0.5628 -0.0493
  108OSM     OF11106   2.532   6.782  10.394  0.0053 -0.2598 -0.1580
  108OSM    C2F11107   2.410   6.961  10.275 -0.0971  0.4218 -0.2598
  108OSM    H2F11108   2.389   7.025  10.364 -2.2672  0.2310 -0.5910
  108OSM    H2G11109   2.318   6.958  10.212 -0.6111 -0.0017  0.4909
  108OSM    C3F11110   2.519   7.020  10.190  0.3933  0.0047  0.1955
  108OSM    H3F11111   2.614   7.033  10.246  0.9231  0.5584 -0.8072
  108OSM    H3G11112   2.492   7.126  10.169  2.2873  0.2986 -1.1112
  108OSM    C4F11113   2.541   6.949  10.059  0.3394  0.0092  0.5479
  108OSM    H4F11114   2.438   6.919  10.030 -0.9235  0.6986  3.8762
  108OSM    H4G11115   2.594   6.859  10.097  1.9962  0.6397 -0.1850
  108OSM    C5F11116   2.617   7.014   9.944 -0.2043  1.2843  0.5276
  108OSM    H5F11117   2.554   7.101   9.913 -1.1341  0.0104 -1.3509
  108OSM    H5G11118   2.615   6.936   9.866  1.3053  1.6657  0.0796
  108OSM    C6F11119   2.763   7.060   9.965  0.0668 -0.1217 -0.0086
  108OSM    H6F11120   2.829   6.972   9.974  1.1479  0.6558 -0.1427
  108OSM    H6G11121   2.778   7.112  10.062 -0.6760  0.9872 -0.4657
  108OSM    C7F11122   2.819   7.154   9.847  0.0070 -0.4767 -0.8194
  108OSM    H7F11123   2.925   7.179   9.870 -0.4363 -0.7895  1.8481
  108OSM    H7G11124   2.752   7.242   9.856  0.5908 -0.0396 -0.6656
  108OSM    C8F11125   2.808   7.093   9.715 -0.2587 -0.5631  0.5027
  108OSM    H8F11126   2.827   7.179   9.647  0.4227 -0.7709  0.4225
  108OSM    H8G11127   2.703   7.060   9.696 -0.9450  1.5013  0.4633
  108OSM    C9F11128   2.908   6.984   9.676 -0.1948 -0.2538 -0.8445
  108OSM    H9F11129   2.927   6.914   9.758  1.4969  0.0441 -0.9439
  108OSM   C10F11130   2.982   6.972   9.569 -0.1812 -0.8298 -0.0032
  108OSM   H10F11131   3.041   6.880   9.556 -0.7291 -0.9270 -2.1620
  108OSM   C11F11132   2.981   7.055   9.449  0.0949  0.3369  0.3116
  108OSM   H11F11133   2.950   7.160   9.466 -0.7861  0.0850  0.3500
  108OSM   H11G11134   2.924   6.997   9.372  0.8096 -0.5506  0.4325
  108OSM   C12F11135   3.113   7.058   9.364 -0.2554  0.3263  0.3204
  108OSM   H12F11136   3.191   7.097   9.433 -0.2687  1.2669 -0.1835
  108OSM   H12G11137   3.096   7.131   9.281 -0.1390 -0.9018 -0.8026
  108OSM   C13F11138   3.159   6.920   9.302 -0.0746  0.2070 -0.9786
  108OSM   H13F11139   3.171   6.845   9.384 -0.7690 -0.8767 -1.8393
  108OSM   H13G11140   3.258   6.937   9.256  0.2115  0.2331 -0.3607
  108OSM   C14F11141   3.067   6.864   9.195 -0.1695  0.4050  0.0058
  108OSM   H14F11142   3.047   6.941   9.117 -0.3275  1.1551  0.7690
  108OSM   H14G11143   2.969   6.850   9.245  1.2975 -1.7018  2.5230
  108OSM   C15F11144   3.106   6.732   9.127 -0.0674  0.1687  0.1319
  108OSM   H15F11145   3.113   6.654   9.206 -1.3385 -1.8019 -1.5647
  108OSM   H15G11146   3.203   6.736   9.075  0.3125 -0.0199  0.8151
  108OSM   C16F11147   3.000   6.667   9.033  0.4527 -0.5127 -0.2443
  108OSM   H16F11148   2.970   6.745   8.960 -2.8689 -0.9431  0.4865
  108OSM   H16G11149   2.908   6.660   9.094  1.5450 -0.3473  1.4993
  108OSM   C17F11150   3.042   6.526   8.987  0.1871  0.4088  0.0411
  108OSM   H17F11151   3.072   6.466   9.076 -0.9570 -0.5826 -0.2049
  108OSM   H17G11152   3.122   6.538   8.912 -0.7290 -2.7302 -1.5993
  108OSM   C18F11153   2.924   6.455   8.925  0.5698  0.0892 -0.6655
  108OSM   H18F11154   2.829   6.479   8.978  1.1430  0.2026  0.3309
  108OSM   H18G11155   2.947   6.348   8.940  1.7091  0.5410  1.0476
  108OSM   H18H11156   2.916   6.486   8.818  0.6935 -1.6532 -1.2128
  109OSM      N11157   3.514   3.762  10.914 -0.4147 -0.6652  0.0783
  109OSM    C1511158   3.410   3.856  10.970  0.4891 -0.5385  0.1428
  109OSM   H15A11159   3.323   3.799  11.001  0.7630 -1.4030 -0.6439
  109OSM   H15B11160   3.401   3.943  10.907  0.6015  1.0047  2.1512
  109OSM   H15C11161   3.445   3.898  11.063  0.4942  0.3306 -0.2457
  109OSM    C1411162   3.464   3.717  10.783 -0.0416  0.1424 -0.3965
  109OSM   H14A11163   3.357   3.703  10.795  0.2464 -0.2679  2.3397
  109OSM   H14B11164   3.521   3.632  10.749  0.7238  0.2129  0.6885
  109OSM   H14C11165   3.478   3.790  10.705  0.1940 -0.1609 -0.6422
  109OSM    C1311166   3.645   3.831  10.877  0.0417  0.3757 -0.3801
  109OSM   H13A11167   3.710   3.755  10.836  0.7619  0.7891 -0.0379
  109OSM   H13B11168   3.699   3.879  10.958 -1.4201  0.6023  0.4929
  109OSM   H13C11169   3.637   3.909  10.804 -1.3038  0.3693 -0.2592
  109OSM    C1211170   3.549   3.644  11.005 -0.1613 -0.4171  0.6606
  109OSM   H12A11171   3.461   3.604  11.052  0.9262 -0.6119  2.6567
  109OSM   H12B11172   3.613   3.680  11.084  0.1944 -1.7204  0.9990
  109OSM    C1111173   3.621   3.520  10.937  0.9932  0.1262  0.2352
  109OSM   H11A11174   3.544   3.486  10.864  0.6952  1.2961 -0.0147
  109OSM   H11B11175   3.636   3.453  11.024  1.4876 -0.0276  0.0390
  109OSM      P11176   3.839   3.423  10.860  0.0846  0.1117 -0.0878
  109OSM    O1311177   3.967   3.459  10.799 -0.2383 -0.0872 -0.0825
  109OSM    O1411178   3.834   3.344  10.987 -0.4089 -0.1119  0.2091
  109OSM    O1111179   3.763   3.335  10.756  0.1557  0.6226 -0.0601
  109OSM    O1211180   3.744   3.548  10.871 -0.2640 -0.2943 -0.0021
  109OSM    C1S11181   3.735   3.386  10.626 -0.5962  0.1045 -0.8108
  109OSM    H1S11182   3.833   3.382  10.574  1.1199  1.6984  2.0739
  109OSM    H1T11183   3.689   3.486  10.613 -0.4588  0.1123 -1.2748
  109OSM     NF11184   3.671   3.312  10.399 -0.1714 -0.4002  0.2731
  109OSM    HNF11185   3.586   3.330  10.351  0.5424 -0.1023 -0.9262
  109OSM    C2S11186   3.652   3.285  10.541  0.4455 -1.2782  0.0661
  109OSM    H2S11187   3.693   3.183  10.557 -2.5149 -2.4113  1.2207
  109OSM    C3S11188   3.500   3.296  10.593 -0.5139  0.1117  0.4763
  109OSM    H3S11189   3.465   3.401  10.581 -1.9044 -0.3340  0.5501
  109OSM     O311190   3.490   3.277  10.731  0.6392  0.4233  0.2144
  109OSM    HO311191   3.580   3.276  10.766  0.9891  0.4080 -0.6429
  109OSM    C4S11192   3.405   3.203  10.526  0.2186  0.0499 -0.0417
  109OSM    H4S11193   3.429   3.100  10.555  1.4972  0.7575  1.5408
  109OSM    C5S11194   3.318   3.227  10.427  0.2871 -0.2797 -0.8075
  109OSM    H5S11195   3.308   3.330  10.389  1.9309 -0.4700 -1.8378
  109OSM    C6S11196   3.236   3.119  10.369 -0.2322 -0.2230 -0.2028
  109OSM    H6S11197   3.129   3.147  10.377  0.2209  1.3173  0.8747
  109OSM    H6T11198   3.258   3.024  10.423 -0.2300 -1.7832 -2.7927
  109OSM    C7S11199   3.279   3.079  10.226  0.1486 -0.7243  0.4194
  109OSM    H7S11200   3.286   3.169  10.161  0.4114 -1.0699 -0.0349
  109OSM    H7T11201   3.202   3.011  10.183 -0.3286  0.5806 -0.8603
  109OSM    C8S11202   3.413   3.002  10.221  0.4172 -0.2472  0.0089
  109OSM    H8S11203   3.417   2.912  10.286  0.5672  0.1455  0.5485
  109OSM    H8T11204   3.489   3.067  10.267 -0.7595  0.0508  1.6187
  109OSM    C9S11205   3.441   2.975  10.072  0.4754 -0.4679 -0.0580
  109OSM    H9S11206   3.360   2.909  10.036  0.0417 -0.7416  1.3412
  109OSM    H9T11207   3.528   2.905  10.072  0.2823 -0.7170  0.5455
  109OSM   C10S11208   3.472   3.085   9.978 -0.1217 -0.0676 -0.4643
  109OSM   H10S11209   3.554   3.145  10.023  0.1735 -0.9625  0.2308
  109OSM   H10T11210   3.378   3.141   9.957  0.0791  0.5834  0.3373
  109OSM   C11S11211   3.524   3.023   9.842  1.3869 -0.1583 -0.5762
  109OSM   H11S11212   3.446   2.950   9.810  1.9484 -0.8382 -0.4206
  109OSM   H11T11213   3.613   2.957   9.854  0.1562 -1.6458  0.9190
  109OSM   C12S11214   3.530   3.126   9.732 -0.2082 -0.8640 -0.7837
  109OSM   H12S11215   3.595   3.202   9.782 -3.3552  0.9464  0.8855
  109OSM   H12T11216   3.430   3.170   9.715  0.8504  1.7089 -0.8964
  109OSM   C13S11217   3.576   3.078   9.600  1.0465  0.6336 -0.1158
  109OSM   H13S11218   3.494   3.005   9.584  0.8393  0.3858  1.8222
  109OSM   H13T11219   3.673   3.024   9.609  0.6449 -0.3147 -1.2413
  109OSM   C14S11220   3.557   3.174   9.481  0.3038  0.0142  0.8180
  109OSM   H14S11221   3.640   3.248   9.480  0.9685 -0.6710 -1.7874
  109OSM   H14T11222   3.461   3.230   9.476  0.4744  0.2080 -3.7479
  109OSM   C15S11223   3.561   3.090   9.359 -0.3721 -0.8253 -0.3341
  109OSM   H15S11224   3.475   3.020   9.366 -0.1679 -0.9099  2.2313
  109OSM   H15T11225   3.656   3.032   9.349 -0.0426 -0.6264  1.4225
  109OSM   C16S11226   3.536   3.167   9.223  0.1299  0.0568  0.0094
  109OSM   H16S11227   3.446   3.231   9.240 -0.4815 -0.0716 -2.3614
  109OSM   H16T11228   3.507   3.090   9.148 -1.8640  1.8888 -1.2355
  109OSM   C17S11229   3.649   3.243   9.155  0.0645 -0.6561  0.3758
  109OSM   H17S11230   3.735   3.183   9.121  0.6707  1.2866 -1.8331
  109OSM   H17T11231   3.700   3.318   9.219 -1.4143  0.4873  0.2915
  109OSM   C18S11232   3.593   3.327   9.037  0.4154  0.2255  0.4440
  109OSM   H18S11233   3.675   3.374   8.979 -2.3558  1.0057 -3.1789
  109OSM   H18T11234   3.531   3.415   9.065  2.1339  1.8366 -0.6306
  109OSM   H18U11235   3.531   3.266   8.968  0.7803  0.7466 -0.3596
  109OSM    C1F11236   3.793   3.297  10.332  0.9901  0.1521  0.1099
  109OSM     OF11237   3.898   3.264  10.383  0.0237  0.1615  0.0444
  109OSM    C2F11238   3.790   3.322  10.183  0.4274 -0.0397 -0.2996
  109OSM    H2F11239   3.797   3.432  10.171 -1.2740  0.0469 -0.7960
  109OSM    H2G11240   3.695   3.286  10.138  0.5394  1.2598 -1.6439
  109OSM    C3F11241   3.906   3.251  10.110  0.3663  0.2384  0.2130
  109OSM    H3F11242   3.894   3.142  10.130 -1.1945 -0.0399 -1.8255
  109OSM    H3G11243   4.001   3.296  10.143  0.6703 -0.7634  0.7564
  109OSM    C4F11244   3.903   3.278   9.960  0.3387  0.2377  0.3837
  109OSM    H4F11245   3.817   3.225   9.915 -0.1918  1.0245  0.4624
  109OSM    H4G11246   3.992   3.229   9.913 -0.4428 -0.8536 -0.0075
  109OSM    C5F11247   3.900   3.424   9.909 -0.1062  0.4068  0.3562
  109OSM    H5F11248   4.002   3.468   9.910 -0.0582  0.3100 -0.0108
  109OSM    H5G11249   3.850   3.494   9.978 -1.2506  0.2943 -0.3352
  109OSM    C6F11250   3.845   3.443   9.771 -0.0333  0.3372 -0.4564
  109OSM    H6F11251   3.841   3.549   9.738  0.5574  0.1735 -1.0974
  109OSM    H6G11252   3.744   3.397   9.781  0.3986 -0.8555 -1.3579
  109OSM    C7F11253   3.902   3.360   9.649  0.7819 -0.5920 -0.3852
  109OSM    H7F11254   3.862   3.257   9.659  4.8230 -2.2207  0.8361
  109OSM    H7G11255   4.010   3.345   9.667  0.9254 -0.5154 -1.1540
  109OSM    C8F11256   3.856   3.415   9.515 -0.0477 -0.5117 -0.1027
  109OSM    H8F11257   3.747   3.434   9.523 -0.2694 -1.8261  0.0944
  109OSM    H8G11258   3.871   3.336   9.439 -1.0472 -1.0648  0.2652
  109OSM    C9F11259   3.916   3.546   9.472 -0.5251  0.0704  0.1241
  109OSM    H9F11260   3.920   3.613   9.559  0.5181  0.3628 -0.1389
  109OSM   C10F11261   3.963   3.594   9.354  0.8333  0.6252  0.3344
  109OSM   H10F11262   3.995   3.699   9.359 -2.4685  1.7288  0.7965
  109OSM   C11F11263   3.968   3.519   9.221 -0.1647  0.6358  0.2757
  109OSM   H11F11264   3.963   3.410   9.239 -1.2978  0.2512 -2.0858
  109OSM   H11G11265   4.068   3.542   9.178  0.1611 -0.7739  0.2454
  109OSM   C12F11266   3.856   3.555   9.124 -0.0540  0.3853 -0.5349
  109OSM   H12F11267   3.766   3.533   9.185  0.8907  0.0484  0.7737
  109OSM   H12G11268   3.854   3.498   9.028 -1.9287  0.6414 -0.6864
  109OSM   C13F11269   3.855   3.706   9.085 -0.4412  0.2818  0.2565
  109OSM   H13F11270   3.822   3.751   9.182 -1.3653  1.4978 -0.5889
  109OSM   H13G11271   3.774   3.732   9.014 -0.6301 -2.1068 -0.4617
  109OSM   C14F11272   3.988   3.770   9.045 -0.2591 -0.1820  0.2075
  109OSM   H14F11273   4.006   3.723   8.946  1.7387 -1.0276  0.9172
  109OSM   H14G11274   4.070   3.747   9.117  0.0706 -1.9600 -0.6841
  109OSM   C15F11275   3.968   3.918   9.024  0.0501 -0.0513 -0.0740
  109OSM   H15F11276   4.072   3.951   9.005 -0.0097  0.3270  0.2264
  109OSM   H15G11277   3.930   3.964   9.118  1.4701  0.7628  0.1345
  109OSM   C16F11278   3.891   3.946   8.897  0.4910 -0.1082 -0.0235
  109OSM   H16F11279   3.783   3.924   8.904  0.0732  1.4332 -1.1808
  109OSM   H16G11280   3.928   3.894   8.806 -2.4033 -1.6528 -0.4177
  109OSM   C17F11281   3.900   4.092   8.860 -0.4932 -0.5184  0.9781
  109OSM   H17F11282   4.004   4.122   8.837  0.2525 -2.4632  1.6541
  109OSM   H17G11283   3.869   4.148   8.951 -0.7502 -0.4756  0.8663
  109OSM   C18F11284   3.812   4.129   8.746 -0.0849  0.1921 -0.1855
  109OSM   H18F11285   3.827   4.237   8.726  0.6522  0.2883  0.8391
  109OSM   H18G11286   3.706   4.105   8.769  0.4789 -0.4807  1.8790
  109OSM   H18H11287   3.839   4.061   8.662 -0.6309 -1.6187  1.0599
  110OSM      N11288   2.196   2.137  10.977  0.1052  0.3047  0.2289
  110OSM    C1511289   2.248   2.275  10.988 -0.3877  0.3564  0.7512
  110OSM   H15A11290   2.243   2.314  11.088  1.4948 -0.9615  1.4326
  110OSM   H15B11291   2.200   2.339  10.915  0.9903 -0.4014 -0.9008
  110OSM   H15C11292   2.354   2.276  10.966 -0.6579 -1.4244 -0.9240
  110OSM    C1411293   2.053   2.147  11.012  0.1496 -0.4184  0.2943
  110OSM   H14A11294   2.047   2.162  11.119  0.8769 -3.0305  0.7702
  110OSM   H14B11295   1.996   2.055  11.008 -1.3185  0.3506  2.0179
  110OSM   H14C11296   1.996   2.227  10.968 -0.7453 -2.0661 -1.7296
  110OSM    C1311297   2.218   2.101  10.834 -0.0132 -0.9203  0.1439
  110OSM   H13A11298   2.322   2.117  10.810 -0.3011 -0.5506 -0.9176
  110OSM   H13B11299   2.163   2.180  10.785  1.6657 -0.7595 -1.5770
  110OSM   H13C11300   2.179   2.004  10.808 -1.2525 -0.3820 -0.1271
  110OSM    C1211301   2.257   2.039  11.072 -0.4351  0.6435  0.4289
  110OSM   H12A11302   2.197   1.949  11.073 -1.6851  1.4464  1.2407
  110OSM   H12B11303   2.257   2.079  11.172  0.1778 -0.2091  0.7822
  110OSM    C1111304   2.408   1.997  11.059 -0.1661 -0.2420  0.6718
  110OSM   H11A11305   2.420   1.957  10.956 -1.5878  2.0129 -0.4468
  110OSM   H11B11306   2.433   1.912  11.126 -1.1326 -0.5162  0.6958
  110OSM      P11307   2.656   2.076  11.039  0.1843 -0.4863  0.0866
  110OSM    O1311308   2.740   2.091  11.154 -0.1545 -0.1775 -0.5462
  110OSM    O1411309   2.663   1.944  10.972  0.1850  0.3685 -0.3330
  110OSM    O1111310   2.688   2.187  10.930  0.0178 -0.3305  0.5080
  110OSM    O1211311   2.505   2.105  11.083  0.4797 -0.6661 -0.0236
  110OSM    C1S11312   2.603   2.285  10.870 -0.4448  0.1011 -0.0281
  110OSM    H1S11313   2.604   2.382  10.923 -1.5575 -0.3420  0.8590
  110OSM    H1T11314   2.498   2.248  10.870 -0.1404 -0.8022 -0.5630
  110OSM     NF11315   2.538   2.401  10.656  0.0448  0.1258  0.1794
  110OSM    HNF11316   2.473   2.369  10.587  0.7825  1.7991 -1.3860
  110OSM    C2S11317   2.637   2.311  10.722 -0.5555 -0.9523 -0.3460
  110OSM    H2S11318   2.733   2.365  10.705 -1.0469 -0.3808 -1.4528
  110OSM    C3S11319   2.652   2.178  10.635 -0.0288 -0.5909  0.1860
  110OSM    H3S11320   2.561   2.117  10.656  0.8653 -2.7431 -1.6953
  110OSM     O311321   2.759   2.094  10.683 -0.0557 -0.1319  0.3418
  110OSM    HO311322   2.769   2.124  10.774 -0.0329 -2.1223  1.0404
  110OSM    C4S11323   2.676   2.207  10.492  0.4424 -0.0198 -0.4856
  110OSM    H4S11324   2.585   2.220  10.432  0.8855  1.8895 -0.8023
  110OSM    C5S11325   2.794   2.225  10.430 -0.3338  0.0543 -0.0688
  110OSM    H5S11326   2.887   2.217  10.488  0.6552 -0.8066 -1.6679
  110OSM    C6S11327   2.827   2.252  10.290 -0.5815 -0.1231  0.2075
  110OSM    H6S11328   2.907   2.178  10.269 -1.0481 -0.8691  0.9999
  110OSM    H6T11329   2.868   2.356  10.290 -0.4384 -0.1758  1.1535
  110OSM    C7S11330   2.713   2.255  10.188 -0.7723  0.1533  0.0221
  110OSM    H7S11331   2.623   2.311  10.220 -2.7170 -2.5420 -0.4828
  110OSM    H7T11332   2.680   2.151  10.168  0.0879 -0.4301  1.4358
  110OSM    C8S11333   2.779   2.310  10.062 -0.4663 -0.5795 -0.6764
  110OSM    H8S11334   2.868   2.246  10.043  1.6634  2.2628 -0.8329
  110OSM    H8T11335   2.816   2.410  10.091 -1.6216 -0.4254  0.3261
  110OSM    C9S11336   2.693   2.310   9.944 -0.0050  0.5182 -0.3607
  110OSM    H9S11337   2.622   2.394   9.957  0.4891  0.6031  2.2532
  110OSM    H9T11338   2.635   2.216   9.933  0.3864  0.0661  1.2470
  110OSM   C10S11339   2.780   2.326   9.820  0.5953 -0.0837 -0.6191
  110OSM   H10S11340   2.853   2.243   9.813  3.2743  1.9839  1.1006
  110OSM   H10T11341   2.827   2.424   9.843 -0.4378 -0.0407  1.5408
  110OSM   C11S11342   2.698   2.349   9.690  0.1216 -0.8888  0.2846
  110OSM   H11S11343   2.622   2.425   9.717  2.6068  0.7936  3.3169
  110OSM   H11T11344   2.633   2.260   9.679 -1.8047  0.5038 -0.1094
  110OSM   C12S11345   2.787   2.377   9.564  0.3484  0.4965  0.0991
  110OSM   H12S11346   2.843   2.282   9.548 -1.4358 -0.3628 -1.3190
  110OSM   H12T11347   2.856   2.463   9.576 -0.8043  1.5857 -0.7553
  110OSM   C13S11348   2.706   2.392   9.432  0.6715 -0.6350 -0.1033
  110OSM   H13S11349   2.629   2.472   9.442  0.6571 -0.8185  1.5552
  110OSM   H13T11350   2.655   2.294   9.426 -0.8521  0.1566 -0.8445
  110OSM   C14S11351   2.794   2.409   9.309  0.5345  0.4398  0.0419
  110OSM   H14S11352   2.862   2.321   9.312 -0.5403 -0.3842  2.5112
  110OSM   H14T11353   2.855   2.500   9.329 -0.8704  0.9612  2.2739
  110OSM   C15S11354   2.711   2.428   9.187  0.2969 -0.3359 -0.3917
  110OSM   H15S11355   2.631   2.499   9.215 -0.8522 -1.7927  0.1603
  110OSM   H15T11356   2.646   2.340   9.172 -0.9033  0.4415  0.0882
  110OSM   C16S11357   2.788   2.463   9.063 -0.2610 -0.0957 -0.0803
  110OSM   H16S11358   2.857   2.378   9.048  0.8034  1.2140 -3.6262
  110OSM   H16T11359   2.841   2.560   9.082  0.0796 -0.3920  0.5373
  110OSM   C17S11360   2.699   2.475   8.943 -0.3136  0.6549  0.2729
  110OSM   H17S11361   2.613   2.405   8.948 -0.5620  0.8977 -0.5773
  110OSM   H17T11362   2.758   2.449   8.853 -0.6812 -0.2027  0.2750
  110OSM   C18S11363   2.637   2.610   8.921  0.9845  0.2473 -0.7063
  110OSM   H18S11364   2.582   2.605   8.825 -1.6536 -5.1064  0.7072
  110OSM   H18T11365   2.711   2.690   8.902  1.1116  0.1849 -0.4901
  110OSM   H18U11366   2.573   2.642   9.006 -0.8968 -0.6586 -1.7135
  110OSM    C1F11367   2.537   2.527  10.688 -0.0831  0.6392 -0.4850
  110OSM     OF11368   2.611   2.565  10.780  0.2788  0.5108 -0.5608
  110OSM    C2F11369   2.449   2.622  10.623 -0.5810  0.0359  0.3211
  110OSM    H2F11370   2.363   2.619  10.693  0.3979 -0.3918  1.5370
  110OSM    H2G11371   2.405   2.578  10.531  0.4417 -1.2102  0.3929
  110OSM    C3F11372   2.491   2.767  10.611 -0.4541  0.6383  0.0846
  110OSM    H3F11373   2.577   2.777  10.541  0.6177  0.9358  1.4048
  110OSM    H3G11374   2.517   2.805  10.712 -2.9881 -0.2162  1.1476
  110OSM    C4F11375   2.384   2.854  10.541  0.1947  0.2846 -0.1013
  110OSM    H4F11376   2.428   2.957  10.540 -1.3830  1.1603  3.3570
  110OSM    H4G11377   2.291   2.856  10.601  0.1238 -1.3563 -0.1258
  110OSM    C5F11378   2.344   2.824  10.396 -0.2242  0.2923  0.3035
  110OSM    H5F11379   2.332   2.717  10.369  2.8213  0.0768 -0.5991
  110OSM    H5G11380   2.436   2.842  10.337 -0.2802 -1.7553 -0.4709
  110OSM    C6F11381   2.235   2.927  10.345  0.0085 -0.9467  0.8041
  110OSM    H6F11382   2.277   3.027  10.370  1.2542 -0.8784 -1.2995
  110OSM    H6G11383   2.139   2.905  10.395 -1.6630  0.0503 -1.7683
  110OSM    C7F11384   2.203   2.914  10.196 -0.6687 -0.3793 -0.2162
  110OSM    H7F11385   2.099   2.951  10.182 -0.5823  0.1457  0.4997
  110OSM    H7G11386   2.205   2.807  10.167 -1.6922 -0.4547 -0.0269
  110OSM    C8F11387   2.303   3.007  10.121 -0.0144  0.1071  0.0064
  110OSM    H8F11388   2.401   3.011  10.174  1.1761 -1.3985 -1.9230
  110OSM    H8G11389   2.246   3.103  10.126 -0.2633 -0.0953  1.3417
  110OSM    C9F11390   2.345   2.961   9.984 -0.0852 -0.3080 -0.4962
  110OSM    H9F11391   2.444   2.912   9.980 -0.3706 -1.0556  1.1197
  110OSM   C10F11392   2.279   2.968   9.869  0.5540  0.0445 -0.2354
  110OSM   H10F11393   2.331   2.915   9.787 -1.2422 -1.1561 -0.6602
  110OSM   C11F11394   2.139   3.016   9.848  0.2323 -0.4158  0.0579
  110OSM   H11F11395   2.086   3.027   9.945  0.7508 -0.9133  0.4061
  110OSM   H11G11396   2.076   2.936   9.805 -1.0005  0.2688  0.5408
  110OSM   C12F11397   2.119   3.155   9.782 -0.3330  0.0803 -0.7692
  110OSM   H12F11398   2.206   3.214   9.820  1.6142 -1.9453 -1.7997
  110OSM   H12G11399   2.017   3.192   9.803 -0.6794 -1.4112  0.3634
  110OSM   C13F11400   2.124   3.136   9.635 -0.1500  0.5601  1.0356
  110OSM   H13F11401   2.043   3.197   9.590 -0.3553 -0.4651 -0.0403
  110OSM   H13G11402   2.098   3.032   9.606 -0.6884  1.0264 -0.2298
  110OSM   C14F11403   2.259   3.175   9.560 -0.3852  0.4228  0.4200
  110OSM   H14F11404   2.351   3.121   9.591  0.6199  1.8941  0.1465
  110OSM   H14G11405   2.274   3.285   9.559 -1.3409  0.6618 -3.3060
  110OSM   C15F11406   2.260   3.145   9.407 -0.1734  0.2445 -0.4032
  110OSM   H15F11407   2.244   3.035   9.411 -2.4468  0.5554  2.3743
  110OSM   H15G11408   2.350   3.162   9.344 -0.3296 -0.2393 -0.7661
  110OSM   C16F11409   2.137   3.191   9.323 -1.4761  0.4199 -0.2545
  110OSM   H16F11410   2.102   3.289   9.362  0.8347  1.0179  0.4911
  110OSM   H16G11411   2.056   3.122   9.357  2.5264 -3.6334  2.1928
  110OSM   C17F11412   2.163   3.197   9.172  0.6972  0.2773 -1.0317
  110OSM   H17F11413   2.188   3.092   9.143 -0.9155 -0.9094  1.4762
  110OSM   H17G11414   2.253   3.258   9.152  0.7935  0.6969  0.5477
  110OSM   C18F11415   2.044   3.249   9.084 -0.1599 -0.3725  0.5967
  110OSM   H18F11416   2.077   3.248   8.977  1.1542 -0.2360  0.9860
  110OSM   H18G11417   2.011   3.350   9.115  0.3837 -0.3046  0.9420
  110OSM   H18H11418   1.955   3.182   9.088 -2.0008  1.9927  1.4627
  111OSM      N11419   4.154   5.680  10.696 -0.5008  0.1082 -0.6813
  111OSM    C1511420   4.259   5.572  10.664 -0.2670 -0.7670 -0.0669
  111OSM   H15A11421   4.291   5.513  10.749  1.1999 -0.8902 -0.6747
  111OSM   H15B11422   4.346   5.614  10.616 -0.6099 -1.6990 -1.5826
  111OSM   H15C11423   4.217   5.499  10.596  1.4115  0.2611 -2.3160
  111OSM    C1411424   4.029   5.622  10.751 -0.0038  0.4540  0.0141
  111OSM   H14A11425   3.957   5.700  10.769  0.1193  0.4590  0.4952
  111OSM   H14B11426   4.045   5.568  10.843 -1.1963  0.3209  0.1591
  111OSM   H14C11427   3.982   5.544  10.693 -2.3010  1.2960  0.6458
  111OSM    C1311428   4.205   5.770  10.801 -0.6908 -0.1860 -0.6334
  111OSM   H13A11429   4.290   5.826  10.765  0.1917 -1.0206  0.0782
  111OSM   H13B11430   4.228   5.713  10.891 -0.0030 -1.5539 -1.6407
  111OSM   H13C11431   4.130   5.838  10.839  0.6801  1.4016 -0.6722
  111OSM    C1211432   4.114   5.765  10.573 -0.1182  0.3214 -0.4999
  111OSM   H12A11433   4.038   5.838  10.595  1.6230  1.9656  0.3234
  111OSM   H12B11434   4.077   5.694  10.500  1.4012 -0.0508 -0.9408
  111OSM    C1111435   4.233   5.839  10.502 -0.2416  0.4608  0.2620
  111OSM   H11A11436   4.205   5.888  10.406  0.9327  0.0430 -0.3135
  111OSM   H11B11437   4.288   5.748  10.470 -2.2223 -0.2302 -1.3982
  111OSM      P11438   4.276   6.079  10.580  0.2057 -0.3259  0.2653
  111OSM    O1311439   4.127   6.086  10.583 -0.9076 -0.3227 -0.6040
  111OSM    O1411440   4.358   6.134  10.688  0.3661  0.3965 -0.3076
  111OSM    O1111441   4.329   6.130  10.443  0.4237  0.4770  0.1439
  111OSM    O1211442   4.316   5.932  10.575  0.1715  0.3694  0.3315
  111OSM    C1S11443   4.466   6.135  10.400  0.5168 -0.5658 -0.4361
  111OSM    H1S11444   4.539   6.137  10.484  2.2738  0.4967 -1.8975
  111OSM    H1T11445   4.482   6.233  10.349  1.0894  0.1846  1.1093
  111OSM     NF11446   4.646   6.031  10.273  0.1567 -0.3242 -0.2734
  111OSM    HNF11447   4.678   6.044  10.179  0.9756  0.0877  0.0473
  111OSM    C2S11448   4.504   6.024  10.308  0.2783 -0.0003  0.5743
  111OSM    H2S11449   4.485   5.927  10.357 -0.9354 -0.1769 -0.2241
  111OSM    C3S11450   4.414   6.031  10.180 -0.2760 -0.0544  0.0774
  111OSM    H3S11451   4.430   6.130  10.131 -2.1750 -0.2141 -0.9845
  111OSM     O311452   4.277   6.031  10.207 -0.0569  0.3489 -0.2088
  111OSM    HO311453   4.265   6.066  10.295 -0.2988 -2.2432  0.8826
  111OSM    C4S11454   4.454   5.929  10.081 -0.3880  0.1824  0.3673
  111OSM    H4S11455   4.531   5.960  10.008 -2.3053  2.1823 -0.9559
  111OSM    C5S11456   4.411   5.802  10.071  0.4967 -0.2640  0.1445
  111OSM    H5S11457   4.334   5.773  10.145  1.0007 -0.4007  0.6182
  111OSM    C6S11458   4.440   5.696   9.965 -0.4521  0.7298  0.4577
  111OSM    H6S11459   4.352   5.629   9.950  0.2343  0.0798 -0.7721
  111OSM    H6T11460   4.526   5.636  10.003 -0.9298 -0.2335  0.0639
  111OSM    C7S11461   4.478   5.750   9.825  0.6773 -0.0858 -0.5335
  111OSM    H7S11462   4.589   5.740   9.824  0.5368 -3.7291  1.5941
  111OSM    H7T11463   4.434   5.852   9.821  1.2483  0.1821 -0.1358
  111OSM    C8S11464   4.424   5.671   9.705 -0.4532 -0.1464  0.8628
  111OSM    H8S11465   4.315   5.655   9.711 -0.1923 -1.8529  1.8202
  111OSM    H8T11466   4.474   5.574   9.724 -0.3680  0.0700  1.8271
  111OSM    C9S11467   4.467   5.735   9.571 -0.1465  0.3481  0.1691
  111OSM    H9S11468   4.574   5.759   9.584 -0.0747 -0.2902  0.8701
  111OSM    H9T11469   4.409   5.829   9.559 -0.7948 -0.2706 -1.9558
  111OSM   C10S11470   4.429   5.645   9.457  0.6034  0.3940  0.6094
  111OSM   H10S11471   4.325   5.608   9.465  0.6692 -0.0619 -0.4870
  111OSM   H10T11472   4.492   5.554   9.464 -0.5370 -0.4199  0.4237
  111OSM   C11S11473   4.450   5.708   9.317 -0.3434  1.0770 -0.0464
  111OSM   H11S11474   4.555   5.743   9.304 -0.6349  1.5577 -1.2147
  111OSM   H11T11475   4.390   5.801   9.322 -0.4249  0.9709  2.0207
  111OSM   C12S11476   4.385   5.641   9.198  1.3054 -0.0139 -0.7800
  111OSM   H12S11477   4.277   5.654   9.220  1.9917  1.8202  2.1342
  111OSM   H12T11478   4.409   5.533   9.193 -2.6585 -1.0605 -0.6993
  111OSM   C13S11479   4.403   5.702   9.055  0.2799  0.4900  0.0732
  111OSM   H13S11480   4.509   5.736   9.050  0.8410 -1.0932  0.5552
  111OSM   H13T11481   4.344   5.795   9.066  0.0459  0.2724  0.7258
  111OSM   C14S11482   4.360   5.625   8.932 -0.2879 -0.2729  0.0423
  111OSM   H14S11483   4.257   5.584   8.942 -0.5121  0.2956  0.1010
  111OSM   H14T11484   4.424   5.534   8.941 -2.6322 -1.7744  3.4585
  111OSM   C15S11485   4.400   5.697   8.799 -0.0394  0.1380 -0.0143
  111OSM   H15S11486   4.510   5.713   8.793 -0.3033  2.2554 -0.1396
  111OSM   H15T11487   4.357   5.799   8.791  0.8625  0.5205 -0.1143
  111OSM   C16S11488   4.363   5.616   8.672 -0.5983 -0.5306 -0.1628
  111OSM   H16S11489   4.259   5.579   8.685 -1.0217  0.4488 -0.6647
  111OSM   H16T11490   4.423   5.523   8.669  0.6969  0.2102 -4.9906
  111OSM   C17S11491   4.405   5.683   8.549  1.1176 -0.0883  0.6841
  111OSM   H17S11492   4.393   5.612   8.465  2.4864  1.1512 -0.6082
  111OSM   H17T11493   4.513   5.707   8.547  1.2676 -0.7890 -0.0472
  111OSM   C18S11494   4.327   5.815   8.521 -0.2677  0.5125 -0.7868
  111OSM   H18S11495   4.383   5.885   8.586  0.5555 -0.5764 -0.2760
  111OSM   H18T11496   4.218   5.806   8.544 -0.5951  1.0886 -2.0418
  111OSM   H18U11497   4.334   5.848   8.416 -0.8216 -0.4086 -1.1272
  111OSM    C1F11498   4.736   5.985  10.361 -0.4421 -0.7781 -0.1406
  111OSM     OF11499   4.704   5.966  10.478 -0.5708  0.3293  0.2441
  111OSM    C2F11500   4.880   5.969  10.311  0.0744 -0.1368  0.6350
  111OSM    H2F11501   4.954   6.015  10.379  1.2518  1.2652 -1.4924
  111OSM    H2G11502   4.885   6.040  10.226 -1.5959  0.3522  0.8888
  111OSM    C3F11503   4.916   5.821  10.279 -0.1769  0.3384  0.6111
  111OSM    H3F11504   4.901   5.760  10.371  1.3549 -0.2068  0.5296
  111OSM    H3G11505   5.025   5.821  10.256 -0.5964 -1.7533 -1.8873
  111OSM    C4F11506   4.843   5.769  10.154  0.4113  0.3099  0.2225
  111OSM    H4F11507   4.853   5.852  10.080  1.6174  2.3469  2.4975
  111OSM    H4G11508   4.735   5.752  10.171 -0.1709  1.8548 -1.5903
  111OSM    C5F11509   4.904   5.636  10.106  0.0432 -0.2965  0.5371
  111OSM    H5F11510   4.883   5.558  10.183  1.0853  0.6393  1.8163
  111OSM    H5G11511   5.015   5.647  10.106 -0.0574  0.9871 -1.1973
  111OSM    C6F11512   4.851   5.592   9.963 -1.1708 -0.1026  0.3556
  111OSM    H6F11513   4.921   5.635   9.889  0.8064 -1.4952  1.3359
  111OSM    H6G11514   4.751   5.640   9.958 -0.8366  0.5146 -0.9114
  111OSM    C7F11515   4.856   5.445   9.938  0.7867  0.5400 -0.3801
  111OSM    H7F11516   4.781   5.399  10.006  0.5047  0.2173 -0.8989
  111OSM    H7G11517   4.955   5.405   9.968 -0.0536 -1.5490 -0.1502
  111OSM    C8F11518   4.825   5.406   9.792 -0.6966  0.5894 -0.2581
  111OSM    H8F11519   4.731   5.463   9.780  0.3637  2.7177  0.9925
  111OSM    H8G11520   4.798   5.298   9.793  0.3314  0.2960  1.4694
  111OSM    C9F11521   4.950   5.420   9.708  0.4872 -0.3266  0.3583
  111OSM    H9F11522   5.037   5.359   9.738 -0.1416 -0.9728  0.9204
  111OSM   C10F11523   4.962   5.500   9.598  0.0497  0.3596  0.0514
  111OSM   H10F11524   5.053   5.492   9.537 -0.0360 -1.4875  0.1114
  111OSM   C11F11525   4.855   5.588   9.537 -0.4201  0.4970  0.1288
  111OSM   H11F11526   4.890   5.693   9.532  0.9419  0.0030 -2.9627
  111OSM   H11G11527   4.761   5.581   9.597  0.0869  0.4158  0.9290
  111OSM   C12F11528   4.817   5.553   9.389 -0.5528 -0.0718  0.0018
  111OSM   H12F11529   4.709   5.567   9.366 -1.5007 -1.2932  3.1865
  111OSM   H12G11530   4.847   5.447   9.375  0.8264  0.1548  1.0094
  111OSM   C13F11531   4.902   5.620   9.277 -0.0212  0.1368  0.6275
  111OSM   H13F11532   5.010   5.608   9.298  0.3139  3.3625  1.2088
  111OSM   H13G11533   4.894   5.730   9.292 -2.1942  0.1916 -0.4819
  111OSM   C14F11534   4.851   5.593   9.133 -0.3243 -0.2594  0.5221
  111OSM   H14F11535   4.741   5.609   9.129 -0.6052 -1.9700  0.6538
  111OSM   H14G11536   4.873   5.490   9.097 -0.2567 -0.3681  0.8730
  111OSM   C15F11537   4.908   5.692   9.028  0.0001 -0.0403  0.7287
  111OSM   H15F11538   5.013   5.662   9.007  0.6214  1.1070  2.0148
  111OSM   H15G11539   4.925   5.794   9.067  2.7167 -0.1097 -0.0723
  111OSM   C16F11540   4.834   5.700   8.898  0.5571  0.4263 -0.8944
  111OSM   H16F11541   4.727   5.728   8.911  0.6286 -0.0546  1.0306
  111OSM   H16G11542   4.848   5.601   8.850  0.6420  0.0279 -0.0675
  111OSM   C17F11543   4.889   5.810   8.802  0.3854  0.1753  0.5156
  111OSM   H17F11544   4.997   5.791   8.784  0.1938  1.2985 -2.3652
  111OSM   H17G11545   4.882   5.911   8.847  2.3131  0.3683  0.4836
  111OSM   C18F11546   4.818   5.805   8.662  0.1061 -0.4276 -0.4773
  111OSM   H18F11547   4.852   5.890   8.598  0.0253  0.1994  0.2879
  111OSM   H18G11548   4.708   5.808   8.675  0.2112  0.9546  0.3310
  111OSM   H18H11549   4.844   5.713   8.606 -0.9959 -0.8870 -0.2556
  112OSM      N11550   3.190   4.243  10.919 -0.1479 -0.0069 -0.5483
  112OSM    C1511551   3.277   4.231  11.028  0.1473 -0.4996 -0.1272
  112OSM   H15A11552   3.221   4.182  11.105 -2.2127  2.9003  0.5132
  112OSM   H15B11553   3.305   4.326  11.071 -0.7963 -1.0607  1.8351
  112OSM   H15C11554   3.375   4.190  11.004  0.0754 -0.9305  0.3028
  112OSM    C1411555   3.070   4.326  10.959  0.0737 -0.0361 -0.1112
  112OSM   H14A11556   3.042   4.291  11.057  0.7898  0.0360  0.1300
  112OSM   H14B11557   2.987   4.316  10.890 -2.3019  3.3827  1.9404
  112OSM   H14C11558   3.097   4.430  10.973 -0.9526  0.1627  0.4617
  112OSM    C1311559   3.264   4.313  10.806 -0.1963 -0.5541  0.2739
  112OSM   H13A11560   3.203   4.313  10.717 -0.0165 -0.0691  0.1530
  112OSM   H13B11561   3.358   4.268  10.780  0.6344  1.8103 -1.0828
  112OSM   H13C11562   3.277   4.418  10.827  0.0536 -0.1583 -1.6945
  112OSM    C1211563   3.154   4.106  10.867  0.0208  0.2236 -0.4775
  112OSM   H12A11564   3.150   4.040  10.952 -0.5148  2.1531  1.0771
  112OSM   H12B11565   3.245   4.074  10.820  0.6580 -1.9010  1.9939
  112OSM    C1111566   3.045   4.083  10.762  0.2737 -0.1845 -0.9395
  112OSM   H11A11567   3.050   3.981  10.718 -1.7881 -0.7076 -0.0821
  112OSM   H11B11568   3.085   4.144  10.678  0.7437 -0.2062 -0.7333
  112OSM      P11569   2.805   4.032  10.859 -0.0558  0.0467 -0.0991
  112OSM    O1311570   2.866   3.936  10.949  0.4134  0.2414 -0.1022
  112OSM    O1411571   2.694   4.107  10.913  0.3634 -0.3232 -0.3910
  112OSM    O1111572   2.759   3.948  10.734  0.4696  0.5076  0.6793
  112OSM    O1211573   2.911   4.128  10.798 -0.0309 -0.0694 -0.5401
  112OSM    C1S11574   2.754   4.015  10.602 -0.3676 -0.0951 -0.1675
  112OSM    H1S11575   2.851   4.068  10.584 -0.2197  0.2109  1.4090
  112OSM    H1T11576   2.681   4.099  10.599  0.2765  0.4595 -1.0807
  112OSM     NF11577   2.777   3.999  10.361  0.2540 -0.0089 -0.0092
  112OSM    HNF11578   2.700   4.012  10.298  0.4245  0.5275 -0.1119
  112OSM    C2S11579   2.739   3.923  10.479 -0.6073 -0.4622 -0.3717
  112OSM    H2S11580   2.814   3.842  10.493  2.0480  1.7703 -0.7859
  112OSM    C3S11581   2.596   3.858  10.477 -0.5170 -1.2673 -0.2055
  112OSM    H3S11582   2.518   3.933  10.453  0.2456  0.1750  1.6056
  112OSM     O311583   2.559   3.820  10.607  0.4580  0.5720  0.0752
  112OSM    HO311584   2.635   3.855  10.655 -0.2220  1.3494  0.6176
  112OSM    C4S11585   2.610   3.738  10.389  0.0509 -0.1755  0.2515
  112OSM    H4S11586   2.672   3.655  10.428  1.1157 -0.6060 -2.1588
  112OSM    C5S11587   2.548   3.723  10.269 -0.4077  0.6570  0.3147
  112OSM    H5S11588   2.480   3.805  10.243  0.8709  1.4347 -0.7493
  112OSM    C6S11589   2.556   3.616  10.160 -0.3034  0.2926  0.0793
  112OSM    H6S11590   2.641   3.547  10.178  0.0276  0.4898 -0.7112
  112OSM    H6T11591   2.578   3.666  10.063 -0.8768  0.0633 -0.1709
  112OSM    C7S11592   2.433   3.527  10.140 -0.2098  0.2201  0.1794
  112OSM    H7S11593   2.342   3.589  10.127 -1.5213 -1.6202  0.3647
  112OSM    H7T11594   2.421   3.475  10.238  2.9229 -1.4278 -0.1891
  112OSM    C8S11595   2.430   3.431  10.020  0.0377  0.0906  0.0798
  112OSM    H8S11596   2.446   3.498   9.933  1.3501 -0.5392 -0.1806
  112OSM    H8T11597   2.332   3.378  10.017  1.2720 -2.2893 -1.7110
  112OSM    C9S11598   2.547   3.327  10.023 -0.1250 -0.0837  0.5757
  112OSM    H9S11599   2.523   3.253  10.102  0.5226  1.3625  2.1919
  112OSM    H9T11600   2.648   3.362  10.052  0.4890  0.3443 -1.8567
  112OSM   C10S11601   2.553   3.244   9.895 -0.5503 -0.1775  0.9004
  112OSM   H10S11602   2.450   3.223   9.861  0.4886 -1.5619 -1.7423
  112OSM   H10T11603   2.594   3.142   9.910  1.3763  0.3551 -0.2618
  112OSM   C11S11604   2.619   3.329   9.783  0.3208  1.0000 -0.2391
  112OSM   H11S11605   2.724   3.348   9.815  1.2578 -2.9958 -0.4965
  112OSM   H11T11606   2.554   3.419   9.770 -0.1901  0.8455  1.1189
  112OSM   C12S11607   2.629   3.251   9.642  0.2186 -0.9363  0.0966
  112OSM   H12S11608   2.534   3.195   9.627  0.3756 -0.7121 -2.1232
  112OSM   H12T11609   2.714   3.179   9.648  1.9375  1.0541  0.8386
  112OSM   C13S11610   2.646   3.336   9.515 -0.1906 -0.1944 -0.0478
  112OSM   H13S11611   2.695   3.282   9.431 -0.0775 -0.4520  0.1814
  112OSM   H13T11612   2.704   3.429   9.533 -0.5289 -0.3904  2.5001
  112OSM   C14S11613   2.517   3.405   9.471 -0.5763  0.2600  0.2803
  112OSM   H14S11614   2.464   3.451   9.557 -2.5256 -2.6827  0.7751
  112OSM   H14T11615   2.445   3.324   9.447 -0.5708 -0.1676  1.6443
  112OSM   C15S11616   2.544   3.501   9.347  0.2758 -0.2509 -0.7783
  112OSM   H15S11617   2.594   3.594   9.382 -1.5088  0.4283  0.0974
  112OSM   H15T11618   2.447   3.520   9.296  0.4219  0.5076 -0.7962
  112OSM   C16S11619   2.625   3.429   9.236  0.5164 -1.5144  0.4180
  112OSM   H16S11620   2.581   3.327   9.231  1.5496 -1.9180 -1.1076
  112OSM   H16T11621   2.733   3.415   9.259  0.9840  1.3058  0.3151
  112OSM   C17S11622   2.628   3.495   9.091 -0.0382 -0.5349 -0.1790
  112OSM   H17S11623   2.719   3.450   9.047 -0.0094  0.8739 -1.6371
  112OSM   H17T11624   2.659   3.601   9.104  5.0343 -1.8080  0.2907
  112OSM   C18S11625   2.506   3.475   9.012 -0.2865  0.4797  0.6806
  112OSM   H18S11626   2.425   3.527   9.068  0.7605 -0.4235  3.1879
  112OSM   H18T11627   2.475   3.370   8.995 -0.6075  0.6137  0.4350
  112OSM   H18U11628   2.526   3.529   8.917 -0.3176 -0.8491 -0.1050
  112OSM    C1F11629   2.902   4.035  10.324  0.4050  0.3106 -0.0192
  112OSM     OF11630   2.997   4.003  10.398  0.0209  0.0216  0.8408
  112OSM    C2F11631   2.920   4.098  10.194 -0.5166  0.1249  0.8627
  112OSM    H2F11632   2.931   4.209  10.199 -0.5270  0.1415  0.5308
  112OSM    H2G11633   2.839   4.066  10.124  0.3518  0.6556 -0.4297
  112OSM    C3F11634   3.054   4.055  10.122  0.3163  0.0136 -1.0434
  112OSM    H3F11635   3.046   3.944  10.122 -1.7116  0.1164  0.2780
  112OSM    H3G11636   3.139   4.088  10.186  0.4781 -1.9204 -0.1815
  112OSM    C4F11637   3.080   4.087   9.975  0.0215 -0.0599 -0.3699
  112OSM    H4F11638   2.989   4.068   9.914 -0.7972 -0.6251  0.9846
  112OSM    H4G11639   3.166   4.021   9.948 -0.2764  0.4974 -2.9314
  112OSM    C5F11640   3.121   4.231   9.945 -0.4865 -0.1387  1.0620
  112OSM    H5F11641   3.228   4.247   9.970 -0.3310 -0.4836  0.6325
  112OSM    H5G11642   3.057   4.298  10.007 -2.4588 -0.5277 -0.4201
  112OSM    C6F11643   3.097   4.282   9.802  0.0425  0.2324 -0.3765
  112OSM    H6F11644   3.124   4.390   9.795 -2.4009  0.9497  0.1290
  112OSM    H6G11645   2.988   4.279   9.780  0.1373 -1.1932 -0.7652
  112OSM    C7F11646   3.174   4.209   9.691  0.2644 -0.7984 -0.0756
  112OSM    H7F11647   3.132   4.106   9.682  2.8224 -1.9000 -0.2287
  112OSM    H7G11648   3.271   4.201   9.745 -1.4629 -0.4958  3.3916
  112OSM    C8F11649   3.179   4.286   9.556 -0.0616  0.1065  0.5848
  112OSM    H8F11650   3.250   4.243   9.482 -0.9417 -0.4730  0.0580
  112OSM    H8G11651   3.210   4.391   9.579 -0.2499  0.2957 -0.0003
  112OSM    C9F11652   3.050   4.299   9.490  0.2725  0.8315 -0.5351
  112OSM    H9F11653   2.966   4.257   9.548  1.1838  0.3143  0.4422
  112OSM   C10F11654   3.023   4.353   9.375  1.0268 -0.4535  0.4321
  112OSM   H10F11655   2.923   4.347   9.331  1.5754  0.4879 -1.0514
  112OSM   C11F11656   3.118   4.426   9.287  0.2724 -0.1266  0.0313
  112OSM   H11F11657   3.205   4.466   9.344 -0.7934  0.1030  1.5465
  112OSM   H11G11658   3.068   4.519   9.253  1.1065 -0.2402 -1.6283
  112OSM   C12F11659   3.160   4.354   9.162 -1.2413  0.5481 -0.2999
  112OSM   H12F11660   3.069   4.335   9.102 -0.9892 -0.8775 -0.2760
  112OSM   H12G11661   3.192   4.248   9.180 -1.5376  0.3542 -0.9107
  112OSM   C13F11662   3.271   4.422   9.072  0.7947 -0.0840 -0.1155
  112OSM   H13F11663   3.370   4.431   9.122  0.5707 -1.1786  0.5491
  112OSM   H13G11664   3.234   4.526   9.056  0.4088 -0.0809  0.7437
  112OSM   C14F11665   3.295   4.354   8.931  0.2967 -0.0085 -0.1993
  112OSM   H14F11666   3.313   4.245   8.929 -0.5909 -0.1481 -1.9502
  112OSM   H14G11667   3.382   4.404   8.883  1.2152 -1.4679 -0.1420
  112OSM   C15F11668   3.161   4.372   8.855  1.0324  0.2175 -0.1148
  112OSM   H15F11669   3.126   4.477   8.865 -2.8264 -0.9674  0.5560
  112OSM   H15G11670   3.073   4.316   8.893 -0.4407  1.3940 -1.6178
  112OSM   C16F11671   3.182   4.323   8.711  0.0502  0.7239 -0.2874
  112OSM   H16F11672   3.083   4.288   8.673 -1.1412  1.9849  1.4537
  112OSM   H16G11673   3.251   4.237   8.717 -1.1221 -0.2392 -0.1744
  112OSM   C17F11674   3.249   4.421   8.615 -0.7647 -0.1978  0.3021
  112OSM   H17F11675   3.357   4.436   8.639  0.0589 -0.2743 -2.9456
  112OSM   H17G11676   3.203   4.521   8.629  0.2515 -0.0234  2.9750
  112OSM   C18F11677   3.247   4.358   8.472  0.4813 -0.6226 -0.2194
  112OSM   H18F11678   3.308   4.266   8.465 -0.6028 -1.3329 -0.7118
  112OSM   H18G11679   3.296   4.427   8.400  4.6225 -2.3693  0.6700
  112OSM   H18H11680   3.148   4.322   8.437  1.1769 -0.3858 -2.6130
  113OSM      N11681   3.653   5.272  11.230  0.5152  0.5660 -0.6209
  113OSM    C1511682   3.742   5.247  11.115 -0.2531 -0.6926  0.8662
  113OSM   H15A11683   3.836   5.300  11.119  1.7037 -3.7130 -0.9529
  113OSM   H15B11684   3.695   5.285  11.025 -0.7357  3.2576  2.5583
  113OSM   H15C11685   3.762   5.143  11.096 -1.0237 -0.7643  0.3776
  113OSM    C1411686   3.737   5.273  11.358 -0.2421 -0.0849 -0.2891
  113OSM   H14A11687   3.678   5.286  11.448  1.0120 -2.1830  0.9245
  113OSM   H14B11688   3.798   5.362  11.351 -0.5745  0.3238  1.4874
  113OSM   H14C11689   3.808   5.191  11.366  0.1635  0.2909 -0.0183
  113OSM    C1311690   3.593   5.412  11.220 -0.2486 -0.6014  0.2162
  113OSM   H13A11691   3.499   5.411  11.167 -0.7121 -0.4450  1.0226
  113OSM   H13B11692   3.651   5.488  11.170 -0.0332 -1.9034 -1.6450
  113OSM   H13C11693   3.566   5.451  11.317 -1.4648  0.8632 -0.6503
  113OSM    C1211694   3.540   5.171  11.242  0.0342  0.0978 -0.3087
  113OSM   H12A11695   3.490   5.190  11.335 -1.6635  2.1486 -1.5455
  113OSM   H12B11696   3.584   5.072  11.247  0.8216  0.4918  1.0087
  113OSM    C1111697   3.443   5.159  11.124 -0.2082 -0.2899  0.3544
  113OSM   H11A11698   3.390   5.256  11.108 -1.0295 -0.8224 -0.2181
  113OSM   H11B11699   3.349   5.104  11.145 -0.9863  1.2088  1.0000
  113OSM      P11700   3.491   5.175  10.860 -0.4270 -0.0727  0.0254
  113OSM    O1311701   3.564   5.303  10.857  0.0583 -0.4361  0.0659
  113OSM    O1411702   3.521   5.071  10.761  0.0109 -0.0573  0.7830
  113OSM    O1111703   3.337   5.203  10.847 -0.2268  0.4754 -0.3622
  113OSM    O1211704   3.512   5.109  11.005 -0.2180 -0.2301  0.2282
  113OSM    C1S11705   3.287   5.291  10.750  1.0409  0.5383  0.8413
  113OSM    H1S11706   3.355   5.379  10.747  2.2260 -0.3306  1.5678
  113OSM    H1T11707   3.186   5.333  10.770 -0.3301  0.3777 -4.2809
  113OSM     NF11708   3.219   5.330  10.511  0.0316 -0.3081  0.1048
  113OSM    HNF11709   3.126   5.315  10.477 -0.2396 -2.2952  1.5765
  113OSM    C2S11710   3.280   5.233  10.601  0.6937 -0.1673  0.0788
  113OSM    H2S11711   3.387   5.215  10.580  0.2061  0.6577 -3.7555
  113OSM    C3S11712   3.187   5.110  10.598 -0.0336  0.9150  0.3531
  113OSM    H3S11713   3.090   5.145  10.638  1.2809  2.2546  2.5667
  113OSM     O311714   3.222   5.008  10.689  0.3896  0.3049  0.2248
  113OSM    HO311715   3.288   5.045  10.749  0.5047 -1.2889  1.1323
  113OSM    C4S11716   3.175   5.052  10.461 -0.0579 -0.3208 -0.0647
  113OSM    H4S11717   3.273   5.023  10.418 -0.4994 -1.0279 -0.6128
  113OSM    C5S11718   3.063   5.020  10.397 -0.1394  1.1488  0.2239
  113OSM    H5S11719   2.965   5.010  10.448 -0.3728  0.0853 -0.4081
  113OSM    C6S11720   3.054   4.954  10.261 -0.2471  0.4416  0.0370
  113OSM    H6S11721   2.987   4.866  10.273  2.0178 -1.4497 -0.4117
  113OSM    H6T11722   3.155   4.930  10.220  0.0483  0.0923  0.9434
  113OSM    C7S11723   2.993   5.047  10.154  0.0365 -0.4629 -0.4466
  113OSM    H7S11724   3.054   5.136  10.131 -0.9058 -0.0330 -1.3425
  113OSM    H7T11725   2.898   5.092  10.190  0.8186 -0.4780  1.7818
  113OSM    C8S11726   2.951   4.972  10.025  0.1914 -0.5736  0.0206
  113OSM    H8S11727   2.888   4.882  10.039  1.6410 -1.8757 -1.4149
  113OSM    H8T11728   3.038   4.920   9.981 -1.1926 -1.3962 -1.8874
  113OSM    C9S11729   2.908   5.077   9.921 -0.2217 -0.5328 -0.0205
  113OSM    H9S11730   2.982   5.160   9.925 -2.7902  1.8477  1.7247
  113OSM    H9T11731   2.806   5.115   9.940 -0.7511 -1.5856 -0.7135
  113OSM   C10S11732   2.905   5.025   9.777 -0.2967  0.2341  0.4188
  113OSM   H10S11733   2.851   4.928   9.769  0.9522 -0.4341 -0.2405
  113OSM   H10T11734   3.012   5.006   9.753 -1.0659 -1.3056 -2.2977
  113OSM   C11S11735   2.849   5.114   9.667 -0.5402  0.0745  0.2023
  113OSM   H11S11736   2.911   5.206   9.666 -0.8974  0.3206  0.4813
  113OSM   H11T11737   2.745   5.149   9.685 -0.7410 -1.3868  2.1881
  113OSM   C12S11738   2.829   5.046   9.533 -0.2189 -0.2308  0.0187
  113OSM   H12S11739   2.771   4.952   9.540  0.0171 -0.4057 -0.3275
  113OSM   H12T11740   2.927   5.018   9.486  0.1882  0.9080  0.1593
  113OSM   C13S11741   2.754   5.139   9.432  0.1821 -0.4499  0.3296
  113OSM   H13S11742   2.802   5.237   9.413 -1.0168  0.1340  0.2090
  113OSM   H13T11743   2.652   5.170   9.465  0.9543  0.6067  1.8183
  113OSM   C14S11744   2.739   5.064   9.304 -0.0212  0.2445  0.5430
  113OSM   H14S11745   2.685   4.972   9.332  3.5529 -2.4192 -0.5773
  113OSM   H14T11746   2.835   5.032   9.258  0.4057  1.2243  0.7060
  113OSM   C15S11747   2.648   5.138   9.199  0.2439 -0.2279 -0.4274
  113OSM   H15S11748   2.662   5.248   9.204 -0.7304 -0.1328  0.4990
  113OSM   H15T11749   2.541   5.118   9.221 -0.1941  3.3527  1.5520
  113OSM   C16S11750   2.692   5.088   9.053 -0.2279  0.6280 -0.4882
  113OSM   H16S11751   2.726   4.983   9.061  0.7605  1.1069  2.6985
  113OSM   H16T11752   2.790   5.134   9.030 -0.1195  0.0643 -1.1820
  113OSM   C17S11753   2.589   5.106   8.941  0.1679  0.4429  0.2755
  113OSM   H17S11754   2.633   5.080   8.843  0.1914 -0.7897  0.5893
  113OSM   H17T11755   2.563   5.214   8.935 -3.8696 -0.2875  1.3213
  113OSM   C18S11756   2.462   5.022   8.968  0.0148  0.0322  0.7978
  113OSM   H18S11757   2.470   4.913   8.946  0.1230  0.1101  0.4586
  113OSM   H18T11758   2.377   5.061   8.908 -1.8183 -1.3630  2.3333
  113OSM   H18U11759   2.437   5.026   9.077 -0.7476 -1.9841  0.7420
  113OSM    C1F11760   3.285   5.425  10.448  0.0490  0.3186  0.2253
  113OSM     OF11761   3.383   5.472  10.499 -0.2052  0.0635  0.2619
  113OSM    C2F11762   3.228   5.476  10.326  0.9915  0.3414  0.5941
  113OSM    H2F11763   3.284   5.433  10.241 -0.7653 -0.2567 -0.3136
  113OSM    H2G11764   3.227   5.587  10.332 -0.5667  0.4768 -1.0805
  113OSM    C3F11765   3.074   5.437  10.303  0.3181 -0.4969  0.0506
  113OSM    H3F11766   3.005   5.476  10.381 -0.0682 -0.7621 -0.1540
  113OSM    H3G11767   3.054   5.328  10.296  1.1133 -0.7150  0.9352
  113OSM    C4F11768   3.014   5.483  10.166 -0.1341 -0.4272  1.0283
  113OSM    H4F11769   3.072   5.450  10.077  0.8949 -1.8825  2.1754
  113OSM    H4G11770   3.016   5.594  10.160 -2.0280 -0.4200 -0.2825
  113OSM    C5F11771   2.876   5.426  10.152 -0.2347  0.0857 -0.0316
  113OSM    H5F11772   2.805   5.472  10.224 -0.1619 -1.5857  1.1657
  113OSM    H5G11773   2.874   5.319  10.181 -0.3032  0.0191 -0.2827
  113OSM    C6F11774   2.818   5.437  10.013 -0.0569 -0.0276  0.7421
  113OSM    H6F11775   2.883   5.381   9.942 -0.5335  0.6553 -0.2401
  113OSM    H6G11776   2.808   5.542   9.979  0.0377  0.4071  1.9950
  113OSM    C7F11777   2.676   5.391  10.020  0.3946 -0.1413  0.0048
  113OSM    H7F11778   2.610   5.456  10.081  0.4955 -1.0455  1.1327
  113OSM    H7G11779   2.675   5.287  10.061  2.3298 -0.1110  0.2551
  113OSM    C8F11780   2.606   5.389   9.876  0.4956  0.0352 -0.5179
  113OSM    H8F11781   2.503   5.358   9.906  1.2820 -3.1014 -0.6515
  113OSM    H8G11782   2.655   5.318   9.805  0.0479  1.8521 -2.7644
  113OSM    C9F11783   2.592   5.514   9.794  0.3329  0.3741  0.1377
  113OSM    H9F11784   2.593   5.604   9.858  1.6224 -0.0843  0.8021
  113OSM   C10F11785   2.580   5.530   9.660 -0.2963  0.3342 -0.1493
  113OSM   H10F11786   2.579   5.633   9.621 -1.5439  0.3167 -0.1906
  113OSM   C11F11787   2.582   5.420   9.559  0.0901 -0.0240  0.3109
  113OSM   H11F11788   2.538   5.327   9.602 -0.8133  0.4032  0.3280
  113OSM   H11G11789   2.690   5.395   9.556 -0.0982 -0.9968 -3.1614
  113OSM   C12F11790   2.525   5.425   9.417  0.1091  0.6145  0.0010
  113OSM   H12F11791   2.424   5.469   9.429 -0.7509 -1.1744 -0.4192
  113OSM   H12G11792   2.508   5.329   9.364  0.0296  0.3358  0.5269
  113OSM   C13F11793   2.607   5.516   9.323 -0.5758 -0.7867  0.5585
  113OSM   H13F11794   2.716   5.494   9.319 -0.1880  1.1329 -1.7960
  113OSM   H13G11795   2.590   5.614   9.373  0.0790 -1.1119  1.4557
  113OSM   C14F11796   2.557   5.514   9.173 -0.6726 -0.1282 -0.3060
  113OSM   H14F11797   2.447   5.526   9.169 -0.9792 -2.7804 -1.7376
  113OSM   H14G11798   2.566   5.410   9.135  0.9238 -0.5912  1.1948
  113OSM   C15F11799   2.642   5.600   9.072 -0.3093  0.3116  0.6766
  113OSM   H15F11800   2.739   5.629   9.116  0.5602 -0.2698 -0.7636
  113OSM   H15G11801   2.592   5.699   9.072  0.6947  0.8289  0.8079
  113OSM   C16F11802   2.672   5.536   8.936 -0.1790 -0.3717 -0.2646
  113OSM   H16F11803   2.706   5.618   8.870 -1.8696 -0.6294 -1.5098
  113OSM   H16G11804   2.588   5.477   8.893 -0.7209  0.2227 -0.0403
  113OSM   C17F11805   2.791   5.440   8.945  0.1934 -0.5715  0.5526
  113OSM   H17F11806   2.772   5.361   9.020 -1.2455 -1.8012 -1.0356
  113OSM   H17G11807   2.873   5.498   8.993 -0.0354 -1.0754  1.5775
  113OSM   C18F11808   2.825   5.363   8.817  0.2727  0.0251 -0.9165
  113OSM   H18F11809   2.918   5.306   8.839 -0.2672 -0.7244 -0.5343
  113OSM   H18G11810   2.845   5.437   8.736  2.3614  1.5955  0.8966
  113OSM   H18H11811   2.746   5.291   8.786 -1.9362  0.8346  2.3334
  114OSM      N11812   4.002   1.427  11.585  0.6068 -0.2806 -0.1590
  114OSM    C1511813   4.015   1.560  11.660 -0.4946 -0.2933 -0.1214
  114OSM   H15A11814   3.978   1.549  11.760 -2.7138  1.2705 -0.6927
  114OSM   H15B11815   3.965   1.646  11.617  2.6716  1.2015 -1.2092
  114OSM   H15C11816   4.118   1.594  11.663 -0.0436 -1.5680 -0.3813
  114OSM    C1411817   4.054   1.318  11.666 -0.3240  0.0998 -0.2702
  114OSM   H14A11818   4.161   1.327  11.673 -0.3001  1.4912 -1.8863
  114OSM   H14B11819   4.040   1.218  11.625 -0.1314  0.3705 -1.0145
  114OSM   H14C11820   4.006   1.326  11.762 -0.1178  2.5928 -0.3271
  114OSM    C1311821   3.851   1.397  11.562 -0.9350  0.0822 -0.3189
  114OSM   H13A11822   3.788   1.396  11.649 -2.3121 -0.6058 -1.2913
  114OSM   H13B11823   3.856   1.294  11.529  2.7419  0.6238 -2.0477
  114OSM   H13C11824   3.813   1.455  11.479 -0.0838 -2.4295 -2.6433
  114OSM    C1211825   4.074   1.429  11.455  0.0150 -0.0765  0.3995
  114OSM   H12A11826   4.064   1.329  11.414 -1.3985 -0.7258  2.1732
  114OSM   H12B11827   4.178   1.441  11.480  0.4586 -0.9782 -0.9010
  114OSM    C1111828   4.028   1.535  11.349 -0.0760  0.8276 -0.3860
  114OSM   H11A11829   4.100   1.521  11.265  0.1306 -0.2433 -0.0435
  114OSM   H11B11830   4.032   1.637  11.391 -2.6595  0.9664 -0.2976
  114OSM      P11831   3.875   1.386  11.207 -0.3865  0.3825  0.5183
  114OSM    O1311832   3.898   1.261  11.279  0.2221 -0.1949 -0.1839
  114OSM    O1411833   3.745   1.402  11.132 -0.0448 -0.4240  0.2042
  114OSM    O1111834   3.988   1.417  11.112 -0.3335  0.3723 -0.4782
  114OSM    O1211835   3.898   1.511  11.308 -0.5539  0.1470  0.1141
  114OSM    C1S11836   4.042   1.329  11.021  0.2075 -0.3686 -0.4525
  114OSM    H1S11837   4.040   1.226  11.061 -1.9663 -0.4082 -0.5622
  114OSM    H1T11838   4.146   1.361  10.998 -0.0653  0.2391 -0.8715
  114OSM     NF11839   4.028   1.229  10.801  0.1377  0.7106  0.1751
  114OSM    HNF11840   4.117   1.229  10.755  1.5561 -2.1416  2.5193
  114OSM    C2S11841   3.987   1.338  10.882  0.1501 -0.2629  0.1311
  114OSM    H2S11842   3.876   1.334  10.884  0.0634  0.2911 -1.8889
  114OSM    C3S11843   4.028   1.483  10.828  0.8604  1.3792 -0.1594
  114OSM    H3S11844   4.136   1.503  10.845  0.5437  1.1453  2.7529
  114OSM     O311845   3.967   1.590  10.912  0.2862  0.3253 -0.1785
  114OSM    HO311846   3.970   1.543  10.996  0.3037  2.4843  1.1195
  114OSM    C4S11847   3.993   1.504  10.683 -0.0751  0.8209  0.3236
  114OSM    H4S11848   4.069   1.463  10.614  0.3576  0.6264  0.9143
  114OSM    C5S11849   3.885   1.569  10.629 -0.3361  0.0804 -0.4178
  114OSM    H5S11850   3.806   1.591  10.702  0.0314  1.4639 -0.4221
  114OSM    C6S11851   3.863   1.598  10.485  0.8232  0.5518  0.6619
  114OSM    H6S11852   3.835   1.704  10.466 -2.2432 -0.3550 -0.3910
  114OSM    H6T11853   3.772   1.544  10.452  1.9092 -1.2959  0.5850
  114OSM    C7S11854   3.974   1.560  10.389  0.2476 -0.7006  0.4341
  114OSM    H7S11855   3.994   1.450  10.385  1.0233 -0.6417  1.8835
  114OSM    H7T11856   4.069   1.606  10.424 -0.0441 -0.1150  0.4568
  114OSM    C8S11857   3.953   1.612  10.248  0.2137 -0.3040  0.6991
  114OSM    H8S11858   3.845   1.622  10.226  0.8468  0.8024 -2.2562
  114OSM    H8T11859   3.995   1.548  10.168  1.9982  3.0877 -1.2980
  114OSM    C9S11860   4.022   1.750  10.216  0.3285 -0.1085 -0.1969
  114OSM    H9S11861   4.127   1.740  10.251 -0.1551 -1.7681  0.9099
  114OSM    H9T11862   3.969   1.825  10.279 -0.4910  0.3939 -1.4534
  114OSM   C10S11863   4.039   1.785  10.064  0.3122  0.5633  0.0485
  114OSM   H10S11864   3.942   1.782  10.010  0.6239 -0.1261 -0.4915
  114OSM   H10T11865   4.094   1.696  10.027 -0.9451 -0.6854  1.0974
  114OSM   C11S11866   4.123   1.911  10.047 -0.0885  0.4817 -0.1984
  114OSM   H11S11867   4.224   1.869  10.067 -0.5419 -1.2097 -1.3307
  114OSM   H11T11868   4.106   1.990  10.124 -0.7058 -1.3698  1.6541
  114OSM   C12S11869   4.131   1.958   9.907 -1.0196 -0.2816  0.3039
  114OSM   H12S11870   4.107   1.874   9.839  2.6330 -1.5588  0.3895
  114OSM   H12T11871   4.233   1.998   9.891 -1.3888  2.0179  2.7867
  114OSM   C13S11872   4.034   2.075   9.889  0.0679  0.9159  0.0168
  114OSM   H13S11873   4.041   2.156   9.965 -1.0466 -0.9334  2.2044
  114OSM   H13T11874   3.927   2.048   9.901  0.5390 -0.3004  1.9850
  114OSM   C14S11875   4.042   2.138   9.754 -0.1700  0.1585  0.8247
  114OSM   H14S11876   4.147   2.159   9.723 -0.4183 -1.4697 -1.4491
  114OSM   H14T11877   3.980   2.229   9.763  0.0598  0.6067 -1.5533
  114OSM   C15S11878   3.967   2.052   9.652 -0.2553 -0.1477 -0.3051
  114OSM   H15S11879   3.861   2.053   9.686  0.5079 -0.4112  2.3498
  114OSM   H15T11880   4.005   1.947   9.648  0.0156 -0.0764  0.3118
  114OSM   C16S11881   3.967   2.109   9.512 -0.1113  0.0079 -0.3898
  114OSM   H16S11882   4.075   2.111   9.487  0.2929 -0.9464  1.1371
  114OSM   H16T11883   3.927   2.212   9.500  1.1084  0.3863 -1.4066
  114OSM   C17S11884   3.898   2.032   9.403 -0.5243 -0.6342 -0.3990
  114OSM   H17S11885   3.902   2.090   9.308  1.0334 -0.6939 -0.4074
  114OSM   H17T11886   3.798   2.013   9.446 -0.4351  1.1336  0.6561
  114OSM   C18S11887   3.943   1.885   9.382  0.9439  0.6163  0.2568
  114OSM   H18S11888   3.887   1.843   9.295  1.6222 -0.1428  0.1790
  114OSM   H18T11889   3.913   1.826   9.471 -1.2735  1.6925  0.3105
  114OSM   H18U11890   4.052   1.893   9.364  1.1552 -1.3051  0.4754
  114OSM    C1F11891   3.969   1.105  10.816 -0.2994 -0.0626 -0.0464
  114OSM     OF11892   3.888   1.080  10.899  0.0366  0.1377  0.4268
  114OSM    C2F11893   4.022   1.002  10.721  0.0355 -0.0657  0.5202
  114OSM    H2F11894   4.046   0.923  10.795  0.1921  1.3840  2.0868
  114OSM    H2G11895   4.118   1.036  10.677  0.6450 -0.8912  1.1610
  114OSM    C3F11896   3.921   0.949  10.614 -0.1636 -0.1267  0.0386
  114OSM    H3F11897   3.835   0.907  10.670  0.5045 -0.9835  0.4485
  114OSM    H3G11898   3.967   0.868  10.554 -3.2292 -0.9513 -1.3923
  114OSM    C4F11899   3.883   1.058  10.519 -0.5345  0.1371 -0.1969
  114OSM    H4F11900   3.969   1.107  10.469  0.0263 -0.3689  0.2641
  114OSM    H4G11901   3.818   1.140  10.557 -1.4859 -0.4938 -0.4195
  114OSM    C5F11902   3.800   0.997  10.402 -0.0729 -0.5276  0.0781
  114OSM    H5F11903   3.699   0.971  10.441  0.4637 -0.2927  1.7269
  114OSM    H5G11904   3.842   0.897  10.378  0.4833 -0.5621  1.1235
  114OSM    C6F11905   3.782   1.093  10.286  0.4294 -0.5050  0.1480
  114OSM    H6F11906   3.728   1.029  10.213 -0.6290  0.0387  0.4278
  114OSM    H6G11907   3.882   1.120  10.247  0.6263 -0.9696  0.3250
  114OSM    C7F11908   3.701   1.224  10.314 -0.6657 -0.0316  0.1034
  114OSM    H7F11909   3.718   1.262  10.417 -1.1882 -2.0257  0.9920
  114OSM    H7G11910   3.598   1.182  10.310  0.1128 -2.1164  0.4615
  114OSM    C8F11911   3.711   1.336  10.208  0.4485 -0.5361 -0.5129
  114OSM    H8F11912   3.813   1.377  10.222  0.1500 -0.8242  4.1166
  114OSM    H8G11913   3.639   1.417  10.234  0.6693 -0.8952  1.3696
  114OSM    C9F11914   3.680   1.280  10.074 -0.1491  0.4271 -0.2916
  114OSM    H9F11915   3.622   1.187  10.077  1.8066 -0.9291 -1.8163
  114OSM   C10F11916   3.731   1.322   9.953 -0.3130 -0.0744 -0.1720
  114OSM   H10F11917   3.697   1.267   9.864 -1.6846  1.1972 -0.4810
  114OSM   C11F11918   3.825   1.439   9.923 -0.3640  0.2427 -0.0417
  114OSM   H11F11919   3.915   1.428   9.988 -1.0810 -1.2812  0.7423
  114OSM   H11G11920   3.780   1.540   9.935 -1.5402 -0.2284 -0.4261
  114OSM   C12F11921   3.877   1.438   9.782 -0.1700 -0.5697 -0.0305
  114OSM   H12F11922   3.920   1.336   9.765  4.3509  1.0633  0.2592
  114OSM   H12G11923   3.963   1.507   9.768 -0.0870 -0.1405  2.2571
  114OSM   C13F11924   3.776   1.475   9.679 -0.2523 -0.2876  0.2715
  114OSM   H13F11925   3.777   1.586   9.676  1.5776 -0.2071  1.9942
  114OSM   H13G11926   3.683   1.419   9.703 -0.4081 -0.2760 -0.2846
  114OSM   C14F11927   3.824   1.439   9.542  0.0617 -0.4474  0.4955
  114OSM   H14F11928   3.811   1.330   9.526 -2.4514  0.0225 -1.0264
  114OSM   H14G11929   3.935   1.442   9.536  0.1126  1.8997  1.2303
  114OSM   C15F11930   3.759   1.507   9.421  0.5593 -0.2858 -0.3039
  114OSM   H15F11931   3.782   1.615   9.408  2.2533 -0.5640  0.1090
  114OSM   H15G11932   3.650   1.497   9.441  0.9290 -1.1200  1.4607
  114OSM   C16F11933   3.781   1.421   9.299  0.6310  0.0601 -0.1034
  114OSM   H16F11934   3.725   1.327   9.312 -1.0458  1.1617  1.0493
  114OSM   H16G11935   3.890   1.406   9.279  0.9074  1.0268  0.5599
  114OSM   C17F11936   3.714   1.482   9.174 -0.3428 -0.7085 -0.2905
  114OSM   H17F11937   3.749   1.587   9.164  0.9798 -1.0929  0.1350
  114OSM   H17G11938   3.607   1.492   9.201 -0.3804 -1.4847 -0.1140
  114OSM   C18F11939   3.746   1.412   9.046 -0.2850 -0.2608  0.6130
  114OSM   H18F11940   3.701   1.471   8.963 -1.1519  0.2693  1.4443
  114OSM   H18G11941   3.706   1.308   9.051 -1.7276  0.0595 -2.3328
  114OSM   H18H11942   3.856   1.400   9.032 -0.4012 -1.2269  0.4459
  115OSM      N11943   4.434   4.835   6.061  0.1817  0.3787 -0.2987
  115OSM    C1511944   4.425   4.975   6.014  0.9127 -0.5423  0.2939
  115OSM   H15A11945   4.381   5.041   6.087  0.9818  0.4410 -0.5387
  115OSM   H15B11946   4.363   4.994   5.928 -0.4922 -0.9510  1.1880
  115OSM   H15C11947   4.514   5.015   5.967  0.6062  0.0982  0.2484
  115OSM    C1411948   4.294   4.782   6.037  0.0941 -0.3034  0.3385
  115OSM   H14A11949   4.213   4.850   6.060  0.2132  0.3581 -1.1190
  115OSM   H14B11950   4.276   4.693   6.095  0.8577 -0.5086  0.2713
  115OSM   H14C11951   4.283   4.742   5.938 -0.8144  0.4242  0.1283
  115OSM    C1311952   4.521   4.750   5.965 -0.4306 -0.2798 -0.9527
  115OSM   H13A11953   4.516   4.643   5.984  1.0128 -0.2470 -0.2496
  115OSM   H13B11954   4.624   4.784   5.970  0.6349 -3.2946 -0.0430
  115OSM   H13C11955   4.489   4.760   5.863 -2.2234 -0.2263 -0.4159
  115OSM    C1211956   4.483   4.831   6.201  0.2897  0.8393 -0.0865
  115OSM   H12A11957   4.584   4.869   6.208  0.5299 -0.0841  2.5993
  115OSM   H12B11958   4.501   4.729   6.233  2.2453  1.5625  1.3617
  115OSM    C1111959   4.406   4.911   6.299  0.8498 -0.1351 -0.5655
  115OSM   H11A11960   4.447   4.889   6.400 -0.4906  1.4227  0.3757
  115OSM   H11B11961   4.296   4.893   6.296  1.2062 -2.6366 -0.9760
  115OSM      P11962   4.338   5.162   6.355  0.0593 -0.0302  0.2326
  115OSM    O1311963   4.416   5.286   6.385 -0.0682 -0.5996  0.1783
  115OSM    O1411964   4.219   5.171   6.266  0.3526 -0.1693  0.3064
  115OSM    O1111965   4.309   5.093   6.496 -0.2881  0.5056 -0.1075
  115OSM    O1211966   4.434   5.057   6.286 -0.0950 -0.3488  0.2098
  115OSM    C1S11967   4.176   5.044   6.519  0.0981 -0.3793  0.1692
  115OSM    H1S11968   4.135   4.989   6.432 -1.5511 -1.3187  1.4791
  115OSM    H1T11969   4.106   5.123   6.555  0.8268 -0.2554  1.3872
  115OSM     NF11970   4.036   4.891   6.636 -0.1117 -0.1257  0.5936
  115OSM    HNF11971   3.958   4.950   6.653 -1.0933 -1.3102  0.3254
  115OSM    C2S11972   4.171   4.958   6.644 -0.0662  0.4194  0.3103
  115OSM    H2S11973   4.258   4.890   6.647 -0.9363 -0.7097  0.7421
  115OSM    C3S11974   4.172   5.048   6.769  0.1121 -0.1087  0.5348
  115OSM    H3S11975   4.090   5.121   6.779  2.4312  2.5949  1.1451
  115OSM     O311976   4.291   5.126   6.763  0.3144  0.7578  0.1166
  115OSM    HO311977   4.322   5.112   6.673  0.0727  0.0661  0.1318
  115OSM    C4S11978   4.180   4.956   6.892 -0.2174 -0.7888 -0.3027
  115OSM    H4S11979   4.280   4.913   6.909 -0.1495 -0.5763 -0.1595
  115OSM    C5S11980   4.083   4.939   6.982  0.0783  0.6869  0.8768
  115OSM    H5S11981   3.986   4.987   6.966 -0.3610  0.8991  3.6907
  115OSM    C6S11982   4.098   4.858   7.110 -0.2893 -1.1706  0.1770
  115OSM    H6S11983   4.206   4.839   7.129 -0.4016 -1.8290  0.1992
  115OSM    H6T11984   4.051   4.758   7.095 -1.2462 -0.4010 -2.6099
  115OSM    C7S11985   4.055   4.918   7.241  0.6455 -0.3723 -0.1711
  115OSM    H7S11986   3.950   4.883   7.256  0.7012 -0.4723 -0.0039
  115OSM    H7T11987   4.057   5.029   7.238 -0.7101 -0.3211 -0.0065
  115OSM    C8S11988   4.125   4.870   7.366 -0.5752 -0.9248  0.3799
  115OSM    H8S11989   4.234   4.874   7.348 -0.4064  2.7998  1.4412
  115OSM    H8T11990   4.097   4.764   7.380 -1.1920 -0.5792  1.9800
  115OSM    C9S11991   4.091   4.947   7.493 -0.4335 -0.6814  0.2354
  115OSM    H9S11992   3.998   4.913   7.544 -1.1727  2.2392  1.0656
  115OSM    H9T11993   4.093   5.054   7.464  0.1930 -0.4707  1.0159
  115OSM   C10S11994   4.197   4.924   7.603  0.4032  0.5085  0.0650
  115OSM   H10S11995   4.282   4.995   7.593  0.2362  0.5107 -1.8628
  115OSM   H10T11996   4.221   4.818   7.623 -0.6395  0.5478  1.6855
  115OSM   C11S11997   4.135   4.971   7.733 -0.4291 -0.0397 -0.5179
  115OSM   H11S11998   4.047   4.905   7.753  0.3411 -1.1608 -0.7397
  115OSM   H11T11999   4.105   5.077   7.726 -0.4176 -0.0013 -0.0193
  115OSM   C12S12000   4.220   4.954   7.855 -0.5703 -0.1178  0.0760
  115OSM   H12S12001   4.166   5.003   7.939 -0.0895 -0.5919  0.6658
  115OSM   H12T12002   4.317   5.007   7.840  0.8220 -2.4768  0.3134
  115OSM   C13S12003   4.259   4.818   7.901 -1.1990  0.4131  0.0863
  115OSM   H13S12004   4.334   4.825   7.983 -0.2137 -2.4130 -0.4659
  115OSM   H13T12005   4.326   4.776   7.822 -1.2927  1.1572 -0.4017
  115OSM   C14S12006   4.143   4.731   7.926 -0.0032 -0.3252  0.6505
  115OSM   H14S12007   4.178   4.626   7.912 -1.5062 -0.4500 -3.8123
  115OSM   H14T12008   4.055   4.751   7.860 -1.0083 -1.1748  1.6771
  115OSM   C15S12009   4.093   4.762   8.064  0.2994  0.7377 -0.0325
  115OSM   H15S12010   4.042   4.861   8.065 -1.2601 -0.0231 -0.4323
  115OSM   H15T12011   4.176   4.773   8.137 -0.3297  1.6298  0.5656
  115OSM   C16S12012   4.000   4.651   8.112  0.0202 -0.3832  0.5302
  115OSM   H16S12013   4.058   4.558   8.130 -0.9665 -0.9914  0.6126
  115OSM   H16T12014   3.926   4.629   8.032 -1.4821  1.7429  1.2626
  115OSM   C17S12015   3.921   4.677   8.242 -0.1002 -0.2800 -1.3015
  115OSM   H17S12016   4.003   4.718   8.304 -2.2610  1.3438  0.6338
  115OSM   H17T12017   3.892   4.578   8.283  3.6197  0.2976  3.6285
  115OSM   C18S12018   3.800   4.775   8.257 -0.1569 -0.2631  0.1974
  115OSM   H18S12019   3.813   4.878   8.218 -2.1626 -0.2659 -0.6159
  115OSM   H18T12020   3.782   4.780   8.367  1.5140  0.9256  0.4572
  115OSM   H18U12021   3.712   4.738   8.201  1.0970 -2.0698 -0.6906
  115OSM    C1F12022   4.015   4.784   6.560 -0.0961 -0.2487  0.1630
  115OSM     OF12023   4.107   4.737   6.497  0.1898  0.1353  0.1538
  115OSM    C2F12024   3.879   4.733   6.545  0.2715 -0.7104 -0.2921
  115OSM    H2F12025   3.864   4.655   6.467 -1.3801 -1.4558  0.7031
  115OSM    H2G12026   3.815   4.822   6.525 -1.3688 -1.2805  1.9384
  115OSM    C3F12027   3.842   4.658   6.681 -0.2972 -0.7466  0.5614
  115OSM    H3F12028   3.740   4.616   6.677 -0.5248 -0.1277 -0.2561
  115OSM    H3G12029   3.850   4.725   6.770 -0.4946 -1.8956  1.4684
  115OSM    C4F12030   3.931   4.530   6.697  0.7408  0.0309 -0.6223
  115OSM    H4F12031   4.039   4.553   6.694  0.6635  0.3473 -0.9621
  115OSM    H4G12032   3.913   4.461   6.612  1.3084  0.9006 -1.4654
  115OSM    C5F12033   3.905   4.459   6.837 -0.7929  0.1145 -0.1190
  115OSM    H5F12034   3.797   4.438   6.852 -0.9913  1.6805  0.9173
  115OSM    H5G12035   3.940   4.536   6.909  0.8400 -0.1655 -0.5759
  115OSM    C6F12036   3.983   4.326   6.855 -0.2514  0.2550 -0.4356
  115OSM    H6F12037   4.088   4.346   6.825  0.2469 -0.1846  0.9262
  115OSM    H6G12038   3.940   4.251   6.785 -2.0076  0.0836  0.7624
  115OSM    C7F12039   3.985   4.273   6.999  0.1204  0.6189  0.0107
  115OSM    H7F12040   3.878   4.252   7.019 -1.4149  4.7851 -2.5876
  115OSM    H7G12041   4.022   4.347   7.073  2.1642 -1.7315  1.5253
  115OSM    C8F12042   4.075   4.146   7.012 -0.4655 -0.7406 -0.7227
  115OSM    H8F12043   4.099   4.138   7.121  1.1943  2.7536 -0.7259
  115OSM    H8G12044   4.170   4.158   6.956  1.0900  0.7410  2.0035
  115OSM    C9F12045   4.003   4.025   6.972  0.1285 -0.2342 -0.1794
  115OSM    H9F12046   3.962   4.032   6.871 -0.6072  0.6184  0.1662
  115OSM   C10F12047   3.981   3.918   7.054 -0.3757  0.3100  0.3492
  115OSM   H10F12048   3.924   3.835   7.009 -0.6113  0.0529  1.1035
  115OSM   C11F12049   4.035   3.903   7.201  0.2874 -0.1189  0.5646
  115OSM   H11F12050   4.142   3.931   7.203  0.7107 -1.5729 -0.2879
  115OSM   H11G12051   4.040   3.799   7.241 -2.6458 -0.8108 -0.5594
  115OSM   C12F12052   3.956   4.002   7.294 -0.5123 -0.2463  0.1939
  115OSM   H12F12053   3.851   3.968   7.303  0.2409 -2.4998  1.3238
  115OSM   H12G12054   3.956   4.104   7.250  0.2614 -0.2932  0.0657
  115OSM   C13F12055   4.022   3.991   7.430 -0.5750  0.0872 -0.1420
  115OSM   H13F12056   4.118   4.047   7.434 -2.2719  3.2862 -1.5170
  115OSM   H13G12057   4.031   3.882   7.450  0.7818  0.0236 -0.9812
  115OSM   C14F12058   3.922   4.045   7.538  0.2741 -0.4059 -0.2074
  115OSM   H14F12059   3.835   3.976   7.544  0.2436 -0.2318  2.4939
  115OSM   H14G12060   3.882   4.145   7.507 -1.3392 -0.7268  0.7034
  115OSM   C15F12061   3.991   4.045   7.675 -0.3959 -0.7999  0.1003
  115OSM   H15F12062   4.089   4.091   7.653 -0.6351 -1.9269 -4.1662
  115OSM   H15G12063   4.004   3.941   7.713 -1.0096 -1.5709 -1.6868
  115OSM   C16F12064   3.906   4.131   7.773  0.7857  0.2045 -0.2123
  115OSM   H16F12065   3.799   4.103   7.777  0.9264 -0.1259  1.8218
  115OSM   H16G12066   3.898   4.230   7.722  1.2897  0.2063 -0.2984
  115OSM   C17F12067   3.971   4.121   7.907 -0.3268 -0.7848  0.1942
  115OSM   H17F12068   4.080   4.138   7.901 -0.4809  0.0306 -0.6688
  115OSM   H17G12069   3.953   4.017   7.939 -0.0176 -1.2443 -1.0662
  115OSM   C18F12070   3.911   4.230   7.999  0.2881  0.0249  0.0659
  115OSM   H18F12071   3.950   4.214   8.102 -0.2843 -2.2734 -0.0076
  115OSM   H18G12072   3.800   4.219   7.999  0.4225 -2.8918 -2.8621
  115OSM   H18H12073   3.945   4.333   7.977  3.1206 -1.1001 -1.2157
  116OSM      N12074   3.886   2.648   5.943 -0.1941  0.3975 -0.0659
  116OSM    C1512075   3.998   2.608   5.856 -0.3085  0.5109  0.5366
  116OSM   H15A12076   4.026   2.507   5.880  1.6246  1.3848  2.3444
  116OSM   H15B12077   4.084   2.673   5.859  0.1952 -0.1396  0.1963
  116OSM   H15C12078   3.958   2.617   5.757  0.7190  1.3190  0.1771
  116OSM    C1412079   3.847   2.792   5.907 -0.4104  0.0084 -0.0840
  116OSM   H14A12080   3.857   2.812   5.802  3.2040  0.5918  0.2553
  116OSM   H14B12081   3.917   2.862   5.950 -0.2313  0.8704 -1.7179
  116OSM   H14C12082   3.745   2.807   5.941 -1.2791  0.6493 -2.7278
  116OSM    C1312083   3.757   2.572   5.906 -0.0211 -0.6050  0.5868
  116OSM   H13A12084   3.721   2.610   5.811 -1.4852 -0.9938  0.9631
  116OSM   H13B12085   3.676   2.582   5.976 -0.3980 -0.6391  0.1637
  116OSM   H13C12086   3.790   2.470   5.890  4.0287  0.9608 -3.8840
  116OSM    C1212087   3.905   2.637   6.090  0.2592  0.5911 -0.1761
  116OSM   H12A12088   3.895   2.534   6.120  3.0765  0.5671  1.0140
  116OSM   H12B12089   3.824   2.687   6.140 -2.7872 -1.9688 -2.1821
  116OSM    C1112090   4.041   2.683   6.155  0.2241 -0.0829 -0.3974
  116OSM   H11A12091   4.018   2.663   6.262  0.3183  1.2011 -0.1231
  116OSM   H11B12092   4.058   2.793   6.154  0.7435 -0.1391  0.6300
  116OSM      P12093   4.304   2.652   6.158  0.2365 -0.0046  0.2017
  116OSM    O1312094   4.397   2.538   6.171 -0.3093 -0.2510 -0.3172
  116OSM    O1412095   4.350   2.747   6.053 -0.2424 -0.3382 -0.2706
  116OSM    O1112096   4.277   2.745   6.287 -0.2813  0.1116 -0.0839
  116OSM    O1212097   4.155   2.607   6.114  0.2504  0.1464  0.2387
  116OSM    C1S12098   4.309   2.681   6.415  0.3445 -0.3550  0.7509
  116OSM    H1S12099   4.416   2.650   6.422  1.1484  2.3409  1.4822
  116OSM    H1T12100   4.237   2.602   6.444  0.0055 -0.1829  0.3681
  116OSM     NF12101   4.285   2.680   6.658  0.1280 -0.3282  0.5410
  116OSM    HNF12102   4.199   2.642   6.689 -1.2674  2.2111  0.0279
  116OSM    C2S12103   4.285   2.770   6.540  0.1798 -0.5654 -0.9370
  116OSM    H2S12104   4.361   2.848   6.560 -1.5192  1.5191 -2.1667
  116OSM    C3S12105   4.153   2.851   6.531  0.3131  0.3770  0.0162
  116OSM    H3S12106   4.068   2.780   6.527 -0.8655  1.8190 -1.5780
  116OSM     O312107   4.145   2.928   6.415  0.3394 -0.2245 -0.0541
  116OSM    HO312108   4.213   2.888   6.359 -0.3889 -2.3612  0.5190
  116OSM    C4S12109   4.135   2.943   6.652 -0.7770 -1.2188  0.9430
  116OSM    H4S12110   4.171   3.045   6.631 -5.0132 -0.0136 -2.0412
  116OSM    C5S12111   4.067   2.912   6.763  0.1833  0.0139 -0.8175
  116OSM    H5S12112   4.019   2.814   6.776  1.4806 -0.4341  0.8046
  116OSM    C6S12113   4.045   2.994   6.891  0.5890 -0.2675 -0.1488
  116OSM    H6S12114   3.977   3.079   6.867  0.1748 -0.2350  1.0873
  116OSM    H6T12115   4.137   3.046   6.923  1.0072 -0.7503 -0.5498
  116OSM    C7S12116   3.996   2.907   7.005 -0.6930 -0.6141  0.0008
  116OSM    H7S12117   4.050   2.811   7.020 -1.0402 -0.7560  0.3714
  116OSM    H7T12118   3.886   2.890   7.004 -0.3985 -2.9666 -1.1337
  116OSM    C8S12119   4.020   2.983   7.138 -0.0096  0.3640 -0.0845
  116OSM    H8S12120   3.969   3.081   7.126 -1.7158 -0.3457  0.9351
  116OSM    H8T12121   4.130   2.996   7.150 -0.4364  1.9414  2.8396
  116OSM    C9S12122   3.967   2.917   7.264  0.2005 -0.4983  0.7749
  116OSM    H9S12123   4.023   2.822   7.276  0.9795  0.0179  1.3481
  116OSM    H9T12124   3.859   2.900   7.248 -0.1598  0.6153  1.8866
  116OSM   C10S12125   3.986   3.006   7.391 -0.5795  0.4569 -0.0564
  116OSM   H10S12126   3.916   2.956   7.462 -0.2502  1.2773  0.8646
  116OSM   H10T12127   3.950   3.110   7.378  1.6361  1.2001 -0.8434
  116OSM   C11S12128   4.133   3.010   7.447  0.3722 -0.2169  0.0558
  116OSM   H11S12129   4.197   3.087   7.400  1.0998  0.4525  2.0454
  116OSM   H11T12130   4.170   2.907   7.426 -0.4173 -0.5227  0.1300
  116OSM   C12S12131   4.144   3.040   7.597  0.6620 -0.4375 -0.1424
  116OSM   H12S12132   4.092   3.135   7.621  0.5232 -0.3177 -0.9023
  116OSM   H12T12133   4.252   3.028   7.620  0.8309 -1.0785 -1.1852
  116OSM   C13S12134   4.090   2.923   7.676  0.2165  0.0480  0.3925
  116OSM   H13S12135   4.168   2.844   7.665  0.9379  0.8865 -0.6674
  116OSM   H13T12136   4.000   2.889   7.620 -0.4551  2.0728  0.1542
  116OSM   C14S12137   4.068   2.942   7.818  0.5980  0.6567 -1.1232
  116OSM   H14S12138   3.998   3.027   7.831  1.0964  0.6775  2.7642
  116OSM   H14T12139   4.158   2.988   7.864 -0.2029  0.3625  0.8778
  116OSM   C15S12140   4.040   2.810   7.892 -0.2392 -0.7728 -0.1703
  116OSM   H15S12141   4.137   2.760   7.912  0.8150  1.8287  1.9384
  116OSM   H15T12142   3.966   2.748   7.838 -0.0342 -1.9396  0.8382
  116OSM   C16S12143   3.983   2.831   8.036 -0.0379 -0.2991  0.8501
  116OSM   H16S12144   3.934   2.748   8.091 -0.4124 -0.0773  0.8526
  116OSM   H16T12145   3.906   2.908   8.016  0.4827  0.1400  0.5331
  116OSM   C17S12146   4.082   2.891   8.131 -1.1702 -0.0600 -0.4052
  116OSM   H17S12147   4.038   2.928   8.226  0.9998 -0.8400  0.9831
  116OSM   H17T12148   4.120   2.980   8.076 -2.4517 -0.0669 -1.3633
  116OSM   C18S12149   4.201   2.796   8.170  0.9114 -0.4746 -0.2761
  116OSM   H18S12150   4.265   2.846   8.245 -0.3063  0.2727  0.2781
  116OSM   H18T12151   4.266   2.777   8.082 -0.2357 -2.5862 -0.7349
  116OSM   H18U12152   4.169   2.695   8.203 -1.0746 -0.2323 -1.3099
  116OSM    C1F12153   4.395   2.628   6.711  0.3920  0.1079 -0.2760
  116OSM     OF12154   4.503   2.641   6.651  0.1647  0.1499 -0.2508
  116OSM    C2F12155   4.376   2.550   6.832 -0.0438  0.3034  0.5744
  116OSM    H2F12156   4.459   2.480   6.857  0.1613  0.0077 -0.8740
  116OSM    H2G12157   4.288   2.484   6.821  1.9237 -2.2948 -0.9478
  116OSM    C3F12158   4.349   2.641   6.959  0.1907  0.1223  0.1299
  116OSM    H3F12159   4.284   2.730   6.940 -0.1274 -0.3459 -1.0352
  116OSM    H3G12160   4.444   2.689   6.993  0.0633  0.1305  0.4784
  116OSM    C4F12161   4.289   2.562   7.073  0.5228  0.2974 -0.3529
  116OSM    H4F12162   4.344   2.469   7.095  3.2412  2.0926  1.0256
  116OSM    H4G12163   4.186   2.536   7.041 -0.0959  0.9718  1.0010
  116OSM    C5F12164   4.287   2.631   7.212  0.6756  0.1619 -0.0820
  116OSM    H5F12165   4.226   2.723   7.215  0.6085  0.1395  3.6312
  116OSM    H5G12166   4.396   2.650   7.223  0.9451 -1.8384  1.2173
  116OSM    C6F12167   4.236   2.540   7.328 -0.1354  0.5297  0.8017
  116OSM    H6F12168   4.279   2.438   7.322 -0.7619  0.2587  0.8149
  116OSM    H6G12169   4.127   2.527   7.311  0.3176 -2.7590 -0.3164
  116OSM    C7F12170   4.257   2.600   7.463  0.9037 -0.7995  0.4965
  116OSM    H7F12171   4.209   2.700   7.468  2.2191 -0.0781 -0.4002
  116OSM    H7G12172   4.366   2.612   7.482  0.6200  1.0819  1.1748
  116OSM    C8F12173   4.207   2.512   7.581 -0.2899 -0.3649  0.0054
  116OSM    H8F12174   4.213   2.564   7.679 -1.6755 -0.6457  0.2602
  116OSM    H8G12175   4.276   2.425   7.588  2.7386  1.9101  0.8463
  116OSM    C9F12176   4.073   2.461   7.565  1.1862 -0.3307 -0.2132
  116OSM    H9F12177   4.030   2.446   7.465  0.2168  0.9550 -0.0237
  116OSM   C10F12178   3.995   2.423   7.670  0.1997 -0.2574 -0.3281
  116OSM   H10F12179   3.894   2.380   7.657  0.1505  0.2325 -1.6674
  116OSM   C11F12180   4.030   2.421   7.818  0.6059  0.5715  0.1598
  116OSM   H11F12181   3.934   2.402   7.870  1.2540  0.2353  1.2757
  116OSM   H11G12182   4.061   2.525   7.844 -1.6158  2.2911 -3.2608
  116OSM   C12F12183   4.132   2.311   7.852  0.5266 -0.3111  0.1267
  116OSM   H12F12184   4.225   2.336   7.798  0.4520 -3.6750 -1.8017
  116OSM   H12G12185   4.084   2.221   7.809 -0.7892  0.0751  0.7317
  116OSM   C13F12186   4.153   2.300   8.002 -0.0179  0.5210 -0.0955
  116OSM   H13F12187   4.057   2.268   8.049  0.7344 -0.4123  0.8552
  116OSM   H13G12188   4.198   2.391   8.048  3.7986 -1.3220  0.1638
  116OSM   C14F12189   4.252   2.190   8.047 -0.1853 -0.7729 -0.6459
  116OSM   H14F12190   4.354   2.212   8.010 -0.3024  0.1760 -0.4428
  116OSM   H14G12191   4.208   2.094   8.013 -0.4280 -2.7232  4.2737
  116OSM   C15F12192   4.265   2.184   8.203  0.0483  0.3181 -0.0149
  116OSM   H15F12193   4.257   2.280   8.259 -1.0372 -0.4456  1.1834
  116OSM   H15G12194   4.361   2.136   8.233 -0.8923 -1.9263 -0.4522
  116OSM   C16F12195   4.157   2.097   8.259 -0.2222  0.1147 -0.1682
  116OSM   H16F12196   4.139   2.004   8.201  1.5868 -1.3848  1.5260
  116OSM   H16G12197   4.062   2.155   8.257 -0.9084 -0.9825 -1.1123
  116OSM   C17F12198   4.188   2.069   8.408  0.6716  0.2350  0.0346
  116OSM   H17F12199   4.095   2.025   8.451 -0.5384  2.2403 -0.3944
  116OSM   H17G12200   4.200   2.166   8.462  2.8002  0.5105 -0.8228
  116OSM   C18F12201   4.300   1.975   8.448  0.1666 -0.4409 -0.0645
  116OSM   H18F12202   4.316   1.969   8.558  0.3783  2.1090  0.1077
  116OSM   H18G12203   4.397   2.008   8.405 -0.5642 -0.3368 -1.7255
  116OSM   H18H12204   4.291   1.875   8.401 -1.8448  0.2728 -1.3275
  117OSM      N12205   2.445   2.276   6.181 -0.2410 -0.4407  0.2098
  117OSM    C1512206   2.503   2.177   6.077  0.0639  0.2138 -1.1739
  117OSM   H15A12207   2.572   2.119   6.137 -1.7581  0.1689  0.9992
  117OSM   H15B12208   2.561   2.241   6.011  3.1024  2.1079  2.8725
  117OSM   H15C12209   2.436   2.110   6.025  1.9551 -2.0081 -0.9152
  117OSM    C1412210   2.561   2.357   6.227 -0.6060  0.0087  0.3284
  117OSM   H14A12211   2.620   2.298   6.296 -0.6413 -1.0500 -0.5200
  117OSM   H14B12212   2.524   2.441   6.283  1.8485  1.7499 -0.5128
  117OSM   H14C12213   2.631   2.382   6.149 -1.5438  0.4245 -0.3990
  117OSM    C1312214   2.352   2.366   6.103  0.2149  0.0655 -0.6741
  117OSM   H13A12215   2.284   2.410   6.175 -0.6114  0.1271 -1.4707
  117OSM   H13B12216   2.291   2.305   6.038  1.1805 -1.2627 -0.3675
  117OSM   H13C12217   2.412   2.437   6.048  0.7263  1.2458  1.2931
  117OSM    C1212218   2.382   2.193   6.290 -0.0892  0.2358  0.2128
  117OSM   H12A12219   2.454   2.118   6.322 -0.6687 -0.1187  0.7240
  117OSM   H12B12220   2.301   2.127   6.262 -0.7211  1.1838 -0.2009
  117OSM    C1112221   2.328   2.264   6.421  0.1087  0.4302  0.3964
  117OSM   H11A12222   2.405   2.320   6.478 -0.8730  1.6995  0.5102
  117OSM   H11B12223   2.299   2.182   6.490 -1.7432  0.6288 -0.0890
  117OSM      P12224   2.082   2.269   6.353 -0.1189  0.0153 -0.2232
  117OSM    O1312225   2.002   2.352   6.258  0.5720 -0.1205  0.5463
  117OSM    O1412226   2.123   2.135   6.306  0.0452  0.7367  0.1563
  117OSM    O1112227   2.002   2.235   6.486 -0.4970  0.0018 -0.8533
  117OSM    O1212228   2.216   2.348   6.402 -0.3750  0.6711 -0.0088
  117OSM    C1S12229   2.033   2.295   6.614 -0.2052 -0.4295  0.7971
  117OSM    H1S12230   1.988   2.397   6.620  0.2271 -0.0797 -1.0269
  117OSM    H1T12231   2.140   2.318   6.632  0.0952  0.2320 -1.4198
  117OSM     NF12232   1.995   2.295   6.860 -0.7243 -0.4172 -0.3066
  117OSM    HNF12233   2.080   2.278   6.910  0.0203  0.7204 -1.1200
  117OSM    C2S12234   1.970   2.224   6.730 -0.1455 -0.3138 -0.3445
  117OSM    H2S12235   1.861   2.222   6.711 -0.2176  0.4548 -0.0165
  117OSM    C3S12236   2.005   2.069   6.734 -1.3485 -0.1203  0.1196
  117OSM    H3S12237   2.113   2.045   6.727 -1.3370 -0.8572  2.1292
  117OSM     O312238   1.960   1.994   6.621  0.0917 -0.3866 -0.1600
  117OSM    HO312239   1.915   2.060   6.569 -1.5940  0.3355  2.0675
  117OSM    C4S12240   1.947   2.014   6.858  0.3976  0.2909  0.3302
  117OSM    H4S12241   1.837   2.013   6.856  0.3205  1.0139 -3.2021
  117OSM    C5S12242   2.022   1.985   6.968 -0.0312 -0.2035  0.0399
  117OSM    H5S12243   2.132   1.988   6.962 -0.0204  1.3918  0.4150
  117OSM    C6S12244   1.984   1.925   7.101  0.6918 -0.4532 -1.3726
  117OSM    H6S12245   2.003   1.997   7.184 -2.4493  1.8347 -2.4233
  117OSM    H6T12246   2.050   1.838   7.122 -0.5616 -0.4780  3.7295
  117OSM    C7S12247   1.843   1.873   7.101 -0.1361  0.6944 -0.2747
  117OSM    H7S12248   1.832   1.804   7.015 -1.2025  0.3272  0.1430
  117OSM    H7T12249   1.772   1.957   7.086 -1.1587 -0.0049  0.5127
  117OSM    C8S12250   1.813   1.790   7.231 -0.1723 -0.1287  0.1983
  117OSM    H8S12251   1.906   1.775   7.289 -0.0214 -3.4595 -0.7246
  117OSM    H8T12252   1.791   1.685   7.203  2.6791 -1.3787  2.1846
  117OSM    C9S12253   1.700   1.844   7.321 -0.3808 -0.3207 -0.3219
  117OSM    H9S12254   1.603   1.845   7.266 -0.0009 -0.3051 -1.0061
  117OSM    H9T12255   1.714   1.947   7.361 -0.1709 -1.0333  1.5098
  117OSM   C10S12256   1.670   1.750   7.441 -0.0536 -0.7397 -0.2750
  117OSM   H10S12257   1.653   1.647   7.402 -0.4032 -0.3967 -1.0357
  117OSM   H10T12258   1.575   1.784   7.488  0.4028 -1.2762  1.0841
  117OSM   C11S12259   1.783   1.767   7.547  0.3504 -0.2039  0.3608
  117OSM   H11S12260   1.782   1.876   7.567  0.5281 -0.4382  1.7719
  117OSM   H11T12261   1.881   1.743   7.500 -0.4518  0.4428 -1.7598
  117OSM   C12S12262   1.758   1.687   7.679  0.5478  0.1628 -0.5167
  117OSM   H12S12263   1.847   1.687   7.746 -0.5554  2.3513  1.0698
  117OSM   H12T12264   1.738   1.579   7.660 -0.8399 -1.4308  6.9084
  117OSM   C13S12265   1.630   1.734   7.761 -0.1400 -0.9227  0.6460
  117OSM   H13S12266   1.537   1.732   7.700  0.2788  0.1985 -0.0685
  117OSM   H13T12267   1.649   1.839   7.792 -1.6877 -0.4363  0.0294
  117OSM   C14S12268   1.615   1.657   7.893 -0.1799 -0.1569 -0.0929
  117OSM   H14S12269   1.705   1.662   7.958 -0.9832 -0.3971  1.0761
  117OSM   H14T12270   1.612   1.547   7.883  2.7853 -0.3373  0.2203
  117OSM   C15S12271   1.507   1.713   7.979 -0.1544  0.0149  0.0593
  117OSM   H15S12272   1.416   1.688   7.919  0.0736 -0.1356 -0.2263
  117OSM   H15T12273   1.516   1.823   7.988 -3.3561  0.6256 -2.2809
  117OSM   C16S12274   1.510   1.644   8.116  0.2160  0.1356  0.2265
  117OSM   H16S12275   1.604   1.681   8.161 -0.5367  0.3061  1.7225
  117OSM   H16T12276   1.501   1.533   8.114 -2.6591  0.3088 -0.5804
  117OSM   C17S12277   1.398   1.681   8.214  0.1266 -0.7271  0.1104
  117OSM   H17S12278   1.298   1.651   8.176  0.1056  1.6940 -2.0053
  117OSM   H17T12279   1.385   1.791   8.225  0.3170 -0.7685  0.8240
  117OSM   C18S12280   1.428   1.631   8.353 -0.3457  1.0310 -0.5497
  117OSM   H18S12281   1.520   1.674   8.398 -1.1211  1.6680  0.4500
  117OSM   H18T12282   1.440   1.521   8.358 -1.4867  0.8612 -1.1614
  117OSM   H18U12283   1.344   1.658   8.420  0.9633  0.5802  1.3427
  117OSM    C1F12284   1.946   2.415   6.877  0.5496  0.2507  0.1413
  117OSM     OF12285   1.839   2.440   6.819 -0.3276 -0.4154  0.5194
  117OSM    C2F12286   2.015   2.522   6.963 -0.1846  0.8659  0.2126
  117OSM    H2F12287   2.003   2.617   6.905  0.9056  0.9212  0.0503
  117OSM    H2G12288   2.124   2.503   6.973 -0.3787  0.5530  1.9971
  117OSM    C3F12289   1.940   2.546   7.101  0.4688 -0.2123  0.0492
  117OSM    H3F12290   1.930   2.458   7.167 -3.5171  0.8768  1.1854
  117OSM    H3G12291   1.835   2.570   7.076  0.0663 -0.2256  1.6210
  117OSM    C4F12292   2.006   2.654   7.184 -0.6225  0.0441  0.0628
  117OSM    H4F12293   1.984   2.760   7.158 -0.5036 -0.2214 -1.1927
  117OSM    H4G12294   2.117   2.653   7.182 -0.5014  2.8896  1.1014
  117OSM    C5F12295   1.960   2.631   7.331 -0.0259 -0.3840  0.5056
  117OSM    H5F12296   1.985   2.525   7.356  2.2969  0.1542  0.7027
  117OSM    H5G12297   1.850   2.644   7.336  0.2175  1.4599  2.2744
  117OSM    C6F12298   2.020   2.733   7.426  0.3205  0.1107 -0.1122
  117OSM    H6F12299   1.998   2.835   7.388 -1.5440 -0.2489 -0.1085
  117OSM    H6G12300   2.131   2.728   7.422  0.2911 -0.4919 -0.2750
  117OSM    C7F12301   1.974   2.710   7.566  0.1184  0.4846 -0.1115
  117OSM    H7F12302   1.970   2.602   7.591  2.1547 -0.3191 -2.8082
  117OSM    H7G12303   1.868   2.744   7.568  0.6995  2.4253  1.9754
  117OSM    C8F12304   2.030   2.799   7.670  0.0714 -0.7324  0.3339
  117OSM    H8F12305   1.972   2.798   7.764 -0.4883  1.7741  0.0959
  117OSM    H8G12306   2.027   2.907   7.642 -0.8193 -0.1872  2.3420
  117OSM    C9F12307   2.179   2.773   7.700  0.5323  0.0214 -0.3220
  117OSM    H9F12308   2.239   2.772   7.608 -1.3994 -2.9667 -1.7146
  117OSM   C10F12309   2.245   2.742   7.815  0.4230 -0.5352  0.0132
  117OSM   H10F12310   2.352   2.718   7.805  0.6222 -0.0807  0.9502
  117OSM   C11F12311   2.189   2.734   7.951 -0.3837  0.9676  0.3930
  117OSM   H11F12312   2.148   2.632   7.966 -0.6387  1.0076 -0.0330
  117OSM   H11G12313   2.102   2.802   7.962 -0.5058  1.3199 -2.2363
  117OSM   C12F12314   2.293   2.763   8.062  0.8296 -0.2069 -0.3787
  117OSM   H12F12315   2.388   2.707   8.047  0.7691 -0.5777  0.5400
  117OSM   H12G12316   2.255   2.726   8.159  2.5052 -0.6810  0.1374
  117OSM   C13F12317   2.338   2.906   8.085  0.4332 -0.1812  0.0439
  117OSM   H13F12318   2.244   2.963   8.103  1.0684  1.1204 -0.6274
  117OSM   H13G12319   2.380   2.947   7.991 -0.0156  1.3922  0.4981
  117OSM   C14F12320   2.430   2.920   8.202 -0.2978 -0.1494  0.2227
  117OSM   H14F12321   2.374   2.906   8.297 -1.9398  0.6082 -0.5866
  117OSM   H14G12322   2.468   3.025   8.201  2.4897 -1.0896 -0.4871
  117OSM   C15F12323   2.553   2.827   8.192  0.6095 -0.3948 -0.7923
  117OSM   H15F12324   2.609   2.846   8.098  0.0996 -3.6738 -1.8882
  117OSM   H15G12325   2.540   2.717   8.188  1.6779 -0.6440  1.2863
  117OSM   C16F12326   2.648   2.854   8.308 -0.8156 -0.2792 -0.3617
  117OSM   H16F12327   2.693   2.954   8.320 -1.2890 -0.0941 -0.0734
  117OSM   H16G12328   2.727   2.779   8.287 -2.1252 -1.4577 -1.2891
  117OSM   C17F12329   2.590   2.827   8.449  0.7613  0.3707  0.2005
  117OSM   H17F12330   2.519   2.907   8.478  1.2805  1.3150 -1.0183
  117OSM   H17G12331   2.531   2.733   8.444 -0.4195  1.0227  1.3288
  117OSM   C18F12332   2.697   2.829   8.554 -0.4065  0.1028 -0.0259
  117OSM   H18F12333   2.641   2.828   8.650 -2.2603  0.2632 -1.0720
  117OSM   H18G12334   2.757   2.923   8.546  1.4823 -1.1158 -0.9759
  117OSM   H18H12335   2.756   2.735   8.560  1.0486  0.9811  0.1552
  118OSM      N12336   4.912   4.987   5.797 -0.0699  0.0452 -0.0187
  118OSM    C1512337   4.982   4.974   5.673  0.2054  0.9021  0.0365
  118OSM   H15A12338   4.916   4.935   5.597  0.3786  1.6815 -0.5263
  118OSM   H15B12339   5.081   4.933   5.683  0.3686  0.6897 -1.9307
  118OSM   H15C12340   5.001   5.074   5.636 -0.9630  1.5587  1.1363
  118OSM    C1412341   4.773   5.037   5.781  0.1573 -0.3126  0.1451
  118OSM   H14A12342   4.720   4.977   5.708  0.3205 -0.0238 -0.2075
  118OSM   H14B12343   4.772   5.140   5.749  1.4138  0.2668  1.8399
  118OSM   H14C12344   4.729   5.036   5.880 -1.1196  1.6475 -0.3348
  118OSM    C1312345   4.892   4.844   5.846 -0.5651 -0.7817  1.0514
  118OSM   H13A12346   4.987   4.805   5.880 -0.7997 -2.1902  0.1686
  118OSM   H13B12347   4.868   4.774   5.768  0.5021 -0.3396  0.2988
  118OSM   H13C12348   4.830   4.836   5.934 -1.6109  1.0790  0.5255
  118OSM    C1212349   4.987   5.066   5.907  0.4816  0.4484  0.3218
  118OSM   H12A12350   4.997   5.164   5.862 -2.6688 -0.5878 -3.1901
  118OSM   H12B12351   5.081   5.024   5.940 -0.6222 -1.6730  0.9668
  118OSM    C1112352   4.910   5.086   6.036  0.2589 -0.3095  0.7672
  118OSM   H11A12353   4.979   5.126   6.113  0.6298 -1.5640  1.1116
  118OSM   H11B12354   4.883   4.994   6.092  1.1897 -1.2902 -0.3479
  118OSM      P12355   4.775   5.315   6.079 -0.4757 -0.0878 -0.0301
  118OSM    O1312356   4.862   5.410   6.013  0.4607  0.2552  0.1814
  118OSM    O1412357   4.630   5.353   6.077 -0.3869 -0.4377  0.1466
  118OSM    O1112358   4.831   5.297   6.229  0.3588  0.3467 -0.4284
  118OSM    O1212359   4.792   5.165   6.014 -0.1892  0.5174 -0.7453
  118OSM    C1S12360   4.754   5.220   6.329 -0.1870 -0.4102  0.2789
  118OSM    H1S12361   4.790   5.115   6.323 -0.9777 -0.9391  3.2976
  118OSM    H1T12362   4.647   5.223   6.300  0.2388  0.3913 -1.3354
  118OSM     NF12363   4.657   5.203   6.542  0.7111  0.4223 -0.8682
  118OSM    HNF12364   4.561   5.228   6.533  0.1214  0.1067  2.8959
  118OSM    C2S12365   4.754   5.275   6.471  0.5622  0.4244  0.2862
  118OSM    H2S12366   4.854   5.258   6.515 -0.3683 -4.3695  1.0299
  118OSM    C3S12367   4.729   5.428   6.475 -0.0419  0.2010 -0.0934
  118OSM    H3S12368   4.630   5.464   6.438 -0.6034  1.3974  2.4013
  118OSM     O312369   4.825   5.490   6.393  0.2882 -0.1597 -0.5300
  118OSM    HO312370   4.846   5.417   6.334  1.5827 -1.3541  1.3122
  118OSM    C4S12371   4.732   5.479   6.615  0.1651 -0.4037  0.2075
  118OSM    H4S12372   4.634   5.502   6.659 -0.1469  0.1292 -0.7257
  118OSM    C5S12373   4.842   5.508   6.692  0.8157 -0.0349 -0.6250
  118OSM    H5S12374   4.939   5.509   6.640  1.3556  1.1812  0.3479
  118OSM    C6S12375   4.826   5.576   6.823 -0.2212  0.0484 -0.1464
  118OSM    H6S12376   4.725   5.558   6.865 -0.6784 -0.8608 -1.5880
  118OSM    H6T12377   4.829   5.687   6.810  0.8493  0.1961  1.0870
  118OSM    C7S12378   4.932   5.537   6.923  0.7312 -0.3738 -0.2861
  118OSM    H7S12379   5.025   5.568   6.871 -0.9284  3.3813 -1.3676
  118OSM    H7T12380   4.923   5.428   6.941  1.9369 -0.2698  1.0740
  118OSM    C8S12381   4.923   5.618   7.056 -0.2251 -0.0247  0.7464
  118OSM    H8S12382   4.820   5.623   7.097 -0.0408  2.5751  1.0549
  118OSM    H8T12383   4.960   5.723   7.048 -0.1427 -0.1904 -2.0197
  118OSM    C9S12384   5.012   5.563   7.170 -0.9337 -0.2862 -0.0528
  118OSM    H9S12385   5.117   5.547   7.136 -0.9696  0.3745 -0.4941
  118OSM    H9T12386   4.961   5.466   7.189 -2.8451  0.0453 -2.8047
  118OSM   C10S12387   5.034   5.653   7.293  0.6862  0.2813  0.0856
  118OSM   H10S12388   5.055   5.757   7.262 -0.4015  0.8762  1.2679
  118OSM   H10T12389   5.129   5.640   7.349  1.1513  2.0241 -0.2454
  118OSM   C11S12390   4.925   5.661   7.400  0.0122  0.1115  0.0218
  118OSM   H11S12391   4.912   5.559   7.441  1.6887  0.9007  2.8013
  118OSM   H11T12392   4.832   5.691   7.346  0.6597  3.5616  0.5520
  118OSM   C12S12393   4.957   5.751   7.519 -0.2405 -0.5945 -0.1286
  118OSM   H12S12394   4.870   5.751   7.588  0.7296 -3.5696  1.2715
  118OSM   H12T12395   4.979   5.854   7.485 -3.3605  0.8416  1.7587
  118OSM   C13S12396   5.078   5.698   7.601 -0.4434  0.1152  0.9690
  118OSM   H13S12397   5.172   5.685   7.543 -2.1139 -3.9622 -1.2710
  118OSM   H13T12398   5.061   5.590   7.622  2.1524 -0.3459  0.9722
  118OSM   C14S12399   5.096   5.769   7.734  0.3870 -0.8070 -0.2973
  118OSM   H14S12400   5.069   5.877   7.727 -2.1279 -1.3353  0.4835
  118OSM   H14T12401   5.200   5.771   7.773  0.2714  0.5310 -0.0002
  118OSM   C15S12402   5.012   5.697   7.840  0.0308 -0.2591  0.0439
  118OSM   H15S12403   5.048   5.593   7.857 -1.3521 -0.9925 -1.3451
  118OSM   H15T12404   4.903   5.687   7.823 -0.4137 -1.2531  2.9303
  118OSM   C16S12405   5.002   5.765   7.973 -0.3108  0.2626  0.3002
  118OSM   H16S12406   5.002   5.874   7.955  0.1080  0.0383 -1.2045
  118OSM   H16T12407   5.084   5.737   8.042 -0.5455 -1.3842 -0.0446
  118OSM   C17S12408   4.877   5.737   8.056 -0.6796 -0.2916  0.3681
  118OSM   H17S12409   4.870   5.627   8.068  1.7736 -0.4975  0.3976
  118OSM   H17T12410   4.787   5.774   8.001  1.3521  0.0377 -2.9821
  118OSM   C18S12411   4.887   5.801   8.197 -0.5847  0.3129  0.3359
  118OSM   H18S12412   4.969   5.743   8.246 -0.1991  1.6306  1.2955
  118OSM   H18T12413   4.796   5.785   8.259  0.5086 -2.6102  1.3458
  118OSM   H18U12414   4.919   5.907   8.192 -2.8967  1.0273 -0.5740
  118OSM    C1F12415   4.692   5.082   6.597 -0.0265  0.3001 -0.5936
  118OSM     OF12416   4.785   5.022   6.558  0.0904  0.3252  0.6290
  118OSM    C2F12417   4.604   5.032   6.708 -0.1298  0.6324  0.2015
  118OSM    H2F12418   4.565   4.933   6.678 -1.4383  0.8876  0.9869
  118OSM    H2G12419   4.523   5.104   6.734  0.6314  2.0159 -1.0825
  118OSM    C3F12420   4.691   5.015   6.843 -0.1396 -0.6751  0.6949
  118OSM    H3F12421   4.703   5.122   6.871  0.2133 -0.1196 -1.3654
  118OSM    H3G12422   4.791   4.969   6.830 -0.0913 -0.2990 -0.3455
  118OSM    C4F12423   4.616   4.929   6.954 -0.1242 -0.6270  0.1898
  118OSM    H4F12424   4.628   4.822   6.926 -0.9745 -0.9820  1.1282
  118OSM    H4G12425   4.512   4.967   6.954  0.1806  0.2495 -0.4851
  118OSM    C5F12426   4.676   4.970   7.088 -0.4909  0.0759  0.4269
  118OSM    H5F12427   4.620   5.057   7.127  0.7838  1.0900  0.0266
  118OSM    H5G12428   4.781   5.000   7.070 -0.1748 -1.1095  0.2115
  118OSM    C6F12429   4.678   4.846   7.183  0.4260 -0.4392 -0.0259
  118OSM    H6F12430   4.739   4.763   7.143  0.1457  0.0395 -1.4901
  118OSM    H6G12431   4.571   4.818   7.199  0.3179  0.6653  1.4798
  118OSM    C7F12432   4.737   4.879   7.321 -0.1842  0.2636 -0.6094
  118OSM    H7F12433   4.831   4.932   7.296  0.1800 -1.1927 -2.5748
  118OSM    H7G12434   4.772   4.787   7.374  0.1695  0.8459  0.1858
  118OSM    C8F12435   4.654   4.961   7.422 -0.4383 -1.0282  0.1814
  118OSM    H8F12436   4.594   5.028   7.357 -1.8543 -0.3180  2.1367
  118OSM    H8G12437   4.721   5.025   7.483 -0.0507 -1.5887  0.3594
  118OSM    C9F12438   4.556   4.880   7.506  0.4566 -0.2675  0.2037
  118OSM    H9F12439   4.472   4.848   7.442  2.3218 -0.1643 -2.5091
  118OSM   C10F12440   4.561   4.856   7.635  0.7523  0.0965 -0.5761
  118OSM   H10F12441   4.478   4.800   7.679  1.0512 -0.6161 -0.9041
  118OSM   C11F12442   4.673   4.912   7.720 -0.2615  0.1044 -0.6338
  118OSM   H11F12443   4.704   5.015   7.693  0.5651 -0.5390 -2.3127
  118OSM   H11G12444   4.766   4.851   7.715 -0.9075 -0.8877 -0.8865
  118OSM   C12F12445   4.633   4.914   7.874 -0.3164  0.3983 -0.9214
  118OSM   H12F12446   4.604   4.808   7.888  1.8311 -0.1897 -0.6386
  118OSM   H12G12447   4.543   4.978   7.892  1.6565  2.9352  0.7255
  118OSM   C13F12448   4.757   4.945   7.959  1.2069 -1.2008  0.2176
  118OSM   H13F12449   4.763   5.055   7.942 -1.1266 -1.1882 -1.1083
  118OSM   H13G12450   4.849   4.893   7.925  0.9695 -2.6479  1.6801
  118OSM   C14F12451   4.731   4.917   8.110  0.5472  0.1023 -0.3151
  118OSM   H14F12452   4.712   4.810   8.132 -1.1719  0.7641  1.7468
  118OSM   H14G12453   4.645   4.977   8.145  1.9116  2.9184 -1.4643
  118OSM   C15F12454   4.855   4.962   8.199 -0.0017  0.5540  0.3925
  118OSM   H15F12455   4.861   5.068   8.169 -0.1563  0.4230 -0.1027
  118OSM   H15G12456   4.951   4.914   8.171  0.8405  2.2170  0.3582
  118OSM   C16F12457   4.819   4.970   8.348  0.0937 -0.5277  0.0207
  118OSM   H16F12458   4.792   4.865   8.371 -1.1102 -0.2172  0.0990
  118OSM   H16G12459   4.739   5.047   8.356 -1.0275 -1.5937 -0.6024
  118OSM   C17F12460   4.948   5.018   8.417 -0.2280  0.4311  0.5983
  118OSM   H17F12461   4.983   5.114   8.372 -1.4331  0.9275  0.6694
  118OSM   H17G12462   5.021   4.940   8.388 -0.6618  0.6383 -1.1954
  118OSM   C18F12463   4.940   5.041   8.571 -0.2858  0.0653 -0.5342
  118OSM   H18F12464   5.042   5.035   8.614 -0.3277 -1.3934 -0.5845
  118OSM   H18G12465   4.878   4.967   8.627 -0.0555 -1.7800 -2.5866
  118OSM   H18H12466   4.901   5.144   8.586  1.2094  1.2846 -4.0427
  119OSM      N12467   5.505   4.412   6.032 -0.4418 -0.6383 -0.2020
  119OSM    C1512468   5.592   4.335   5.938 -0.3934  0.4185  0.2940
  119OSM   H15A12469   5.697   4.337   5.960  0.0092 -0.7943 -1.2994
  119OSM   H15B12470   5.569   4.374   5.840 -3.3759 -1.5056  0.0711
  119OSM   H15C12471   5.565   4.230   5.945 -0.2876  0.2616 -1.3542
  119OSM    C1412472   5.360   4.389   5.982  0.1634 -0.8317  0.1258
  119OSM   H14A12473   5.347   4.285   5.959  1.2583 -0.8049 -0.6591
  119OSM   H14B12474   5.348   4.447   5.891  0.2256 -2.3674 -0.8862
  119OSM   H14C12475   5.304   4.433   6.064  2.3169 -1.4840  2.0317
  119OSM    C1312476   5.520   4.360   6.168  0.9812  0.7169  0.1408
  119OSM   H13A12477   5.455   4.412   6.237  0.4629  3.6477 -2.3415
  119OSM   H13B12478   5.621   4.368   6.206  1.1838 -0.0430 -0.2203
  119OSM   H13C12479   5.502   4.254   6.164 -1.2347  1.0916 -0.9359
  119OSM    C1212480   5.538   4.564   6.032 -0.0320 -0.7099 -0.6156
  119OSM   H12A12481   5.642   4.576   6.062 -0.7447 -0.1126  1.8340
  119OSM   H12B12482   5.481   4.605   6.114  0.0323 -1.3373 -0.2490
  119OSM    C1112483   5.517   4.648   5.902 -0.7634  0.1193  0.4216
  119OSM   H11A12484   5.592   4.608   5.831  1.3626  1.3124  1.9018
  119OSM   H11B12485   5.562   4.747   5.923  1.3382 -0.6077 -0.3724
  119OSM      P12486   5.298   4.765   5.837 -0.0628 -0.0978 -0.0547
  119OSM    O1312487   5.357   4.852   5.728  0.1806 -0.0277 -0.3731
  119OSM    O1412488   5.157   4.725   5.822 -0.7927  0.0444 -0.1238
  119OSM    O1112489   5.308   4.842   5.978 -0.1463  0.0970 -1.1272
  119OSM    O1212490   5.383   4.638   5.859 -0.2434 -0.1791  0.1335
  119OSM    C1S12491   5.259   4.764   6.090 -0.1263  0.4745 -0.4629
  119OSM    H1S12492   5.316   4.670   6.107 -2.5738 -0.6255  2.5742
  119OSM    H1T12493   5.152   4.738   6.076  0.4095 -2.6903  0.3671
  119OSM     NF12494   5.205   4.770   6.330 -0.1501 -0.3570  0.0569
  119OSM    HNF12495   5.119   4.801   6.371 -0.0086 -0.8544  0.7588
  119OSM    C2S12496   5.265   4.846   6.228 -0.2199 -0.3828  0.5456
  119OSM    H2S12497   5.368   4.863   6.265 -0.2869 -1.6339  1.3621
  119OSM    C3S12498   5.203   4.989   6.219 -0.1228 -0.1802 -0.0089
  119OSM    H3S12499   5.093   4.972   6.213 -0.7418  1.6908  3.4270
  119OSM     O312500   5.241   5.070   6.101 -0.5747  0.7788 -0.2437
  119OSM    HO312501   5.269   5.002   6.040  0.4964 -0.1976  1.2698
  119OSM    C4S12502   5.225   5.067   6.346 -0.1404 -0.2812 -1.0244
  119OSM    H4S12503   5.329   5.076   6.382  0.3272  0.4277 -2.4644
  119OSM    C5S12504   5.133   5.141   6.409 -0.4431  0.3721  0.6098
  119OSM    H5S12505   5.028   5.125   6.381 -0.2085 -1.3974  0.6090
  119OSM    C6S12506   5.159   5.210   6.538 -0.5175 -0.4979  0.1122
  119OSM    H6S12507   5.152   5.321   6.532  1.6002 -0.3059  0.5013
  119OSM    H6T12508   5.266   5.205   6.568 -0.2188  0.9235 -0.6113
  119OSM    C7S12509   5.078   5.159   6.661  0.7508 -0.4291  0.0306
  119OSM    H7S12510   5.064   5.049   6.666 -2.5750 -0.1586 -0.7115
  119OSM    H7T12511   4.975   5.202   6.657 -0.3319 -2.9417 -0.5102
  119OSM    C8S12512   5.144   5.198   6.797  0.1168 -0.0691 -0.8888
  119OSM    H8S12513   5.142   5.309   6.810  3.0051 -0.1572  1.3308
  119OSM    H8T12514   5.251   5.169   6.802  0.2820  0.5782 -0.4766
  119OSM    C9S12515   5.066   5.127   6.909 -0.0224  0.4961  0.3595
  119OSM    H9S12516   5.088   5.019   6.902 -0.7958  0.2384  1.6553
  119OSM    H9T12517   4.959   5.143   6.883  0.5572  1.3063 -1.7293
  119OSM   C10S12518   5.112   5.170   7.046  0.5369 -0.1519  0.4589
  119OSM   H10S12519   5.085   5.275   7.068 -1.0605 -0.2461 -0.8802
  119OSM   H10T12520   5.221   5.182   7.031  0.2964  0.1139 -1.2739
  119OSM   C11S12521   5.053   5.077   7.147  0.2497  0.6328 -0.4183
  119OSM   H11S12522   5.064   4.973   7.110  2.6962  1.0954 -1.1049
  119OSM   H11T12523   4.943   5.088   7.159  0.0220 -1.0309 -0.7454
  119OSM   C12S12524   5.120   5.076   7.285  0.1895  0.3628  0.1745
  119OSM   H12S12525   5.230   5.078   7.272  0.1103  3.2394 -0.7013
  119OSM   H12T12526   5.091   4.979   7.331 -0.2639  0.3064 -0.2257
  119OSM   C13S12527   5.087   5.201   7.364 -0.4054  0.1617  0.4471
  119OSM   H13S12528   4.979   5.224   7.353 -0.0875  0.9374 -1.4067
  119OSM   H13T12529   5.147   5.280   7.314  0.8175 -1.2407 -0.3791
  119OSM   C14S12530   5.125   5.188   7.510  0.4882 -0.5314  0.4026
  119OSM   H14S12531   5.102   5.292   7.543 -3.4299 -0.1788 -2.6125
  119OSM   H14T12532   5.229   5.153   7.525  0.1259 -1.4814  0.8058
  119OSM   C15S12533   5.026   5.102   7.597  0.4670 -0.2158 -0.5563
  119OSM   H15S12534   5.042   4.995   7.572 -0.7963 -0.5422 -0.0255
  119OSM   H15T12535   4.923   5.143   7.587  0.8996  0.7360 -1.3911
  119OSM   C16S12536   5.062   5.114   7.745  0.1315 -0.0587 -0.7621
  119OSM   H16S12537   5.160   5.067   7.768  0.4052  0.8776  0.0438
  119OSM   H16T12538   4.983   5.074   7.813 -1.1512 -0.5165 -2.4591
  119OSM   C17S12539   5.079   5.267   7.794  0.6871  0.0514  0.5190
  119OSM   H17S12540   4.983   5.315   7.768  1.1347  0.2924 -0.8217
  119OSM   H17T12541   5.156   5.329   7.742  0.7475 -0.8784 -0.5628
  119OSM   C18S12542   5.100   5.273   7.944  1.0836  0.9662  1.1277
  119OSM   H18S12543   5.008   5.240   7.997  1.6856  0.4407  1.8725
  119OSM   H18T12544   5.111   5.381   7.968 -0.0737  1.4885 -0.5204
  119OSM   H18U12545   5.186   5.211   7.976  1.5126  0.1275 -1.4000
  119OSM    C1F12546   5.245   4.648   6.361  0.4255 -0.1727  0.5461
  119OSM     OF12547   5.355   4.606   6.324 -0.5513  0.7690 -0.1792
  119OSM    C2F12548   5.149   4.566   6.436 -0.2891 -0.4838 -0.0678
  119OSM    H2F12549   5.132   4.472   6.379  1.2511 -0.8330  0.0050
  119OSM    H2G12550   5.053   4.618   6.457  0.1290 -0.3062  1.6041
  119OSM    C3F12551   5.211   4.525   6.573 -0.3323  0.1108 -0.1756
  119OSM    H3F12552   5.316   4.492   6.554 -0.0904  0.2061  0.9606
  119OSM    H3G12553   5.152   4.439   6.611  1.0738 -0.6830  0.2670
  119OSM    C4F12554   5.208   4.627   6.688  0.1385  0.2174 -0.2971
  119OSM    H4F12555   5.103   4.658   6.702 -0.5445 -2.2016  0.4146
  119OSM    H4G12556   5.258   4.723   6.662  0.3059  0.4783  0.8935
  119OSM    C5F12557   5.271   4.585   6.821  0.2514 -0.3638 -0.3708
  119OSM    H5F12558   5.380   4.603   6.833 -0.1798  0.6567  3.2721
  119OSM    H5G12559   5.250   4.478   6.846 -0.4509  0.2095  1.7476
  119OSM    C6F12560   5.213   4.652   6.946  0.3852 -0.2247 -0.4345
  119OSM    H6F12561   5.103   4.660   6.957  0.5209  1.9401 -0.0733
  119OSM    H6G12562   5.252   4.755   6.930  0.3344 -0.0881  0.3198
  119OSM    C7F12563   5.285   4.612   7.072  0.3360  0.0281  0.4081
  119OSM    H7F12564   5.393   4.606   7.050  0.1150  1.1783 -1.1138
  119OSM    H7G12565   5.270   4.505   7.097 -3.0401  0.3448  0.2765
  119OSM    C8F12566   5.244   4.713   7.180 -1.2546  0.4444  0.0437
  119OSM    H8F12567   5.258   4.820   7.155  1.0460  0.2806  0.4260
  119OSM    H8G12568   5.309   4.695   7.268  1.0803 -0.9064 -1.8573
  119OSM    C9F12569   5.098   4.701   7.226 -0.6574 -0.1226 -0.3640
  119OSM    H9F12570   5.028   4.745   7.154 -1.0612 -0.9626 -0.4984
  119OSM   C10F12571   5.052   4.639   7.332  0.7144 -0.0550  0.0927
  119OSM   H10F12572   4.945   4.652   7.357  1.1300  0.8351  1.5598
  119OSM   C11F12573   5.119   4.567   7.442  0.5934 -0.4705 -0.3881
  119OSM   H11F12574   5.228   4.560   7.420  0.3332 -0.9190 -1.5916
  119OSM   H11G12575   5.069   4.468   7.450 -0.3677 -0.1904 -2.2946
  119OSM   C12F12576   5.126   4.637   7.588  0.2820 -0.4204  0.1815
  119OSM   H12F12577   5.022   4.650   7.624  0.6651 -1.7209  1.9365
  119OSM   H12G12578   5.182   4.732   7.572  1.5035 -1.5337 -3.0194
  119OSM   C13F12579   5.185   4.544   7.692 -0.0752  0.0626  0.7281
  119OSM   H13F12580   5.266   4.489   7.640 -0.3752 -1.2211  1.5811
  119OSM   H13G12581   5.102   4.479   7.727 -1.2757  0.3404 -1.4189
  119OSM   C14F12582   5.246   4.612   7.811  0.6445  0.2681  0.6486
  119OSM   H14F12583   5.332   4.678   7.787  0.9510 -1.0125 -2.1373
  119OSM   H14G12584   5.290   4.530   7.873  2.0619 -0.5188 -1.2873
  119OSM   C15F12585   5.149   4.696   7.888 -0.3379  0.2837  1.0347
  119OSM   H15F12586   5.071   4.639   7.942 -2.4858  1.3360 -0.8140
  119OSM   H15G12587   5.090   4.757   7.817 -0.3342 -1.4551 -0.5213
  119OSM   C16F12588   5.215   4.788   7.995  0.6744  1.1209  0.1158
  119OSM   H16F12589   5.144   4.863   8.036 -0.8521 -0.1781 -0.0433
  119OSM   H16G12590   5.294   4.852   7.951  1.8695  0.2055  0.8918
  119OSM   C17F12591   5.285   4.720   8.114 -0.3225  0.7083  0.1263
  119OSM   H17F12592   5.381   4.676   8.079 -0.5081 -0.1017  0.6054
  119OSM   H17G12593   5.214   4.640   8.144  0.8702 -0.4000  0.0694
  119OSM   C18F12594   5.307   4.812   8.230  0.4163 -0.2275 -0.2540
  119OSM   H18F12595   5.354   4.908   8.199  1.7630 -0.0596  2.0523
  119OSM   H18G12596   5.380   4.759   8.296  1.2767  0.7106 -0.4193
  119OSM   H18H12597   5.213   4.822   8.288  1.2251  1.2209  0.8912
  120OSM      N12598   4.328   3.145   6.082  0.5160 -0.4604  0.9243
  120OSM    C1512599   4.277   3.280   6.137 -0.6300 -0.1387  0.2180
  120OSM   H15A12600   4.347   3.361   6.125  0.9056 -1.0505  2.3746
  120OSM   H15B12601   4.281   3.267   6.244  1.0710 -0.3083  0.1630
  120OSM   H15C12602   4.184   3.308   6.091  0.9389  3.9993 -0.8234
  120OSM    C1412603   4.222   3.040   6.108  0.3147 -0.4528  0.3713
  120OSM   H14A12604   4.252   2.941   6.077  0.3458 -0.4586  0.4192
  120OSM   H14B12605   4.125   3.068   6.069  1.2056  1.1513 -0.8549
  120OSM   H14C12606   4.196   3.026   6.211 -1.2513 -0.2965  0.0160
  120OSM    C1312607   4.343   3.168   5.937  0.5444  0.1229 -0.1196
  120OSM   H13A12608   4.258   3.207   5.883  0.8370  0.6728 -0.1868
  120OSM   H13B12609   4.355   3.069   5.896  1.8375  0.5682 -0.8729
  120OSM   H13C12610   4.440   3.210   5.915 -0.1194  1.6949 -0.1708
  120OSM    C1212611   4.461   3.092   6.140  0.5052  0.3546 -0.3598
  120OSM   H12A12612   4.536   3.169   6.133  1.3743 -0.5417 -1.5257
  120OSM   H12B12613   4.493   3.019   6.067  2.0334 -0.6690  1.2583
  120OSM    C1112614   4.462   3.043   6.287 -0.0230 -0.0473  0.1056
  120OSM   H11A12615   4.563   3.009   6.319  0.1651  0.1497 -0.2809
  120OSM   H11B12616   4.396   2.954   6.279 -0.5751  0.4236 -0.7986
  120OSM      P12617   4.504   3.273   6.409  0.2259 -0.0502 -0.3623
  120OSM    O1312618   4.631   3.266   6.332 -0.2034 -0.2729  0.1480
  120OSM    O1412619   4.425   3.397   6.390 -0.1719 -0.0233  0.4214
  120OSM    O1112620   4.523   3.258   6.566  0.3010 -0.0670  0.0314
  120OSM    O1212621   4.420   3.152   6.369 -0.1585 -0.1972  0.1620
  120OSM    C1S12622   4.604   3.146   6.618  0.0035 -0.6269 -0.6503
  120OSM    H1S12623   4.711   3.146   6.586  0.3286 -1.1188  0.3935
  120OSM    H1T12624   4.562   3.048   6.588 -1.8332 -0.4447  1.1611
  120OSM     NF12625   4.715   3.099   6.830 -0.0841  0.1862  0.0427
  120OSM    HNF12626   4.704   3.005   6.863 -0.9171  0.8214  1.6879
  120OSM    C2S12627   4.604   3.168   6.777 -0.8490  0.1844  0.4217
  120OSM    H2S12628   4.615   3.273   6.810  1.3012  0.0759  0.2194
  120OSM    C3S12629   4.470   3.126   6.837 -0.5632 -0.6653  0.1378
  120OSM    H3S12630   4.452   3.022   6.801 -0.1585 -0.1218 -1.6919
  120OSM     O312631   4.354   3.203   6.789  0.2791  0.3384  0.4003
  120OSM    HO312632   4.388   3.250   6.712 -0.8753 -0.0592 -0.3699
  120OSM    C4S12633   4.466   3.128   6.984  0.3458 -0.6741 -0.1121
  120OSM    H4S12634   4.487   3.222   7.037  1.7467 -0.6056 -0.7707
  120OSM    C5S12635   4.449   3.010   7.057  0.7018 -0.7233  0.2155
  120OSM    H5S12636   4.433   2.918   6.999 -1.2040 -1.3638  1.6845
  120OSM    C6S12637   4.438   3.006   7.206 -0.5852  1.0068 -0.4870
  120OSM    H6S12638   4.348   2.946   7.232 -0.8693  0.7995 -1.8559
  120OSM    H6T12639   4.418   3.103   7.256  0.4070  1.3749 -0.7745
  120OSM    C7S12640   4.555   2.944   7.290  0.6543  0.6357 -0.0161
  120OSM    H7S12641   4.642   3.013   7.285  1.1977 -0.0290  0.1150
  120OSM    H7T12642   4.598   2.850   7.249  0.2573 -0.0281  1.0427
  120OSM    C8S12643   4.515   2.912   7.438 -0.0802 -0.2347  0.1303
  120OSM    H8S12644   4.454   2.820   7.448  1.8827 -1.8822 -2.0948
  120OSM    H8T12645   4.442   2.993   7.463  0.4456  0.2935 -0.0154
  120OSM    C9S12646   4.635   2.921   7.539  0.3975 -0.0353 -0.4948
  120OSM    H9S12647   4.672   3.026   7.532  1.0325 -0.1181  1.1159
  120OSM    H9T12648   4.715   2.855   7.501  0.5839  0.6159 -1.2844
  120OSM   C10S12649   4.607   2.895   7.687 -0.0204 -0.6530 -0.5668
  120OSM   H10S12650   4.694   2.839   7.726  0.1525  0.5987  0.9308
  120OSM   H10T12651   4.516   2.831   7.687 -0.8382  0.4205  1.7247
  120OSM   C11S12652   4.577   3.016   7.783  0.2341  0.0709 -0.0192
  120OSM   H11S12653   4.487   3.073   7.753 -0.3647 -0.7412  0.1900
  120OSM   H11T12654   4.649   3.100   7.779 -2.4761  2.6369  1.2525
  120OSM   C12S12655   4.559   2.983   7.924 -0.1302  0.3954  0.3152
  120OSM   H12S12656   4.625   2.899   7.954 -0.6111  0.3765  1.3722
  120OSM   H12T12657   4.456   2.943   7.926  0.6273 -1.9090 -1.8419
  120OSM   C13S12658   4.584   3.099   8.022  0.5433 -0.1578 -0.0427
  120OSM   H13S12659   4.515   3.185   8.021 -1.1643 -1.3756  2.2943
  120OSM   H13T12660   4.689   3.132   8.005  0.4997  0.3504  0.6503
  120OSM   C14S12661   4.567   3.056   8.167  0.1005  0.5904 -0.5166
  120OSM   H14S12662   4.622   2.960   8.171  1.0105  0.9742 -2.3474
  120OSM   H14T12663   4.462   3.024   8.179  0.3471  0.3960  1.3054
  120OSM   C15S12664   4.611   3.165   8.270  0.4118 -0.0059  0.1548
  120OSM   H15S12665   4.549   3.255   8.250 -0.5997 -1.0847 -1.7876
  120OSM   H15T12666   4.716   3.197   8.255  0.9071 -0.8446  1.5763
  120OSM   C16S12667   4.587   3.126   8.421 -0.5040  0.1625 -0.8865
  120OSM   H16S12668   4.666   3.056   8.457 -1.3246  1.0049  2.9726
  120OSM   H16T12669   4.498   3.060   8.428  0.6065 -1.3880 -0.8305
  120OSM   C17S12670   4.585   3.246   8.515 -0.4221  0.5202  0.6583
  120OSM   H17S12671   4.509   3.317   8.475 -0.9322 -0.3146  0.1053
  120OSM   H17T12672   4.685   3.294   8.511 -0.8359  1.3854 -2.7849
  120OSM   C18S12673   4.554   3.217   8.657 -0.4789  0.2936 -0.0909
  120OSM   H18S12674   4.623   3.140   8.697  3.6634  3.8191  0.2944
  120OSM   H18T12675   4.450   3.182   8.674 -0.6015  0.7187  0.0443
  120OSM   H18U12676   4.570   3.309   8.717 -1.5017 -0.6213  1.6693
  120OSM    C1F12677   4.839   3.142   6.839 -0.2151  0.6939 -0.3053
  120OSM     OF12678   4.879   3.229   6.768  0.0794  0.2390 -0.1057
  120OSM    C2F12679   4.925   3.062   6.931  0.1286 -0.2672 -0.5856
  120OSM    H2F12680   5.019   3.044   6.876  0.6741 -1.0871  0.5759
  120OSM    H2G12681   4.875   2.967   6.959 -0.9338 -0.1786 -2.0276
  120OSM    C3F12682   4.981   3.145   7.052  1.0052  0.0594  0.2012
  120OSM    H3F12683   4.998   3.249   7.018 -1.5869  0.6264  0.4262
  120OSM    H3G12684   5.074   3.103   7.097  0.3759 -0.6055  0.9127
  120OSM    C4F12685   4.872   3.173   7.158  0.1757  0.6305  0.1657
  120OSM    H4F12686   4.847   3.069   7.188  1.9861  0.4470  1.1537
  120OSM    H4G12687   4.785   3.229   7.117 -0.1241  0.3132  0.3613
  120OSM    C5F12688   4.932   3.248   7.273  0.5621  0.2572 -0.7928
  120OSM    H5F12689   4.944   3.358   7.255 -3.7082  1.4158  1.9536
  120OSM    H5G12690   5.030   3.197   7.285  0.4027  0.1295 -0.0302
  120OSM    C6F12691   4.855   3.235   7.401 -0.9015 -0.8090 -0.1678
  120OSM    H6F12692   4.885   3.145   7.458 -1.8956 -0.5603  0.7860
  120OSM    H6G12693   4.746   3.224   7.378 -0.9290 -2.8271  0.7214
  120OSM    C7F12694   4.881   3.355   7.494 -0.2817 -0.2815 -0.3140
  120OSM    H7F12695   4.873   3.448   7.434 -3.6580 -0.1633  0.1174
  120OSM    H7G12696   4.990   3.345   7.513  0.2016 -1.4348 -3.1891
  120OSM    C8F12697   4.788   3.371   7.618 -0.2511  0.3567  1.1613
  120OSM    H8F12698   4.781   3.276   7.676 -0.6262 -1.8329 -2.1814
  120OSM    H8G12699   4.689   3.391   7.572 -0.4186 -1.5918  0.5697
  120OSM    C9F12700   4.837   3.488   7.698 -0.2533 -0.1551 -1.2322
  120OSM    H9F12701   4.883   3.569   7.639 -0.3818  0.6037 -0.3042
  120OSM   C10F12702   4.833   3.504   7.831  0.0671 -0.3671  0.6919
  120OSM   H10F12703   4.869   3.600   7.870 -3.0989  1.4433 -0.5003
  120OSM   C11F12704   4.767   3.403   7.916 -0.5618  0.6755  0.0089
  120OSM   H11F12705   4.844   3.342   7.969  0.5460  0.6157 -1.5836
  120OSM   H11G12706   4.697   3.336   7.862 -1.6977  0.4548  1.6975
  120OSM   C12F12707   4.691   3.461   8.038  0.4329 -0.9294  1.0739
  120OSM   H12F12708   4.650   3.370   8.086  0.2656 -1.7435 -0.5372
  120OSM   H12G12709   4.607   3.528   8.010  1.2486 -0.4377 -0.3240
  120OSM   C13F12710   4.767   3.530   8.151 -0.3194  0.6507  0.4241
  120OSM   H13F12711   4.828   3.617   8.118 -0.5483  0.8574  0.5390
  120OSM   H13G12712   4.841   3.464   8.201  0.5278  1.1581 -0.1602
  120OSM   C14F12713   4.674   3.571   8.263  0.9144  0.4398  0.4320
  120OSM   H14F12714   4.631   3.480   8.312 -0.2475 -0.2190 -1.6871
  120OSM   H14G12715   4.594   3.633   8.217  1.2252 -0.6515 -1.6938
  120OSM   C15F12716   4.752   3.640   8.379 -0.2295  0.0978  0.4582
  120OSM   H15F12717   4.810   3.728   8.344  0.5583 -0.2716  0.8077
  120OSM   H15G12718   4.831   3.568   8.408 -0.1395  0.5981  1.5266
  120OSM   C16F12719   4.663   3.690   8.498  0.1883 -0.1286 -0.7768
  120OSM   H16F12720   4.617   3.599   8.542  2.0188 -0.1413  1.2960
  120OSM   H16G12721   4.588   3.760   8.454 -1.6374 -1.6953 -0.3185
  120OSM   C17F12722   4.715   3.772   8.615 -0.3504  0.5445 -1.0837
  120OSM   H17F12723   4.623   3.787   8.675 -0.7708 -0.2397 -1.5236
  120OSM   H17G12724   4.737   3.870   8.567  0.8281 -0.1600 -2.0422
  120OSM   C18F12725   4.839   3.723   8.687 -0.9844  0.5341 -0.4431
  120OSM   H18F12726   4.873   3.793   8.766  2.2285 -0.2905 -0.9370
  120OSM   H18G12727   4.929   3.720   8.622 -0.2862  1.1247  0.4616
  120OSM   H18H12728   4.810   3.623   8.727  0.2266 -0.1311 -1.1690
  121OSM      N12729   6.096   5.197   6.011 -0.1539  0.1791  1.0228
  121OSM    C1512730   6.152   5.303   5.920  0.0971 -0.3509 -0.4441
  121OSM   H15A12731   6.146   5.276   5.815  1.8504  0.1410 -0.7024
  121OSM   H15B12732   6.258   5.305   5.940  0.1783 -1.9987 -0.5735
  121OSM   H15C12733   6.104   5.399   5.934 -1.0637 -0.5609 -2.4224
  121OSM    C1412734   6.167   5.073   5.990 -0.5220  0.0114 -0.2679
  121OSM   H14A12735   6.147   5.011   6.076  1.2582  0.2334  0.3521
  121OSM   H14B12736   6.273   5.092   5.982 -0.4299 -1.0589 -2.8024
  121OSM   H14C12737   6.142   5.014   5.903  0.6926  0.8445 -1.2170
  121OSM    C1312738   6.122   5.236   6.156  0.5311 -0.7703  0.2484
  121OSM   H13A12739   6.058   5.172   6.216  0.2867  1.0962  2.1151
  121OSM   H13B12740   6.086   5.336   6.174  2.9801 -0.1475  2.3621
  121OSM   H13C12741   6.228   5.239   6.176  1.3946  0.8725 -3.6830
  121OSM    C1212742   5.946   5.188   5.992  0.4355  0.1670 -0.8037
  121OSM   H12A12743   5.926   5.163   5.889  0.8958  0.9973 -1.1092
  121OSM   H12B12744   5.907   5.288   6.004  0.6792  0.3184 -1.2466
  121OSM    C1112745   5.866   5.098   6.086  0.5257  0.2080 -0.6728
  121OSM   H11A12746   5.758   5.107   6.061  0.5936  2.8285 -0.2490
  121OSM   H11B12747   5.884   5.139   6.187 -0.8653  0.2244 -0.4177
  121OSM      P12748   5.843   4.845   5.997 -0.2640  0.3772  0.8762
  121OSM    O1312749   5.745   4.896   5.895 -0.2142 -0.0382 -0.0006
  121OSM    O1412750   5.965   4.770   5.949  0.4104 -0.1364  0.3442
  121OSM    O1112751   5.766   4.751   6.094 -0.3604  0.1557 -0.3096
  121OSM    O1212752   5.895   4.957   6.099 -0.0117  1.1594  0.3914
  121OSM    C1S12753   5.820   4.704   6.217 -0.4816  0.2158 -0.6339
  121OSM    H1S12754   5.930   4.715   6.215 -0.5056  1.5931  1.9312
  121OSM    H1T12755   5.782   4.602   6.235 -1.3429  0.7210  0.5616
  121OSM     NF12756   5.820   4.710   6.473 -0.0218  0.0348  0.1719
  121OSM    HNF12757   5.742   4.675   6.525  0.8708 -2.8898 -0.2610
  121OSM    C2S12758   5.785   4.782   6.349 -0.3339 -0.1358  0.5462
  121OSM    H2S12759   5.838   4.880   6.349 -0.5370 -0.0230  1.1317
  121OSM    C3S12760   5.633   4.828   6.337  0.0329 -0.1064  0.2464
  121OSM    H3S12761   5.574   4.734   6.333 -0.5814  0.2038  1.6279
  121OSM     O312762   5.612   4.912   6.220  0.5069 -0.5350  0.2489
  121OSM    HO312763   5.679   4.872   6.164 -0.0972 -1.6127  0.2508
  121OSM    C4S12764   5.599   4.918   6.447  0.2080 -0.4735 -0.4103
  121OSM    H4S12765   5.656   5.012   6.451 -1.4431  0.5989 -1.2349
  121OSM    C5S12766   5.509   4.887   6.545  0.7158 -1.0476 -0.3031
  121OSM    H5S12767   5.465   4.786   6.538  3.0176 -2.0765 -1.2106
  121OSM    C6S12768   5.459   4.977   6.655  0.4495  0.7459 -0.7042
  121OSM    H6S12769   5.349   4.969   6.671  0.2257  1.6248 -1.6493
  121OSM    H6T12770   5.489   5.082   6.634  2.2247  0.3257 -0.3640
  121OSM    C7S12771   5.533   4.925   6.785 -0.3334 -0.1613  0.0484
  121OSM    H7S12772   5.643   4.930   6.778 -0.0918 -1.3263  2.1511
  121OSM    H7T12773   5.516   4.816   6.800  0.6452 -0.3894 -0.4482
  121OSM    C8S12774   5.492   4.997   6.917 -0.7397  0.0107  0.2425
  121OSM    H8S12775   5.385   5.023   6.924 -1.2764 -1.6473 -1.0548
  121OSM    H8T12776   5.549   5.092   6.916  0.6191 -0.7623  1.2016
  121OSM    C9S12777   5.533   4.914   7.040 -0.3009 -0.1808  0.0482
  121OSM    H9S12778   5.637   4.875   7.033  1.1246  2.5538  3.1250
  121OSM    H9T12779   5.470   4.824   7.053  0.3138 -0.8233 -1.2121
  121OSM   C10S12780   5.532   4.996   7.168 -0.2911 -0.5042  0.4805
  121OSM   H10S12781   5.426   5.018   7.193 -1.3118 -1.0992 -2.8287
  121OSM   H10T12782   5.600   5.082   7.152  1.8526 -2.2127 -0.0565
  121OSM   C11S12783   5.605   4.919   7.276 -0.3096 -0.5989  0.1614
  121OSM   H11S12784   5.713   4.901   7.257  0.2814  0.6887  2.0298
  121OSM   H11T12785   5.552   4.823   7.293 -0.5510 -0.3994  0.5486
  121OSM   C12S12786   5.611   5.001   7.411  0.2247  0.1830  0.6631
  121OSM   H12S12787   5.617   5.110   7.389  1.5870 -0.3610 -2.0461
  121OSM   H12T12788   5.701   4.974   7.469  0.4544 -2.1006 -0.6548
  121OSM   C13S12789   5.496   4.964   7.498 -0.2367  0.3792  0.2665
  121OSM   H13S12790   5.485   4.854   7.488  1.9002  0.0484  1.0766
  121OSM   H13T12791   5.405   5.011   7.453 -0.5138 -0.4601 -0.0767
  121OSM   C14S12792   5.496   5.013   7.647  0.1677 -0.0752 -0.1274
  121OSM   H14S12793   5.390   5.028   7.677  0.3033 -1.5366  1.2210
  121OSM   H14T12794   5.537   5.115   7.637 -2.3059  0.9438 -0.7980
  121OSM   C15S12795   5.545   4.920   7.751  0.2478 -0.0811 -0.1841
  121OSM   H15S12796   5.649   4.903   7.714  0.3364 -2.7430  0.9651
  121OSM   H15T12797   5.489   4.829   7.721 -1.0202  0.4083  0.6269
  121OSM   C16S12798   5.540   4.963   7.894 -0.0015 -1.1634 -0.3089
  121OSM   H16S12799   5.545   4.868   7.952  0.6364 -2.4876 -2.4268
  121OSM   H16T12800   5.449   5.021   7.917 -0.1591 -1.8501  0.9210
  121OSM   C17S12801   5.659   5.056   7.942 -0.4287  0.5205 -0.2114
  121OSM   H17S12802   5.635   5.150   7.888 -0.3781  0.9052  0.4257
  121OSM   H17T12803   5.752   5.003   7.913  0.2149  0.1960  2.2467
  121OSM   C18S12804   5.672   5.076   8.093  0.5876  0.6584  0.9088
  121OSM   H18S12805   5.666   4.978   8.143 -0.4442  0.7581  1.0043
  121OSM   H18T12806   5.592   5.147   8.122  0.2035  1.1699 -1.1980
  121OSM   H18U12807   5.767   5.133   8.098  1.6314 -0.5273 -2.5297
  121OSM    C1F12808   5.939   4.671   6.505 -0.3818 -0.5808 -0.5078
  121OSM     OF12809   6.038   4.704   6.440  0.1294  0.4555 -0.4666
  121OSM    C2F12810   5.938   4.567   6.615 -0.2058 -0.1018  0.1116
  121OSM    H2F12811   5.946   4.470   6.562  2.0128  0.3089 -0.3767
  121OSM    H2G12812   5.839   4.575   6.665 -1.0998 -1.0161 -1.4218
  121OSM    C3F12813   6.062   4.555   6.702 -0.2352  0.2295 -0.2763
  121OSM    H3F12814   6.146   4.586   6.637 -0.0558  2.2304  0.8115
  121OSM    H3G12815   6.066   4.454   6.747  1.5785  0.9730  1.3726
  121OSM    C4F12816   6.056   4.646   6.832 -0.5386  0.8172 -0.2655
  121OSM    H4F12817   5.949   4.657   6.860 -0.0378  1.3266  1.5222
  121OSM    H4G12818   6.097   4.744   6.800  0.5075  0.6029  0.3665
  121OSM    C5F12819   6.141   4.585   6.942  0.2617  0.1221  0.1965
  121OSM    H5F12820   6.247   4.583   6.908  0.1056 -0.9559 -0.2576
  121OSM    H5G12821   6.121   4.480   6.973  1.3257 -0.1682 -0.0657
  121OSM    C6F12822   6.143   4.688   7.063 -0.0985 -0.4548  0.4173
  121OSM    H6F12823   6.038   4.725   7.065 -0.1315 -0.1333 -2.6363
  121OSM    H6G12824   6.209   4.774   7.040  0.6974 -1.0708  0.3474
  121OSM    C7F12825   6.189   4.624   7.198  0.2320 -0.0547  0.3062
  121OSM    H7F12826   6.289   4.580   7.182  0.9972  1.4266  0.8418
  121OSM    H7G12827   6.120   4.541   7.226 -0.0987 -0.5682 -1.8231
  121OSM    C8F12828   6.193   4.732   7.305  0.7013  0.0327 -0.0240
  121OSM    H8F12829   6.091   4.770   7.332  0.4006 -0.4712 -0.4340
  121OSM    H8G12830   6.249   4.815   7.259  0.0102 -1.1471 -3.2427
  121OSM    C9F12831   6.253   4.682   7.434  0.4050 -0.5337 -0.1473
  121OSM    H9F12832   6.352   4.638   7.417  0.8324  0.1955  0.3822
  121OSM   C10F12833   6.197   4.690   7.561  0.1853 -0.3950  0.0955
  121OSM   H10F12834   6.243   4.639   7.646 -0.9347  0.5969  1.3541
  121OSM   C11F12835   6.064   4.750   7.602  0.2279  0.7287 -0.2275
  121OSM   H11F12836   5.986   4.674   7.620  0.4122  0.6960  0.4612
  121OSM   H11G12837   6.019   4.804   7.516 -3.1689 -1.4026  0.0309
  121OSM   C12F12838   6.076   4.851   7.712 -0.1111  0.1060 -0.0104
  121OSM   H12F12839   5.977   4.888   7.745 -0.5501  1.4103 -2.5287
  121OSM   H12G12840   6.124   4.945   7.676 -0.3938  0.2546  0.0009
  121OSM   C13F12841   6.139   4.807   7.848 -0.0877  0.0577  0.0020
  121OSM   H13F12842   6.245   4.779   7.833 -0.4517 -0.7427 -1.2282
  121OSM   H13G12843   6.094   4.708   7.868  1.3784 -0.2471  1.9917
  121OSM   C14F12844   6.119   4.911   7.961  0.1644 -0.5452 -0.3196
  121OSM   H14F12845   6.009   4.908   7.978  0.1709  1.3416  0.3582
  121OSM   H14G12846   6.155   5.016   7.949 -1.9723  0.1184 -1.4936
  121OSM   C15F12847   6.182   4.866   8.092  0.1820  0.4878  0.9440
  121OSM   H15F12848   6.287   4.835   8.073 -0.0651  1.2544 -2.2280
  121OSM   H15G12849   6.136   4.767   8.116  1.0114 -0.0908  0.1793
  121OSM   C16F12850   6.173   4.954   8.211 -0.6262 -0.8253 -0.3268
  121OSM   H16F12851   6.245   5.038   8.202 -0.5620 -0.4824  2.4477
  121OSM   H16G12852   6.193   4.893   8.302 -2.2513 -0.4368  0.3250
  121OSM   C17F12853   6.036   5.025   8.223  0.1644 -0.3417 -0.3456
  121OSM   H17F12854   5.964   4.942   8.235 -0.0958 -0.1833 -0.7795
  121OSM   H17G12855   6.014   5.083   8.130 -0.7375  1.4053  0.8903
  121OSM   C18F12856   6.032   5.113   8.343  0.3708 -0.6772  0.0890
  121OSM   H18F12857   6.123   5.177   8.348 -0.5381  0.6990 -0.3182
  121OSM   H18G12858   6.035   5.050   8.434  0.8089 -0.7346  0.0407
  121OSM   H18H12859   5.940   5.175   8.341  0.4506 -0.5059 -2.3416
  122OSM      N12860   4.403   6.390   6.008 -0.1423  0.2413  0.1416
  122OSM    C1512861   4.382   6.347   5.871  0.0323 -0.6308 -0.1457
  122OSM   H15A12862   4.428   6.408   5.796  0.6513 -2.0851 -0.9851
  122OSM   H15B12863   4.276   6.344   5.848  0.4978  0.3794 -2.7011
  122OSM   H15C12864   4.439   6.258   5.849  1.6364  0.2518  0.3228
  122OSM    C1412865   4.335   6.522   6.028  0.1911 -0.5562  0.7970
  122OSM   H14A12866   4.320   6.546   6.133 -0.1469  1.3051  0.3564
  122OSM   H14B12867   4.239   6.530   5.980 -0.0361 -0.2718  1.2895
  122OSM   H14C12868   4.398   6.604   5.998 -2.3528  2.4086  2.8973
  122OSM    C1312869   4.334   6.291   6.098  0.2646  0.1784  0.7844
  122OSM   H13A12870   4.362   6.193   6.062 -0.1940  0.7547 -1.2762
  122OSM   H13B12871   4.226   6.301   6.090  0.4369  0.6659 -1.8294
  122OSM   H13C12872   4.370   6.295   6.200  2.9036 -0.7485 -0.0405
  122OSM    C1212873   4.546   6.401   6.050 -0.5875  0.1541 -0.2329
  122OSM   H12A12874   4.579   6.298   6.048 -0.9151  0.0564 -0.6764
  122OSM   H12B12875   4.555   6.438   6.151 -0.1509  2.1472 -0.9701
  122OSM    C1112876   4.641   6.481   5.955  0.7890 -0.6639  0.1480
  122OSM   H11A12877   4.642   6.426   5.859  1.8473  1.0722 -0.8888
  122OSM   H11B12878   4.745   6.469   5.995 -0.6966 -1.1019  4.4104
  122OSM      P12879   4.639   6.733   6.044  0.5953  0.0201  0.3643
  122OSM    O1312880   4.630   6.869   5.979  0.4649 -0.3465 -0.1257
  122OSM    O1412881   4.564   6.709   6.170 -0.2059  0.2037 -0.4459
  122OSM    O1112882   4.789   6.703   6.082  0.1048 -0.3888 -0.0919
  122OSM    O1212883   4.610   6.621   5.936  0.4746 -0.0036  0.5068
  122OSM    C1S12884   4.862   6.792   6.167 -0.5105  0.0045 -0.2109
  122OSM    H1S12885   4.829   6.897   6.156  1.2064  0.4306 -1.8035
  122OSM    H1T12886   4.966   6.787   6.128 -1.4963  0.5122 -3.1725
  122OSM     NF12887   4.942   6.837   6.405 -0.5156  0.0285 -0.3964
  122OSM    HNF12888   5.039   6.819   6.420 -0.8243 -1.2273  0.1941
  122OSM    C2S12889   4.873   6.738   6.320  0.0202  0.1138  0.0851
  122OSM    H2S12890   4.764   6.742   6.343 -0.1733  0.5873 -0.8872
  122OSM    C3S12891   4.931   6.596   6.336 -0.1161 -0.7355 -0.8781
  122OSM    H3S12892   5.039   6.608   6.311 -0.0829  1.5446  0.0797
  122OSM     O312893   4.861   6.505   6.247  0.2336  0.5072 -0.4305
  122OSM    HO312894   4.794   6.557   6.201  0.5349 -1.3630 -3.2095
  122OSM    C4S12895   4.920   6.543   6.482  0.2466 -0.1908 -0.4402
  122OSM    H4S12896   5.000   6.583   6.547 -0.0554  1.0018 -0.7681
  122OSM    C5S12897   4.828   6.466   6.539 -0.2429 -0.0564  0.2909
  122OSM    H5S12898   4.744   6.433   6.475 -0.6752  1.7749 -0.1512
  122OSM    C6S12899   4.833   6.425   6.683 -0.4235  0.6917  0.4348
  122OSM    H6S12900   4.850   6.316   6.670  1.1159  0.6799  2.1530
  122OSM    H6T12901   4.727   6.441   6.714 -0.1678  0.1264  1.6407
  122OSM    C7S12902   4.916   6.496   6.784 -0.7275  0.4065  0.7438
  122OSM    H7S12903   4.886   6.603   6.784 -0.6734  0.4225  0.9672
  122OSM    H7T12904   5.025   6.492   6.765 -0.9969 -1.0360 -0.6956
  122OSM    C8S12905   4.894   6.451   6.935 -0.1725 -0.6307 -0.2773
  122OSM    H8S12906   4.790   6.419   6.961  0.0149  0.2144  1.6875
  122OSM    H8T12907   4.922   6.532   7.005 -0.2201 -1.2678  0.4962
  122OSM    C9S12908   4.978   6.327   6.973 -0.1659  0.6400 -0.0533
  122OSM    H9S12909   5.083   6.346   6.942 -0.3380 -1.7631 -2.5112
  122OSM    H9T12910   4.923   6.237   6.937 -1.3816  0.7995  1.3075
  122OSM   C10S12911   4.991   6.322   7.132  0.4952 -0.5674  0.2031
  122OSM   H10S12912   4.893   6.341   7.180 -0.2392 -1.7549 -0.7669
  122OSM   H10T12913   5.054   6.405   7.170 -0.4264 -0.5082  1.6698
  122OSM   C11S12914   5.033   6.186   7.197 -1.0947  0.4418 -0.2600
  122OSM   H11S12915   5.144   6.182   7.198 -1.1012  0.1499  0.3661
  122OSM   H11T12916   4.991   6.110   7.128  0.0257  0.8519 -1.4249
  122OSM   C12S12917   4.976   6.178   7.344 -0.0279 -0.9583 -0.4580
  122OSM   H12S12918   5.011   6.079   7.383  1.0252  0.0327  1.2398
  122OSM   H12T12919   4.867   6.182   7.325  0.5189 -0.1870 -4.2909
  122OSM   C13S12920   5.024   6.296   7.435 -0.2103  0.8085 -0.0049
  122OSM   H13S12921   4.996   6.394   7.391  1.5485  0.8759 -1.0761
  122OSM   H13T12922   5.135   6.295   7.427 -0.0217 -0.4073  2.1448
  122OSM   C14S12923   4.971   6.290   7.573  0.3369  0.0880 -1.2375
  122OSM   H14S12924   4.860   6.290   7.577  0.3638 -0.5003 -0.3124
  122OSM   H14T12925   5.009   6.380   7.625  1.4069 -1.0374  0.0115
  122OSM   C15S12926   5.040   6.174   7.646  0.1579  0.2450  0.4984
  122OSM   H15S12927   5.150   6.172   7.629 -0.2304 -0.7846 -2.7105
  122OSM   H15T12928   4.997   6.080   7.605  1.5100 -0.4835  0.6995
  122OSM   C16S12929   5.009   6.177   7.799 -0.1376  0.7017 -0.1994
  122OSM   H16S12930   5.045   6.083   7.848  2.2876  0.6498 -1.8960
  122OSM   H16T12931   4.900   6.154   7.803  0.4001 -2.1140  0.3468
  122OSM   C17S12932   5.046   6.309   7.873  0.4346 -0.1664  0.1719
  122OSM   H17S12933   5.033   6.292   7.982  0.1540 -1.9468 -0.1134
  122OSM   H17T12934   4.976   6.391   7.846  0.3460 -0.0300  0.8013
  122OSM   C18S12935   5.191   6.356   7.838 -0.3775 -0.0011  0.1546
  122OSM   H18S12936   5.256   6.268   7.858 -1.6472 -1.0687 -0.2819
  122OSM   H18T12937   5.225   6.434   7.910  1.0380  0.2466 -0.7481
  122OSM   H18U12938   5.207   6.394   7.735 -0.9012  1.2335  0.5082
  122OSM    C1F12939   4.886   6.950   6.450 -0.7684  0.1770 -0.1158
  122OSM     OF12940   4.776   6.981   6.409  0.1438  0.3018 -0.2339
  122OSM    C2F12941   4.964   7.038   6.540  0.6834  0.6644  0.3288
  122OSM    H2F12942   4.965   7.143   6.503 -2.4013  1.0962  1.1641
  122OSM    H2G12943   5.072   7.016   6.546  1.2729  3.2808  0.4352
  122OSM    C3F12944   4.888   7.045   6.680  0.3665  0.2721 -0.4276
  122OSM    H3F12945   4.865   6.945   6.722 -1.7896  1.4871  1.5168
  122OSM    H3G12946   4.801   7.112   6.669  0.4313  0.5428  0.6180
  122OSM    C4F12947   4.971   7.115   6.795 -0.0156 -0.1825 -0.5297
  122OSM    H4F12948   5.022   7.205   6.756 -0.9335  0.3163 -0.6191
  122OSM    H4G12949   5.054   7.049   6.826  1.3702  1.2324 -1.1335
  122OSM    C5F12950   4.883   7.173   6.909 -0.0188 -0.1622 -0.0515
  122OSM    H5F12951   4.830   7.090   6.961 -0.1983 -0.3244 -0.4928
  122OSM    H5G12952   4.806   7.230   6.852  2.1676  2.3009 -0.7334
  122OSM    C6F12953   4.953   7.260   7.019  0.1080  0.6107  0.4165
  122OSM    H6F12954   4.877   7.317   7.075 -0.6203 -1.5033  1.6910
  122OSM    H6G12955   5.019   7.329   6.962 -0.5781 -1.0012 -2.5873
  122OSM    C7F12956   5.044   7.183   7.107  0.4448 -1.0423 -0.0166
  122OSM    H7F12957   5.093   7.257   7.173  0.5636  0.9585 -2.1948
  122OSM    H7G12958   5.122   7.140   7.041  0.6397 -0.7351  0.0143
  122OSM    C8F12959   4.974   7.086   7.193  0.0064 -0.4247 -0.5008
  122OSM    H8F12960   5.056   7.039   7.251 -0.7394 -1.4425 -0.2532
  122OSM    H8G12961   4.922   7.006   7.137 -1.2599 -1.0845  1.5420
  122OSM    C9F12962   4.874   7.147   7.288  0.2686 -0.2979  0.3737
  122OSM    H9F12963   4.791   7.206   7.247 -0.3060  0.4016  2.4562
  122OSM   C10F12964   4.885   7.143   7.425  0.0102  0.2257  0.1317
  122OSM   H10F12965   4.819   7.199   7.492  1.8615  1.7050  0.8150
  122OSM   C11F12966   4.995   7.081   7.504 -0.7530 -0.1756  0.0905
  122OSM   H11F12967   5.065   7.021   7.442 -0.1766 -1.5459  1.9835
  122OSM   H11G12968   4.945   7.011   7.575  0.2363 -0.0856  0.8993
  122OSM   C12F12969   5.067   7.180   7.596  0.7111  0.5123 -0.2329
  122OSM   H12F12970   5.092   7.274   7.542  3.9192  0.0080  0.2037
  122OSM   H12G12971   5.154   7.124   7.635  0.2813  0.0838  0.1222
  122OSM   C13F12972   5.000   7.237   7.719 -0.1496 -0.4465 -0.6584
  122OSM   H13F12973   4.912   7.304   7.706  0.2509  0.1114 -0.5083
  122OSM   H13G12974   5.071   7.304   7.771 -2.9917  1.5882  0.8708
  122OSM   C14F12975   4.967   7.115   7.821  0.2394 -0.2995  0.4069
  122OSM   H14F12976   5.032   7.029   7.796  0.0643 -1.3960  3.3159
  122OSM   H14G12977   4.861   7.084   7.808  0.3969 -1.9260  2.5217
  122OSM   C15F12978   4.989   7.173   7.962  0.1701  0.0891  0.2105
  122OSM   H15F12979   4.918   7.256   7.979 -0.1466 -0.3792  1.2422
  122OSM   H15G12980   5.092   7.212   7.974  0.3678 -0.9197  2.1851
  122OSM   C16F12981   4.943   7.087   8.069 -0.3740  0.1565 -0.2142
  122OSM   H16F12982   5.005   6.995   8.079  1.5160  1.4918  1.2050
  122OSM   H16G12983   4.840   7.052   8.046  0.3486 -1.3741 -1.4083
  122OSM   C17F12984   4.922   7.153   8.206  0.1104  0.1890  0.6418
  122OSM   H17F12985   4.876   7.254   8.193  2.8931  1.7391  2.0871
  122OSM   H17G12986   5.026   7.180   8.234 -0.4862  2.0169  1.2757
  122OSM   C18F12987   4.856   7.062   8.306  0.4597 -0.2612  0.6268
  122OSM   H18F12988   4.901   6.961   8.317  2.3845  0.6356  1.4313
  122OSM   H18G12989   4.755   7.047   8.264  1.5052  1.2127 -2.7356
  122OSM   H18H12990   4.856   7.102   8.410 -0.0872  0.1287  0.4806
  123OSM      N12991   4.313   1.128   6.386  0.1732  0.4894 -0.3021
  123OSM    C1512992   4.215   1.157   6.278 -0.0567  0.8449 -0.2330
  123OSM   H15A12993   4.271   1.204   6.198  1.4606 -0.4697 -0.0081
  123OSM   H15B12994   4.148   1.234   6.313  0.9031  1.5925  0.0005
  123OSM   H15C12995   4.161   1.074   6.236 -0.8974  1.9591 -1.4184
  123OSM    C1412996   4.388   1.011   6.337 -0.8136  0.4138 -0.1376
  123OSM   H14A12997   4.451   1.021   6.250 -1.1570 -0.0726 -0.4477
  123OSM   H14B12998   4.323   0.929   6.313 -0.6577  0.1022  0.4925
  123OSM   H14C12999   4.455   0.991   6.419 -1.7633  0.7095  0.7389
  123OSM    C1313000   4.399   1.241   6.415 -0.0460 -0.6795  0.3655
  123OSM   H13A13001   4.462   1.209   6.497  0.8660  0.9657  0.3362
  123OSM   H13B13002   4.347   1.331   6.443  1.4273  0.3260  0.0068
  123OSM   H13C13003   4.468   1.259   6.334  0.1999  0.8268  0.8779
  123OSM    C1213004   4.235   1.083   6.512  0.2341  0.2842 -0.8530
  123OSM   H12A13005   4.297   1.019   6.573  0.3647  2.6143  1.6544
  123OSM   H12B13006   4.152   1.025   6.473 -0.5186  1.1981 -0.6581
  123OSM    C1113007   4.188   1.201   6.606  0.6735 -0.6169  0.0891
  123OSM   H11A13008   4.273   1.256   6.651 -0.2484  0.9478 -0.0097
  123OSM   H11B13009   4.125   1.163   6.689 -1.0433  1.4704 -0.1628
  123OSM      P13010   4.037   1.415   6.587  0.1574  0.1767  0.0650
  123OSM    O1313011   4.104   1.531   6.518 -0.4360 -0.1452 -0.5622
  123OSM    O1413012   3.897   1.409   6.554 -0.3266 -0.8769 -0.3407
  123OSM    O1113013   4.046   1.418   6.745 -0.0101  0.3872  0.2281
  123OSM    O1213014   4.101   1.285   6.535 -0.0191 -0.2350 -0.2881
  123OSM    C1S13015   3.942   1.360   6.825 -0.4647 -0.6962  0.2975
  123OSM    H1S13016   3.937   1.249   6.821 -2.1881 -0.6377 -2.1774
  123OSM    H1T13017   3.841   1.395   6.794  0.5200  1.9032 -0.2502
  123OSM     NF13018   3.849   1.346   7.047 -0.2460  0.9668  0.0446
  123OSM    HNF13019   3.765   1.397   7.066 -1.8813 -1.6995  0.4339
  123OSM    C2S13020   3.956   1.404   6.966 -0.4511  0.1625 -0.7339
  123OSM    H2S13021   4.051   1.368   7.011 -0.6885  1.2394  0.6957
  123OSM    C3S13022   3.950   1.555   6.985 -0.4875 -0.3236 -0.2789
  123OSM    H3S13023   3.859   1.610   6.954 -1.6252  0.2537  3.5214
  123OSM     O313024   4.044   1.624   6.913 -0.2084  0.2096  0.2146
  123OSM    HO313025   4.059   1.578   6.829 -0.5665  3.0675 -1.5367
  123OSM    C4S13026   3.973   1.585   7.130  0.5619 -0.4291  0.2216
  123OSM    H4S13027   3.880   1.581   7.187  0.5073 -3.0974  0.0626
  123OSM    C5S13028   4.089   1.621   7.197  0.9605  0.4015 -0.1015
  123OSM    H5S13029   4.183   1.618   7.141  1.8127 -1.3796  1.3224
  123OSM    C6S13030   4.111   1.652   7.345 -0.7776 -0.2821  0.1893
  123OSM    H6S13031   4.170   1.743   7.372 -1.1430  0.0394 -0.0937
  123OSM    H6T13032   4.180   1.576   7.388  1.5081  0.2819 -2.2083
  123OSM    C7S13033   3.984   1.640   7.420  0.1798  0.8915 -0.5488
  123OSM    H7S13034   3.925   1.547   7.403  2.0871 -0.5468  0.1987
  123OSM    H7T13035   3.928   1.734   7.400  0.2551  1.2812  0.9630
  123OSM    C8S13036   3.998   1.646   7.572 -0.3399  0.7708  0.6806
  123OSM    H8S13037   4.070   1.725   7.599  2.6136 -1.1563 -1.0325
  123OSM    H8T13038   4.049   1.551   7.600 -2.4667 -0.5953  0.2401
  123OSM    C9S13039   3.863   1.658   7.655 -0.6758  0.2417  0.3274
  123OSM    H9S13040   3.806   1.563   7.645 -1.0449  0.4069  0.8012
  123OSM    H9T13041   3.792   1.735   7.618 -1.0205  1.0166  2.4375
  123OSM   C10S13042   3.902   1.683   7.806 -0.1564 -1.2016  0.1127
  123OSM   H10S13043   3.814   1.717   7.865 -1.0419 -1.9125 -0.7624
  123OSM   H10T13044   3.981   1.761   7.810 -0.8323 -0.5183  0.6622
  123OSM   C11S13045   3.960   1.556   7.866 -0.5737  1.0113  0.2899
  123OSM   H11S13046   4.064   1.542   7.829 -0.6596  1.1885 -0.0246
  123OSM   H11T13047   3.903   1.467   7.833  2.6084 -0.1214 -2.7732
  123OSM   C12S13048   3.970   1.568   8.024 -0.0912 -0.1537 -0.6799
  123OSM   H12S13049   3.972   1.464   8.063 -0.8600  0.5403  1.3595
  123OSM   H12T13050   3.877   1.621   8.054  0.5280  1.0714 -0.8492
  123OSM   C13S13051   4.095   1.642   8.065  0.4741 -0.4659 -0.1789
  123OSM   H13S13052   4.110   1.733   8.003 -0.1777 -0.4462 -0.3153
  123OSM   H13T13053   4.187   1.582   8.050  0.3774 -0.6494 -0.0362
  123OSM   C14S13054   4.101   1.679   8.217 -0.1800 -1.0819 -0.0277
  123OSM   H14S13055   4.039   1.770   8.233  0.8397 -0.6224  1.5668
  123OSM   H14T13056   4.203   1.712   8.248 -0.5608 -1.8815  2.3086
  123OSM   C15S13057   4.065   1.564   8.314  0.6133 -0.7497  0.3010
  123OSM   H15S13058   4.115   1.466   8.302  0.1329 -1.1307  1.3227
  123OSM   H15T13059   3.960   1.527   8.310  0.2476  0.1096  1.3596
  123OSM   C16S13060   4.094   1.603   8.454  0.2637 -0.1863 -0.5060
  123OSM   H16S13061   4.026   1.688   8.476 -0.1939  0.1633 -2.9094
  123OSM   H16T13062   4.200   1.634   8.459  0.4916 -0.4879 -2.4541
  123OSM   C17S13063   4.072   1.493   8.553  0.4875 -0.0016  0.4771
  123OSM   H17S13064   4.098   1.533   8.653  2.6460 -0.6554  0.2368
  123OSM   H17T13065   4.145   1.410   8.541  0.3732 -0.0648  0.2054
  123OSM   C18S13066   3.927   1.438   8.565  0.5120 -0.0521  0.2298
  123OSM   H18S13067   3.858   1.519   8.595  0.6783 -0.0586  0.6257
  123OSM   H18T13068   3.924   1.351   8.634  1.5994  0.4055  0.8761
  123OSM   H18U13069   3.882   1.413   8.466 -0.2476  1.0390  0.2866
  123OSM    C1F13070   3.829   1.215   7.066 -0.2731 -0.2359  0.1664
  123OSM     OF13071   3.915   1.127   7.045  0.4581  0.2556  0.2425
  123OSM    C2F13072   3.694   1.188   7.122  0.3312 -0.1466 -0.3742
  123OSM    H2F13073   3.608   1.209   7.054  0.3853  0.8396 -0.1517
  123OSM    H2G13074   3.687   1.253   7.211  2.0100 -0.5182  0.0513
  123OSM    C3F13075   3.684   1.039   7.173 -0.6315 -0.4920  0.3795
  123OSM    H3F13076   3.745   1.017   7.263  0.2908 -2.6940 -0.7137
  123OSM    H3G13077   3.730   0.967   7.103  0.2131 -0.9057  1.3373
  123OSM    C4F13078   3.550   0.996   7.208  0.5227 -0.2367  0.4816
  123OSM    H4F13079   3.541   0.885   7.211  0.9236 -0.3745 -1.4952
  123OSM    H4G13080   3.471   1.026   7.136  0.2653 -0.4603  0.6679
  123OSM    C5F13081   3.502   1.056   7.340  0.4153 -0.0096  0.1710
  123OSM    H5F13082   3.495   1.165   7.323  0.9006 -0.1867 -1.3219
  123OSM    H5G13083   3.584   1.040   7.414 -0.1839  1.6048  1.2405
  123OSM    C6F13084   3.372   0.995   7.392 -0.1007  0.9977 -0.1668
  123OSM    H6F13085   3.295   1.026   7.318 -0.4470  1.2399  0.2896
  123OSM    H6G13086   3.357   1.031   7.496 -1.7562 -0.6594  0.2152
  123OSM    C7F13087   3.381   0.839   7.415 -0.2903 -0.5375  0.7120
  123OSM    H7F13088   3.401   0.799   7.313  0.0513  4.0498 -1.3075
  123OSM    H7G13089   3.277   0.814   7.444  0.1817 -1.9782  1.2138
  123OSM    C8F13090   3.490   0.796   7.512 -0.4360 -0.2889  0.2809
  123OSM    H8F13091   3.494   0.873   7.593 -1.9504  1.4555 -1.2091
  123OSM    H8G13092   3.575   0.821   7.445 -0.1884  0.7369  0.9347
  123OSM    C9F13093   3.486   0.653   7.575 -0.1345 -1.1371  0.1654
  123OSM    H9F13094   3.519   0.573   7.506  1.0779 -0.3606 -0.1765
  123OSM   C10F13095   3.453   0.623   7.701 -0.0213  0.5135  0.5127
  123OSM   H10F13096   3.449   0.516   7.727  0.9352  0.4253  0.3195
  123OSM   C11F13097   3.429   0.724   7.808 -0.1914  0.4561  0.4175
  123OSM   H11F13098   3.402   0.821   7.763  0.3806  1.0227  1.2626
  123OSM   H11G13099   3.530   0.734   7.854 -0.5395 -0.8588  1.5485
  123OSM   C12F13100   3.323   0.686   7.920  0.5378 -0.4508  0.8291
  123OSM   H12F13101   3.344   0.586   7.963 -1.4803 -1.1403  0.3253
  123OSM   H12G13102   3.223   0.675   7.873  0.1015 -2.1580  2.0367
  123OSM   C13F13103   3.310   0.797   8.025 -0.2636 -0.6348  0.1163
  123OSM   H13F13104   3.206   0.802   8.065  0.2794 -1.2024  1.6984
  123OSM   H13G13105   3.338   0.893   7.976 -2.4372 -0.0605 -0.1046
  123OSM   C14F13106   3.406   0.772   8.145  0.4817  0.4981  0.0550
  123OSM   H14F13107   3.451   0.866   8.182 -2.7243  2.1903  0.0497
  123OSM   H14G13108   3.478   0.701   8.100 -0.1816  2.1246 -4.0248
  123OSM   C15F13109   3.330   0.707   8.270  0.2527 -0.1951 -0.0872
  123OSM   H15F13110   3.267   0.622   8.235 -0.9236  0.8133 -0.5142
  123OSM   H15G13111   3.254   0.776   8.312  0.5070  1.5861 -2.3226
  123OSM   C16F13112   3.419   0.670   8.389  0.7222  0.0446 -0.4269
  123OSM   H16F13113   3.481   0.761   8.405  1.9126 -0.8069 -0.0732
  123OSM   H16G13114   3.479   0.584   8.353  1.2796  0.6825 -1.0484
  123OSM   C17F13115   3.344   0.646   8.524 -0.0645  0.2222  0.2366
  123OSM   H17F13116   3.254   0.588   8.496 -0.1339 -0.5129  1.8801
  123OSM   H17G13117   3.304   0.739   8.571 -0.7474 -0.1576  0.4133
  123OSM   C18F13118   3.422   0.571   8.629  0.4188  0.5491 -0.4067
  123OSM   H18F13119   3.380   0.586   8.731 -2.2354  1.4813 -1.5496
  123OSM   H18G13120   3.522   0.619   8.635  1.1454 -0.9855  0.4724
  123OSM   H18H13121   3.436   0.464   8.602 -0.7537  0.0054  0.9837
  124OSM      N13122   3.098   2.719   5.980 -0.2998 -0.1602 -0.2259
  124OSM    C1513123   3.225   2.797   5.984 -0.1100 -0.6272 -0.5418
  124OSM   H15A13124   3.309   2.738   6.017  0.9323 -0.2046 -2.2857
  124OSM   H15B13125   3.217   2.871   6.063  1.1504 -1.7415  0.6955
  124OSM   H15C13126   3.246   2.847   5.891 -1.5089 -1.3663 -1.2823
  124OSM    C1413127   2.982   2.806   5.942 -0.0168  0.1950 -0.3248
  124OSM   H14A13128   2.961   2.886   6.011  0.2466 -0.8580  1.0149
  124OSM   H14B13129   2.895   2.744   5.927 -0.1990  0.1862  0.7180
  124OSM   H14C13130   3.013   2.854   5.850 -1.0837  0.6432 -0.4612
  124OSM    C1313131   3.109   2.605   5.879  0.6619 -0.8698 -0.1650
  124OSM   H13A13132   3.146   2.637   5.782  2.2107  0.1910  0.7269
  124OSM   H13B13133   3.014   2.557   5.862 -0.7439  2.0029 -1.0314
  124OSM   H13C13134   3.178   2.532   5.918  0.5687 -0.6929  0.3391
  124OSM    C1213135   3.075   2.656   6.119  1.0655  0.3863 -0.3320
  124OSM   H12A13136   2.976   2.612   6.122  1.8984 -1.5346  0.3573
  124OSM   H12B13137   3.066   2.733   6.194  1.2875 -0.5355  0.6736
  124OSM    C1113138   3.171   2.543   6.170 -0.0406  0.5559  0.1699
  124OSM   H11A13139   3.184   2.454   6.105  2.6429  0.4588  0.7501
  124OSM   H11B13140   3.121   2.512   6.265  0.3921  0.7335  0.4603
  124OSM      P13141   3.424   2.536   6.187 -0.4974  0.1861 -0.2273
  124OSM    O1313142   3.418   2.425   6.093 -0.2309 -0.5254 -0.1776
  124OSM    O1413143   3.536   2.643   6.169 -0.4321  0.2779 -0.0540
  124OSM    O1113144   3.434   2.480   6.337 -0.6513 -0.4337  0.0423
  124OSM    O1213145   3.288   2.618   6.195  0.0098  0.0920  0.1537
  124OSM    C1S13146   3.404   2.574   6.443 -0.0486 -0.1459 -0.0762
  124OSM    H1S13147   3.294   2.595   6.445 -0.2029 -0.9394  0.2957
  124OSM    H1T13148   3.472   2.662   6.443 -0.8392  0.5045  1.2367
  124OSM     NF13149   3.433   2.619   6.678  0.2710  0.0328  0.2302
  124OSM    HNF13150   3.519   2.632   6.726  0.0643  0.1399  0.5740
  124OSM    C2S13151   3.425   2.510   6.587 -0.8747 -0.1951  0.4194
  124OSM    H2S13152   3.335   2.446   6.604 -2.4381  1.4136 -1.3603
  124OSM    C3S13153   3.548   2.416   6.588 -0.4322 -0.4880 -0.7674
  124OSM    H3S13154   3.631   2.476   6.546  0.8126  0.0637  2.2656
  124OSM     O313155   3.540   2.306   6.497  0.5850  0.0972  0.7279
  124OSM    HO313156   3.489   2.350   6.429 -0.1762 -0.3179  1.0179
  124OSM    C4S13157   3.581   2.373   6.728 -0.6528  0.4576  0.3116
  124OSM    H4S13158   3.660   2.438   6.768  0.6919 -0.1407 -1.2634
  124OSM    C5S13159   3.522   2.269   6.795  0.1899  0.5148  0.5631
  124OSM    H5S13160   3.437   2.216   6.750  2.3079 -0.2090 -2.9846
  124OSM    C6S13161   3.545   2.226   6.938  0.3507 -0.4143  0.7630
  124OSM    H6S13162   3.631   2.275   6.988 -0.2888  1.1029  0.4410
  124OSM    H6T13163   3.557   2.116   6.945 -2.0036 -0.9740 -2.0762
  124OSM    C7S13164   3.414   2.248   7.016  0.6842 -0.8026 -0.0364
  124OSM    H7S13165   3.328   2.194   6.970  0.9673  0.5369 -2.2595
  124OSM    H7T13166   3.398   2.357   7.012  1.0851 -0.7710 -1.3091
  124OSM    C8S13167   3.432   2.206   7.165 -0.2148  0.6624 -1.3841
  124OSM    H8S13168   3.518   2.264   7.206  0.5082 -1.6876  0.6240
  124OSM    H8T13169   3.462   2.100   7.157 -0.4211  0.5964 -1.2850
  124OSM    C9S13170   3.311   2.229   7.256 -0.3721  0.0707 -0.1470
  124OSM    H9S13171   3.230   2.176   7.200 -1.8380  1.4238  0.6116
  124OSM    H9T13172   3.290   2.338   7.259  0.0713  0.1288  1.8115
  124OSM   C10S13173   3.317   2.170   7.395  0.1195 -0.5191  0.2625
  124OSM   H10S13174   3.225   2.201   7.449 -0.8661  1.3648 -2.2761
  124OSM   H10T13175   3.394   2.228   7.449 -0.4977  1.4227 -0.8399
  124OSM   C11S13176   3.336   2.016   7.415  0.9944 -0.0087  0.6889
  124OSM   H11S13177   3.443   1.996   7.393  1.0067  1.3804 -0.6773
  124OSM   H11T13178   3.271   1.965   7.340 -0.1207  2.5457 -0.2007
  124OSM   C12S13179   3.308   1.977   7.551 -0.0097  0.0218  0.1311
  124OSM   H12S13180   3.206   2.006   7.586  0.1970  0.0379  0.7285
  124OSM   H12T13181   3.380   2.032   7.614 -0.4326  0.6927  0.0405
  124OSM   C13S13182   3.347   1.832   7.586 -0.2458 -0.1950  0.5470
  124OSM   H13S13183   3.456   1.819   7.567  0.0675  3.8235 -1.6638
  124OSM   H13T13184   3.291   1.765   7.518 -0.0469  0.7576 -0.5984
  124OSM   C14S13185   3.318   1.805   7.742  0.0090 -0.3021 -0.5204
  124OSM   H14S13186   3.213   1.840   7.746  0.3679  0.6800  0.7460
  124OSM   H14T13187   3.380   1.867   7.810  1.1308 -1.3576 -0.5394
  124OSM   C15S13188   3.321   1.659   7.779 -0.5118  0.3044 -0.0933
  124OSM   H15S13189   3.421   1.614   7.759 -0.7633  0.1138 -0.9596
  124OSM   H15T13190   3.245   1.611   7.715 -1.0558  2.3463 -1.0723
  124OSM   C16S13191   3.298   1.625   7.927  0.3398  0.3666  0.1754
  124OSM   H16S13192   3.375   1.677   7.988 -2.5475  3.7538  1.2804
  124OSM   H16T13193   3.297   1.514   7.934  0.5899  0.1885 -1.9139
  124OSM   C17S13194   3.158   1.676   7.966  0.2198 -0.3400 -0.8472
  124OSM   H17S13195   3.079   1.622   7.910  1.2777 -2.7897 -0.1350
  124OSM   H17T13196   3.160   1.784   7.942 -0.1287 -0.4546 -1.4033
  124OSM   C18S13197   3.130   1.657   8.116  0.1621 -0.0200 -0.8072
  124OSM   H18S13198   3.023   1.675   8.143  0.8158  0.1990  2.0369
  124OSM   H18T13199   3.184   1.716   8.193 -1.4531  0.6232 -0.1052
  124OSM   H18U13200   3.142   1.550   8.146  1.8763  0.9990  2.7293
  124OSM    C1F13201   3.331   2.701   6.704  0.3132  0.7223  0.0682
  124OSM     OF13202   3.219   2.678   6.660 -0.2139 -0.1257 -0.6503
  124OSM    C2F13203   3.355   2.810   6.800  0.8389 -0.2723 -0.1806
  124OSM    H2F13204   3.332   2.906   6.749 -0.6447 -0.1771  0.6055
  124OSM    H2G13205   3.463   2.826   6.819  0.7379 -1.2666  1.3903
  124OSM    C3F13206   3.266   2.811   6.922  0.1711 -0.2421 -0.6151
  124OSM    H3F13207   3.160   2.810   6.889 -0.0878 -0.3548  0.1969
  124OSM    H3G13208   3.277   2.913   6.965 -0.0744 -0.8070  0.8240
  124OSM    C4F13209   3.306   2.703   7.031 -0.1621 -0.4598  0.3475
  124OSM    H4F13210   3.411   2.730   7.058  0.7731 -0.7251 -2.6188
  124OSM    H4G13211   3.321   2.602   6.986  2.9399 -0.0852  0.2889
  124OSM    C5F13212   3.203   2.708   7.148 -0.4677 -0.3759  0.6595
  124OSM    H5F13213   3.115   2.647   7.119 -0.8452  0.9883 -1.2507
  124OSM    H5G13214   3.163   2.809   7.169 -1.8991 -0.3788 -1.7127
  124OSM    C6F13215   3.265   2.650   7.267  0.1459  0.5868  0.0636
  124OSM    H6F13216   3.356   2.707   7.294 -1.2079  2.8238  0.1103
  124OSM    H6G13217   3.289   2.542   7.253  1.2453  1.0904 -2.4609
  124OSM    C7F13218   3.169   2.652   7.391 -0.6595  0.0936  0.3805
  124OSM    H7F13219   3.105   2.563   7.369 -2.4404  1.7396 -1.5179
  124OSM    H7G13220   3.100   2.739   7.381  1.2359  1.7810  1.3383
  124OSM    C8F13221   3.242   2.649   7.523  1.0230 -0.1821  0.1437
  124OSM    H8F13222   3.155   2.642   7.592  0.2323 -0.5252 -0.8663
  124OSM    H8G13223   3.308   2.737   7.541  0.9756 -0.0024 -0.5127
  124OSM    C9F13224   3.340   2.530   7.534  0.0624  0.0180 -0.1865
  124OSM    H9F13225   3.386   2.500   7.439  1.5003 -2.1993  1.1172
  124OSM   C10F13226   3.372   2.458   7.641 -0.2856  0.1040 -0.1750
  124OSM   H10F13227   3.442   2.375   7.625 -0.5842  0.3530 -3.5644
  124OSM   C11F13228   3.326   2.472   7.788  0.1321  0.7648  0.1016
  124OSM   H11F13229   3.242   2.401   7.800  0.2235 -0.4731 -4.5417
  124OSM   H11G13230   3.289   2.573   7.815  3.5086  2.4174 -0.8401
  124OSM   C12F13231   3.424   2.456   7.906 -0.5578  0.1673  0.1507
  124OSM   H12F13232   3.447   2.348   7.912 -2.3619 -0.4867 -2.6706
  124OSM   H12G13233   3.361   2.489   7.991 -2.5201 -0.9483 -0.7964
  124OSM   C13F13234   3.551   2.536   7.890  0.2447  0.1701 -0.0366
  124OSM   H13F13235   3.513   2.639   7.873 -2.0660 -0.9727 -2.5997
  124OSM   H13G13236   3.609   2.506   7.800  0.6706 -0.4345  0.4332
  124OSM   C14F13237   3.638   2.541   8.012 -0.0668  0.2336 -0.5520
  124OSM   H14F13238   3.737   2.574   7.973  0.5899  0.5379  1.2513
  124OSM   H14G13239   3.648   2.435   8.046 -1.4631  0.1206 -0.4371
  124OSM   C15F13240   3.587   2.621   8.136  0.6177  0.1716  0.3677
  124OSM   H15F13241   3.485   2.580   8.153 -0.0413  1.2184 -0.9583
  124OSM   H15G13242   3.574   2.729   8.113 -0.2106 -0.7448 -4.3770
  124OSM   C16F13243   3.674   2.605   8.265  0.1223 -0.1140 -0.7804
  124OSM   H16F13244   3.780   2.634   8.251  0.5328 -1.0150  0.3156
  124OSM   H16G13245   3.681   2.495   8.276 -1.8211 -0.1957  0.0032
  124OSM   C17F13246   3.616   2.671   8.388 -0.3723  0.1620 -0.3180
  124OSM   H17F13247   3.507   2.651   8.384 -0.2697 -0.1657 -2.0695
  124OSM   H17G13248   3.639   2.779   8.387 -1.5979  0.4227 -0.9476
  124OSM   C18F13249   3.667   2.608   8.517  0.1176 -0.4898 -0.2178
  124OSM   H18F13250   3.618   2.509   8.534  1.8824 -1.1088  1.8437
  124OSM   H18G13251   3.644   2.674   8.604  0.7328 -3.1350  2.1366
  124OSM   H18H13252   3.775   2.587   8.500  0.2243 -0.0151 -0.1293
  125OSM      N13253   6.318   3.859   6.139 -0.2247  0.0715  0.5722
  125OSM    C1513254   6.424   3.759   6.193  0.4039  0.4520 -0.0933
  125OSM   H15A13255   6.483   3.813   6.266  0.1928  0.1170  0.3332
  125OSM   H15B13256   6.482   3.716   6.113  0.4804  0.9275 -0.3008
  125OSM   H15C13257   6.367   3.687   6.249 -3.5712  3.0592 -0.3524
  125OSM    C1413258   6.400   3.968   6.072  0.2238  0.5055  0.3600
  125OSM   H14A13259   6.331   4.044   6.039  0.8335  0.3722 -1.3222
  125OSM   H14B13260   6.453   3.927   5.987 -0.6228 -1.3258  0.6556
  125OSM   H14C13261   6.484   4.001   6.130  1.3121  1.3097 -1.5899
  125OSM    C1313262   6.234   3.795   6.038  0.0569  0.7367  0.1431
  125OSM   H13A13263   6.297   3.715   5.999 -0.9066 -0.2315  0.5338
  125OSM   H13B13264   6.214   3.851   5.948  3.1544  0.3935 -0.9083
  125OSM   H13C13265   6.153   3.742   6.085 -1.3485  2.3895 -0.3264
  125OSM    C1213266   6.241   3.918   6.253 -0.1295 -0.3417  0.0244
  125OSM   H12A13267   6.202   4.009   6.210  1.0708 -0.2044 -0.8145
  125OSM   H12B13268   6.311   3.941   6.332  0.2275  0.4048 -0.4973
  125OSM    C1113269   6.125   3.827   6.304  0.3169 -0.2219  0.5197
  125OSM   H11A13270   6.051   3.813   6.222  2.0089 -1.5608 -0.8541
  125OSM   H11B13271   6.075   3.879   6.388  1.0141  0.1718  0.7027
  125OSM      P13272   6.126   3.563   6.322 -0.1294  0.1748 -0.0699
  125OSM    O1313273   6.077   3.558   6.183  0.8573  0.0736 -0.2994
  125OSM    O1413274   6.232   3.460   6.352  0.0962 -0.4270  1.1902
  125OSM    O1113275   6.004   3.558   6.424  0.2365  0.1441 -0.0553
  125OSM    O1213276   6.179   3.713   6.356 -0.5760 -0.2136 -0.4278
  125OSM    C1S13277   6.016   3.511   6.561  0.5670 -0.3616  0.1511
  125OSM    H1S13278   6.095   3.434   6.574  3.3015  2.1999 -0.1062
  125OSM    H1T13279   5.916   3.468   6.585  0.2777 -0.4950 -1.2027
  125OSM     NF13280   6.056   3.584   6.796 -0.3363 -0.5148 -0.3430
  125OSM    HNF13281   5.982   3.611   6.858 -1.2453 -2.6210 -0.4401
  125OSM    C2S13282   6.039   3.633   6.661 -0.4375 -0.2593  0.8301
  125OSM    H2S13283   6.131   3.688   6.630 -1.5790  1.8605  1.0197
  125OSM    C3S13284   5.914   3.720   6.653  0.2967 -0.1327  0.0062
  125OSM    H3S13285   5.843   3.648   6.698  1.4375 -1.8777 -0.8434
  125OSM     O313286   5.875   3.765   6.520 -0.2483 -0.4405 -0.4293
  125OSM    HO313287   5.927   3.709   6.462  1.8007 -1.0834  1.8842
  125OSM    C4S13288   5.927   3.852   6.739  0.1900 -0.0109 -0.2366
  125OSM    H4S13289   5.897   3.841   6.844  0.4470  1.0686 -0.0389
  125OSM    C5S13290   5.977   3.970   6.695  0.4539 -0.4537 -0.1668
  125OSM    H5S13291   6.027   3.975   6.597 -0.4076  1.5211 -0.5693
  125OSM    C6S13292   5.986   4.092   6.785  0.0274 -0.4472 -0.5331
  125OSM    H6S13293   5.896   4.154   6.764 -1.0284 -1.7375  0.0446
  125OSM    H6T13294   6.073   4.154   6.756  0.7645 -2.2336 -2.3500
  125OSM    C7S13295   5.991   4.078   6.940  0.1145 -0.5256 -0.1396
  125OSM    H7S13296   6.086   4.029   6.971  0.3546  0.6097  1.0314
  125OSM    H7T13297   5.908   4.014   6.978 -1.8047  1.1955 -1.2407
  125OSM    C8S13298   5.981   4.218   7.004 -0.2822 -0.4717  0.2601
  125OSM    H8S13299   5.884   4.272   6.998  1.1968  2.6933  1.9454
  125OSM    H8T13300   6.046   4.278   6.937 -1.5937 -1.2404 -1.7775
  125OSM    C9S13301   6.029   4.235   7.151  0.4318  0.3642 -0.2248
  125OSM    H9S13302   5.973   4.173   7.224  1.6642  0.1367  0.5568
  125OSM    H9T13303   6.025   4.342   7.182  2.3147  0.4033 -0.0080
  125OSM   C10S13304   6.176   4.181   7.170 -0.7413 -0.5075 -0.6537
  125OSM   H10S13305   6.232   4.225   7.084  1.4084 -0.9781  0.4428
  125OSM   H10T13306   6.166   4.071   7.166  0.7244 -0.7188  0.4713
  125OSM   C11S13307   6.239   4.220   7.308  0.1374 -0.1791  0.3137
  125OSM   H11S13308   6.249   4.330   7.298  0.6097  0.0089  2.3829
  125OSM   H11T13309   6.340   4.176   7.318  0.5689  0.4741 -0.9410
  125OSM   C12S13310   6.155   4.176   7.428 -0.2093 -0.0476  0.5723
  125OSM   H12S13311   6.133   4.068   7.414  2.0820 -0.2339 -3.0488
  125OSM   H12T13312   6.063   4.236   7.444 -0.4207  0.0844 -0.9475
  125OSM   C13S13313   6.246   4.192   7.550 -0.2038 -0.5056  0.4168
  125OSM   H13S13314   6.331   4.123   7.530 -1.6218 -1.5138 -2.7862
  125OSM   H13T13315   6.183   4.142   7.627  0.0617 -0.1811  0.8520
  125OSM   C14S13316   6.265   4.344   7.588  0.0549 -0.3832 -0.2454
  125OSM   H14S13317   6.170   4.400   7.601  1.0606  0.9818  2.0123
  125OSM   H14T13318   6.306   4.404   7.504  1.0361  0.5531  0.8598
  125OSM   C15S13319   6.359   4.366   7.704 -0.5703  0.1534  0.3228
  125OSM   H15S13320   6.374   4.475   7.720 -0.7015  0.2910 -0.4438
  125OSM   H15T13321   6.453   4.313   7.679 -0.6906  0.8009 -1.6795
  125OSM   C16S13322   6.308   4.309   7.841 -0.8177 -0.3641  0.1621
  125OSM   H16S13323   6.393   4.330   7.910  0.2304 -0.0800 -1.1647
  125OSM   H16T13324   6.303   4.199   7.833  0.5416 -0.3804 -0.8200
  125OSM   C17S13325   6.178   4.374   7.899 -0.1100  0.5497 -0.3898
  125OSM   H17S13326   6.087   4.355   7.839  0.4511  1.9689 -1.7330
  125OSM   H17T13327   6.179   4.485   7.887 -1.6480  0.3544 -2.9032
  125OSM   C18S13328   6.147   4.330   8.044 -0.0354 -0.5360  0.1519
  125OSM   H18S13329   6.225   4.365   8.115  0.1790 -2.8814  1.1610
  125OSM   H18T13330   6.139   4.220   8.052 -1.0461 -0.3798  1.8523
  125OSM   H18U13331   6.053   4.385   8.067 -0.8154 -1.2958 -1.0996
  125OSM    C1F13332   6.160   3.510   6.838 -0.3791 -0.5695  0.6594
  125OSM     OF13333   6.244   3.481   6.757  0.5400 -0.0227  0.1663
  125OSM    C2F13334   6.169   3.477   6.983 -0.5671  0.3477  0.2886
  125OSM    H2F13335   6.077   3.425   7.019 -0.1524  0.4645  1.5600
  125OSM    H2G13336   6.168   3.572   7.040 -0.3542  2.0766 -2.4508
  125OSM    C3F13337   6.293   3.394   7.023 -0.6545  0.9310 -0.2033
  125OSM    H3F13338   6.387   3.414   6.968 -0.8345  1.3985 -0.3495
  125OSM    H3G13339   6.275   3.287   6.999 -0.6566  0.9269 -0.1827
  125OSM    C4F13340   6.326   3.422   7.169 -0.7849  0.6977 -0.2414
  125OSM    H4F13341   6.313   3.530   7.188  1.2007  1.1929 -1.4134
  125OSM    H4G13342   6.435   3.400   7.177 -0.5063  1.7743 -0.9348
  125OSM    C5F13343   6.256   3.333   7.272 -0.1939 -0.2806 -0.1217
  125OSM    H5F13344   6.282   3.228   7.250 -0.8649 -0.2564 -1.1159
  125OSM    H5G13345   6.147   3.355   7.259 -0.1561 -0.0093 -0.0019
  125OSM    C6F13346   6.308   3.376   7.412  0.3411  0.3620  0.3591
  125OSM    H6F13347   6.262   3.474   7.437  0.1687  0.1027  1.1074
  125OSM    H6G13348   6.418   3.386   7.416  0.3061  0.8121  0.3015
  125OSM    C7F13349   6.242   3.285   7.516 -0.2616  0.1616 -0.7740
  125OSM    H7F13350   6.274   3.181   7.492  1.2139  0.5314 -0.5005
  125OSM    H7G13351   6.130   3.286   7.515 -0.2778  0.3895  0.0519
  125OSM    C8F13352   6.281   3.320   7.663 -0.4959 -0.5323  0.1782
  125OSM    H8F13353   6.255   3.427   7.675  1.2690  0.2881 -2.4111
  125OSM    H8G13354   6.392   3.310   7.667 -0.5128 -0.8642 -0.1412
  125OSM    C9F13355   6.215   3.233   7.768 -0.9692 -0.3266 -0.2902
  125OSM    H9F13356   6.245   3.128   7.779 -0.8122 -0.0993  1.9793
  125OSM   C10F13357   6.144   3.276   7.869  0.0876 -0.5101  0.3315
  125OSM   H10F13358   6.105   3.193   7.930 -1.6095  0.3975  0.5220
  125OSM   C11F13359   6.111   3.421   7.904  0.2010 -0.1723 -0.3363
  125OSM   H11F13360   6.015   3.446   7.854  0.4871 -0.5704 -1.0996
  125OSM   H11G13361   6.176   3.499   7.860 -1.4611  1.6098  0.2009
  125OSM   C12F13362   6.077   3.444   8.055  0.0649  0.4291 -0.1497
  125OSM   H12F13363   5.992   3.378   8.083  2.1891 -2.3076  0.2311
  125OSM   H12G13364   6.065   3.553   8.075 -0.3909  0.4534 -0.5379
  125OSM   C13F13365   6.194   3.402   8.148  0.0652  0.3786  0.2651
  125OSM   H13F13366   6.266   3.486   8.132  1.9628 -1.2054  0.0626
  125OSM   H13G13367   6.244   3.309   8.115 -1.6492 -0.2051 -0.8039
  125OSM   C14F13368   6.158   3.371   8.297  0.1979 -0.8069 -0.5685
  125OSM   H14F13369   6.092   3.456   8.323 -0.8915 -2.2709  1.8581
  125OSM   H14G13370   6.254   3.374   8.353 -1.7498  1.3481  3.1103
  125OSM   C15F13371   6.076   3.249   8.322  0.6972  0.9345  0.3822
  125OSM   H15F13372   6.130   3.156   8.295 -1.6642 -0.5833  0.5244
  125OSM   H15G13373   5.985   3.263   8.259  0.1833  0.6343  1.0531
  125OSM   C16F13374   6.034   3.240   8.466 -0.0906 -0.5014  0.1810
  125OSM   H16F13375   5.963   3.155   8.470  1.1164 -1.5272  3.1368
  125OSM   H16G13376   5.975   3.330   8.493 -0.8529 -1.1557  0.7340
  125OSM   C17F13377   6.154   3.215   8.556  0.1976  0.4245 -0.4178
  125OSM   H17F13378   6.111   3.230   8.658 -1.3256 -2.6118 -0.4856
  125OSM   H17G13379   6.234   3.290   8.538 -0.9541  1.6759 -0.4867
  125OSM   C18F13380   6.221   3.083   8.535  0.5629  0.1361  0.2109
  125OSM   H18F13381   6.147   3.002   8.550  0.0807  1.0151  3.3135
  125OSM   H18G13382   6.311   3.068   8.600  0.9402 -3.2155 -0.8889
  125OSM   H18H13383   6.253   3.068   8.430 -1.8496 -0.8369 -0.4367
  126OSM      N13384   4.466   1.926   6.468  0.7777 -0.0078  0.1690
  126OSM    C1513385   4.456   2.064   6.533  0.0889 -0.1178 -0.2246
  126OSM   H15A13386   4.441   2.057   6.640  1.2320 -0.2723 -0.0526
  126OSM   H15B13387   4.371   2.124   6.504 -1.6479 -1.8678  0.9856
  126OSM   H15C13388   4.550   2.117   6.517  0.3959 -0.3389  0.7546
  126OSM    C1413389   4.342   1.845   6.497 -0.3248 -0.5536  0.0338
  126OSM   H14A13390   4.257   1.910   6.479  0.3357  0.0933 -0.8680
  126OSM   H14B13391   4.335   1.825   6.603  0.1523 -0.0680  0.1573
  126OSM   H14C13392   4.317   1.761   6.435  0.6795 -0.8957  0.0859
  126OSM    C1313393   4.463   1.949   6.317  0.2103 -0.1318  0.0379
  126OSM   H13A13394   4.429   1.859   6.269 -3.0705  0.8854  0.2316
  126OSM   H13B13395   4.559   1.991   6.291  1.3965 -0.9064  2.7922
  126OSM   H13C13396   4.387   2.022   6.292 -1.2269 -2.1305 -1.8025
  126OSM    C1213397   4.585   1.851   6.514 -0.4231  0.4428 -0.1178
  126OSM   H12A13398   4.581   1.753   6.469 -1.6724  0.6705 -0.5514
  126OSM   H12B13399   4.583   1.837   6.621  1.3418 -0.7278 -0.2011
  126OSM    C1113400   4.723   1.910   6.466  0.0676 -0.2471 -0.2944
  126OSM   H11A13401   4.731   2.015   6.500  0.0058 -0.1967 -0.4333
  126OSM   H11B13402   4.739   1.923   6.357  2.3701  0.4922  0.0769
  126OSM      P13403   4.843   1.683   6.483 -0.3796  0.5811  0.0600
  126OSM    O1313404   4.719   1.611   6.525 -0.7704 -0.0370  0.1866
  126OSM    O1413405   4.870   1.665   6.339 -0.0307 -0.1399 -0.5010
  126OSM    O1113406   4.967   1.630   6.565  0.1769 -0.4120 -0.9045
  126OSM    O1213407   4.834   1.835   6.520  0.3525  0.2844  0.2121
  126OSM    C1S13408   5.016   1.693   6.688  0.7367  0.4413 -0.9275
  126OSM    H1S13409   5.004   1.803   6.686  1.4306  0.5157 -1.0455
  126OSM    H1T13410   5.126   1.678   6.690  0.5588 -1.4739  2.4331
  126OSM     NF13411   4.999   1.706   6.932 -0.0190  0.6384 -0.2182
  126OSM    HNF13412   5.080   1.681   6.985 -0.6735  0.2201  0.6009
  126OSM    C2S13413   4.972   1.619   6.818 -0.5382  0.5805  0.3036
  126OSM    H2S13414   4.864   1.606   6.794 -0.5223  2.5956 -1.1090
  126OSM    C3S13415   5.042   1.483   6.823 -1.0836 -0.7061 -0.0285
  126OSM    H3S13416   5.149   1.512   6.830 -1.1980  0.1627 -1.5601
  126OSM     O313417   5.033   1.405   6.702 -0.1422  0.4044  0.2482
  126OSM    HO313418   4.985   1.465   6.644 -0.5628  0.8579  1.0380
  126OSM    C4S13419   4.987   1.417   6.948 -0.2729 -0.7814  0.1133
  126OSM    H4S13420   5.031   1.454   7.041 -0.1940  1.0721 -0.6129
  126OSM    C5S13421   4.896   1.315   6.963 -0.3056  0.0812  0.1990
  126OSM    H5S13422   4.838   1.291   6.872 -1.3725  2.7068  0.1145
  126OSM    C6S13423   4.845   1.279   7.097  0.9010 -0.3718  0.1121
  126OSM    H6S13424   4.892   1.182   7.123  1.8040  0.5802  2.4122
  126OSM    H6T13425   4.737   1.258   7.089  0.7651  0.5964 -0.8399
  126OSM    C7S13426   4.861   1.371   7.216 -0.5951 -0.0280 -0.3313
  126OSM    H7S13427   4.845   1.478   7.193  1.1688 -0.0676 -1.9969
  126OSM    H7T13428   4.966   1.367   7.251 -1.0461  0.3277  1.1548
  126OSM    C8S13429   4.775   1.330   7.343  0.4677 -0.8615  0.7118
  126OSM    H8S13430   4.669   1.306   7.319  0.3955 -1.5444  1.6755
  126OSM    H8T13431   4.771   1.420   7.408  1.5942 -0.4037  0.1703
  126OSM    C9S13432   4.830   1.202   7.411 -0.8044 -0.3958  0.0815
  126OSM    H9S13433   4.937   1.215   7.439 -1.0908  0.4289  0.8120
  126OSM    H9T13434   4.830   1.121   7.334  2.5619  0.9993 -1.6103
  126OSM   C10S13435   4.762   1.172   7.546  0.1661 -0.5191 -0.6979
  126OSM   H10S13436   4.765   1.065   7.576 -3.2107 -0.4765  0.2826
  126OSM   H10T13437   4.656   1.186   7.517  0.7723  0.5907 -2.5301
  126OSM   C11S13438   4.815   1.245   7.675 -0.1933 -0.7097 -0.9762
  126OSM   H11S13439   4.855   1.171   7.747 -1.1260 -0.2897  0.0116
  126OSM   H11T13440   4.726   1.277   7.734 -0.4045 -0.7792 -1.2525
  126OSM   C12S13441   4.914   1.361   7.655  0.5886 -0.2189 -0.5203
  126OSM   H12S13442   4.861   1.446   7.606 -3.1235 -1.7190  0.5818
  126OSM   H12T13443   5.009   1.339   7.602  2.3879 -0.6255  2.6382
  126OSM   C13S13444   4.966   1.420   7.786  0.4157 -0.1438 -0.4605
  126OSM   H13S13445   5.027   1.506   7.751 -1.0517  1.3337  0.5012
  126OSM   H13T13446   5.033   1.357   7.848  1.2147 -0.5328 -1.6740
  126OSM   C14S13447   4.854   1.484   7.865 -0.0231  0.6080 -0.3813
  126OSM   H14S13448   4.800   1.411   7.928 -1.1833  0.3932 -1.5484
  126OSM   H14T13449   4.775   1.535   7.804  0.9260  4.3408  1.2321
  126OSM   C15S13450   4.895   1.599   7.951 -0.6485  0.4823  0.0557
  126OSM   H15S13451   4.805   1.662   7.967 -1.2685  0.1812 -1.9600
  126OSM   H15T13452   4.969   1.669   7.906  1.9657 -1.4134  1.1295
  126OSM   C16S13453   4.940   1.560   8.091 -0.0057 -0.6090  0.3774
  126OSM   H16S13454   5.010   1.474   8.082  1.4703  0.3747  1.8641
  126OSM   H16T13455   4.855   1.512   8.145  0.2792 -3.7942 -1.7465
  126OSM   C17S13456   5.000   1.666   8.186 -0.0714  0.2722  0.7002
  126OSM   H17S13457   5.078   1.723   8.130  0.4351 -1.6305 -0.6388
  126OSM   H17T13458   5.050   1.626   8.278 -0.4265  1.1143  1.2693
  126OSM   C18S13459   4.899   1.769   8.248 -0.4070 -0.5240 -0.1585
  126OSM   H18S13460   4.842   1.818   8.166  1.6473  1.1020 -0.7108
  126OSM   H18T13461   4.947   1.834   8.324  0.9748 -1.9558  0.2524
  126OSM   H18U13462   4.832   1.703   8.307 -0.1045  0.0816  0.8691
  126OSM    C1F13463   4.936   1.814   6.962  0.8225 -0.0301 -0.2155
  126OSM     OF13464   4.833   1.843   6.902  0.3660  0.1282 -0.7026
  126OSM    C2F13465   5.001   1.898   7.064  0.4328  0.0583  0.3998
  126OSM    H2F13466   5.103   1.923   7.025  0.4373 -1.5787 -0.7444
  126OSM    H2G13467   5.009   1.826   7.148 -2.3616 -0.8272 -0.0030
  126OSM    C3F13468   4.923   2.025   7.095 -0.5279  0.5370 -0.1474
  126OSM    H3F13469   4.814   2.007   7.107 -0.4657  0.3877  0.1873
  126OSM    H3G13470   4.938   2.091   7.006 -0.9313  2.1703  0.9473
  126OSM    C4F13471   4.980   2.093   7.227  0.2795 -0.5368  0.1609
  126OSM    H4F13472   4.930   2.192   7.224 -0.4016 -0.8943 -0.6899
  126OSM    H4G13473   5.087   2.112   7.200 -0.6074  1.3271 -2.4236
  126OSM    C5F13474   4.945   2.025   7.358  1.3024 -0.1630 -0.5658
  126OSM    H5F13475   5.033   1.962   7.384 -0.4080 -2.6602 -0.5642
  126OSM    H5G13476   4.869   1.947   7.340  0.1305  0.3419  1.7706
  126OSM    C6F13477   4.903   2.120   7.468  0.0913 -0.1132 -0.0964
  126OSM    H6F13478   4.815   2.170   7.422  0.4130 -0.8049 -1.5013
  126OSM    H6G13479   4.971   2.207   7.483 -1.2821  1.2491 -1.4609
  126OSM    C7F13480   4.853   2.066   7.608 -0.4278  0.2573 -0.1557
  126OSM    H7F13481   4.787   1.978   7.596 -0.1769  0.0008  0.3195
  126OSM    H7G13482   4.786   2.144   7.652 -0.7381 -0.7876  1.3289
  126OSM    C8F13483   4.966   2.034   7.705  0.2957  0.2069 -0.1728
  126OSM    H8F13484   5.030   2.124   7.713 -1.8380  1.8251 -0.7286
  126OSM    H8G13485   5.031   1.956   7.660  1.7956  1.0807  0.4067
  126OSM    C9F13486   4.931   1.982   7.841 -0.5595  0.4060  0.6388
  126OSM    H9F13487   4.870   1.891   7.841  0.7376 -0.5739 -2.3927
  126OSM   C10F13488   4.943   2.036   7.959 -0.8353  0.4645 -0.9306
  126OSM   H10F13489   4.903   1.974   8.040  2.0683  1.3194  1.3127
  126OSM   C11F13490   5.004   2.164   8.014 -0.1539  0.5405 -0.0040
  126OSM   H11F13491   5.066   2.216   7.938  0.3379  1.1422  0.8064
  126OSM   H11G13492   5.067   2.147   8.103 -0.0844  0.9153  0.0170
  126OSM   C12F13493   4.897   2.261   8.070 -0.2679  0.1217 -0.6206
  126OSM   H12F13494   4.838   2.301   7.984 -0.2297  0.2008 -0.6108
  126OSM   H12G13495   4.952   2.354   8.096  0.3013 -0.3730 -0.0303
  126OSM   C13F13496   4.809   2.203   8.182  0.1169 -0.1264 -0.5098
  126OSM   H13F13497   4.743   2.124   8.140  2.1523 -1.8941 -0.5441
  126OSM   H13G13498   4.736   2.278   8.220  2.1732  1.0597  1.3701
  126OSM   C14F13499   4.894   2.133   8.302  0.6731 -0.5218  0.5403
  126OSM   H14F13500   4.953   2.211   8.355  1.6225 -1.4573  0.8858
  126OSM   H14G13501   4.963   2.064   8.248  0.5346 -0.9971  0.9699
  126OSM   C15F13502   4.794   2.073   8.398 -0.2775 -0.8369  0.0658
  126OSM   H15F13503   4.855   2.007   8.463  0.3579 -0.1849  0.1366
  126OSM   H15G13504   4.716   2.010   8.349 -0.9580 -0.6862  0.9268
  126OSM   C16F13505   4.726   2.172   8.498 -0.6141 -0.4558 -0.9078
  126OSM   H16F13506   4.672   2.249   8.438  1.6662  1.4831 -0.6395
  126OSM   H16G13507   4.798   2.230   8.559 -0.0078 -1.1025 -1.0021
  126OSM   C17F13508   4.635   2.093   8.593 -0.3089 -0.7457  0.8462
  126OSM   H17F13509   4.682   1.995   8.615 -2.7416 -1.9698  0.9937
  126OSM   H17G13510   4.543   2.078   8.532 -0.5293  0.4118  0.8711
  126OSM   C18F13511   4.580   2.167   8.719 -0.2832  0.3009  0.1097
  126OSM   H18F13512   4.530   2.093   8.785  0.7192  0.4325  1.0458
  126OSM   H18G13513   4.505   2.244   8.693  1.6822  1.7199 -1.6729
  126OSM   H18H13514   4.662   2.218   8.774 -1.5549  2.5150  0.0591
  127OSM      N13515   1.630   1.468   6.307 -0.9890 -0.0126  0.0307
  127OSM    C1513516   1.700   1.430   6.428 -0.2513 -0.0261 -0.2121
  127OSM   H15A13517   1.805   1.453   6.424 -0.4477  0.9202 -0.2769
  127OSM   H15B13518   1.690   1.324   6.447  2.3704 -0.5982 -1.5125
  127OSM   H15C13519   1.651   1.484   6.508 -0.2226 -1.9846  1.1861
  127OSM    C1413520   1.484   1.425   6.315 -0.0917  0.7887 -0.4067
  127OSM   H14A13521   1.434   1.432   6.220 -0.3835  0.6986 -0.2632
  127OSM   H14B13522   1.425   1.482   6.386  0.3270 -0.7055  1.2098
  127OSM   H14C13523   1.473   1.321   6.341 -2.8191  0.5199 -2.2114
  127OSM    C1313524   1.628   1.616   6.297  0.0540  0.2977  0.5489
  127OSM   H13A13525   1.583   1.663   6.210  0.7296 -0.1193 -0.0382
  127OSM   H13B13526   1.731   1.648   6.299 -0.1861  1.0902  0.6555
  127OSM   H13C13527   1.574   1.655   6.382 -1.1348 -2.9156  1.4097
  127OSM    C1213528   1.676   1.392   6.187 -0.4414 -0.0351  0.3455
  127OSM   H12A13529   1.614   1.411   6.100  2.1192  0.4998 -1.4843
  127OSM   H12B13530   1.660   1.286   6.204  0.2577 -0.1242  0.4774
  127OSM    C1113531   1.822   1.418   6.136  0.5557  0.4177 -0.1711
  127OSM   H11A13532   1.848   1.526   6.141  4.6790 -0.1810 -3.3024
  127OSM   H11B13533   1.823   1.384   6.030 -2.5341 -0.5415  0.0161
  127OSM      P13534   1.960   1.196   6.176 -0.2427 -0.0438 -0.5497
  127OSM    O1313535   1.859   1.094   6.199 -0.0278 -0.8747 -0.2043
  127OSM    O1413536   2.017   1.206   6.039  0.4450  0.6228  0.1846
  127OSM    O1113537   2.089   1.180   6.270  0.0494  0.0281 -0.6116
  127OSM    O1213538   1.915   1.343   6.210  0.2381 -0.1137 -0.1881
  127OSM    C1S13539   2.094   1.208   6.413  0.4031  0.3110  0.0867
  127OSM    H1S13540   2.005   1.262   6.454 -0.3285 -3.0736  3.5524
  127OSM    H1T13541   2.176   1.283   6.427 -0.2515  1.4292 -1.7704
  127OSM     NF13542   2.112   1.138   6.648 -0.3386  0.2531  0.0390
  127OSM    HNF13543   2.203   1.135   6.688 -0.3294  0.7054  0.0543
  127OSM    C2S13544   2.105   1.088   6.511  0.7109 -0.4706  0.2679
  127OSM    H2S13545   2.017   1.021   6.517  0.5353 -0.1340  1.6493
  127OSM    C3S13546   2.227   0.998   6.469 -0.6194 -0.7606 -0.3172
  127OSM    H3S13547   2.307   1.075   6.462 -0.7806 -0.6498 -0.9883
  127OSM     O313548   2.203   0.928   6.348 -0.2109 -0.4095  0.1337
  127OSM    HO313549   2.141   0.990   6.310 -0.2954 -0.2241  0.5627
  127OSM    C4S13550   2.262   0.892   6.582 -0.0836 -0.4725 -0.5972
  127OSM    H4S13551   2.333   0.925   6.660 -0.8592 -1.1257  0.4109
  127OSM    C5S13552   2.204   0.774   6.592  0.4597  0.4980 -0.5503
  127OSM    H5S13553   2.131   0.741   6.516 -0.5970 -1.0576  1.0622
  127OSM    C6S13554   2.216   0.669   6.703  0.1002  0.3230  0.7704
  127OSM    H6S13555   2.258   0.581   6.649 -1.5798  0.1956 -0.4075
  127OSM    H6T13556   2.115   0.645   6.742  0.3307 -1.6353  0.2892
  127OSM    C7S13557   2.317   0.701   6.813  0.0794  0.1387  0.6559
  127OSM    H7S13558   2.280   0.795   6.859  1.3691  2.2644 -2.3151
  127OSM    H7T13559   2.420   0.719   6.775  0.4080 -0.7789  1.0773
  127OSM    C8S13560   2.337   0.596   6.921 -0.5359 -0.0373 -0.7726
  127OSM    H8S13561   2.387   0.510   6.872 -0.4585 -0.4924  0.0822
  127OSM    H8T13562   2.239   0.563   6.962 -1.1292  1.2574 -1.0920
  127OSM    C9S13563   2.425   0.638   7.043 -0.1700 -0.2931 -0.2867
  127OSM    H9S13564   2.384   0.731   7.088  1.2736  0.6075 -0.7552
  127OSM    H9T13565   2.520   0.686   7.012 -0.8319  1.8071  0.7459
  127OSM   C10S13566   2.463   0.528   7.146 -0.2181 -0.4334  0.3876
  127OSM   H10S13567   2.513   0.451   7.084 -0.2985 -0.2653  0.1105
  127OSM   H10T13568   2.373   0.477   7.185 -0.4928 -1.3275 -1.3279
  127OSM   C11S13569   2.555   0.588   7.258  0.2741 -0.2706  0.4349
  127OSM   H11S13570   2.490   0.663   7.308 -1.7730 -0.8494 -1.2319
  127OSM   H11T13571   2.649   0.632   7.218 -0.0979 -0.5406 -0.7482
  127OSM   C12S13572   2.586   0.489   7.369  0.6675  0.7575 -0.9244
  127OSM   H12S13573   2.621   0.395   7.322  1.1898 -0.0265  0.9324
  127OSM   H12T13574   2.487   0.468   7.417  1.4661  1.0241  0.9294
  127OSM   C13S13575   2.695   0.540   7.461  0.5948  0.3705  0.2330
  127OSM   H13S13576   2.662   0.628   7.520 -0.5682 -1.1099  1.9056
  127OSM   H13T13577   2.782   0.571   7.400 -0.6102  0.1208 -1.7000
  127OSM   C14S13578   2.732   0.429   7.561 -0.1539  0.4298 -0.5921
  127OSM   H14S13579   2.826   0.455   7.615 -1.1091  1.5872  0.5721
  127OSM   H14T13580   2.740   0.322   7.532  0.1428  0.6354 -1.2826
  127OSM   C15S13581   2.623   0.416   7.671  0.8474 -0.1454  0.4360
  127OSM   H15S13582   2.533   0.364   7.632  0.3280  0.1434  1.2150
  127OSM   H15T13583   2.591   0.522   7.684  0.9329 -0.2694  1.8377
  127OSM   C16S13584   2.677   0.356   7.797  0.6879 -0.4391 -0.4807
  127OSM   H16S13585   2.744   0.429   7.847 -1.1763  2.0655 -1.4871
  127OSM   H16T13586   2.733   0.262   7.775  0.1796 -1.3140  1.7053
  127OSM   C17S13587   2.565   0.314   7.904  0.2527  0.5854 -0.3281
  127OSM   H17S13588   2.492   0.245   7.858 -0.1264 -0.4443  1.6899
  127OSM   H17T13589   2.514   0.406   7.940 -0.2087 -0.2572  1.2863
  127OSM   C18S13590   2.641   0.244   8.026  1.3931  0.1156 -0.8429
  127OSM   H18S13591   2.564   0.228   8.105  0.7158 -1.2293 -1.7232
  127OSM   H18T13592   2.722   0.313   8.057 -0.2320  1.1567  1.3316
  127OSM   H18U13593   2.682   0.150   7.982 -0.5117 -0.6906 -1.0051
  127OSM    C1F13594   2.006   1.198   6.709 -0.3543  1.0366 -0.2479
  127OSM     OF13595   1.892   1.191   6.655 -0.9412  0.6224  0.9595
  127OSM    C2F13596   2.034   1.266   6.839 -0.8073  0.1708  0.2930
  127OSM    H2F13597   2.041   1.376   6.829 -1.8102  0.1184 -1.2659
  127OSM    H2G13598   2.125   1.220   6.883 -0.3469  1.1996  0.4419
  127OSM    C3F13599   1.923   1.236   6.945 -0.0485 -0.1821  0.0256
  127OSM    H3F13600   1.823   1.264   6.906 -0.0743 -0.5223 -0.1617
  127OSM    H3G13601   1.931   1.302   7.034 -0.9897  2.6538 -1.8781
  127OSM    C4F13602   1.924   1.089   6.981  0.0475 -0.2961  0.2233
  127OSM    H4F13603   1.954   1.020   6.899 -0.6238  0.4483 -0.6713
  127OSM    H4G13604   1.820   1.060   7.005  0.7272 -1.6413  1.7587
  127OSM    C5F13605   2.006   1.058   7.105  0.6914  0.1590 -0.0464
  127OSM    H5F13606   1.954   1.099   7.195 -1.2027  1.1463 -1.5088
  127OSM    H5G13607   2.102   1.112   7.101  0.6905  0.0938 -2.5026
  127OSM    C6F13608   2.017   0.905   7.131 -0.5634  0.5157  0.1612
  127OSM    H6F13609   2.089   0.875   7.051 -0.9408  1.0302 -0.3814
  127OSM    H6G13610   1.922   0.851   7.110  0.0572 -0.5121 -0.0884
  127OSM    C7F13611   2.085   0.873   7.268 -0.1910 -0.4866 -0.1728
  127OSM    H7F13612   2.094   0.763   7.268 -1.9860 -0.7141  1.9628
  127OSM    H7G13613   2.013   0.905   7.346 -0.6186  0.0123 -0.7612
  127OSM    C8F13614   2.224   0.945   7.286  0.3234  0.1352  0.6122
  127OSM    H8F13615   2.209   1.055   7.285 -4.4984 -0.2730  2.6573
  127OSM    H8G13616   2.287   0.915   7.199 -1.0154 -2.7615  0.5195
  127OSM    C9F13617   2.272   0.893   7.417 -0.1977  0.5285 -0.3572
  127OSM    H9F13618   2.356   0.822   7.417  0.2539  0.9510  2.3653
  127OSM   C10F13619   2.230   0.945   7.538  0.2357  0.7508  0.2657
  127OSM   H10F13620   2.266   0.887   7.625 -1.5950 -0.1252  0.4741
  127OSM   C11F13621   2.130   1.056   7.567 -0.7162  0.6792  0.0621
  127OSM   H11F13622   2.076   1.095   7.479 -2.3969 -4.2946 -1.4494
  127OSM   H11G13623   2.188   1.140   7.610  0.3698 -0.0465  0.0422
  127OSM   C12F13624   2.021   1.019   7.668 -0.0123 -0.1243 -0.6282
  127OSM   H12F13625   2.061   0.949   7.743 -0.2861 -0.1435 -0.4975
  127OSM   H12G13626   1.944   0.963   7.611 -0.4913  2.8812 -3.2374
  127OSM   C13F13627   1.957   1.145   7.738 -0.4874 -0.1995 -0.2193
  127OSM   H13F13628   1.899   1.205   7.665  2.1258 -0.3468 -2.6456
  127OSM   H13G13629   2.039   1.204   7.783 -0.7847 -0.9608  1.3904
  127OSM   C14F13630   1.881   1.101   7.863  0.1231  0.1432  0.2102
  127OSM   H14F13631   1.942   1.034   7.928 -0.6036  1.1445  2.0183
  127OSM   H14G13632   1.788   1.049   7.832 -1.2187  2.9901 -0.9280
  127OSM   C15F13633   1.827   1.223   7.947 -0.5492 -0.1352  0.1994
  127OSM   H15F13634   1.775   1.298   7.885  0.2953 -1.6125 -2.4482
  127OSM   H15G13635   1.911   1.281   7.991  1.7185 -1.9235 -1.4791
  127OSM   C16F13636   1.727   1.188   8.057 -0.2426  0.9046 -0.0658
  127OSM   H16F13637   1.762   1.091   8.099  1.7461  0.0799 -3.2660
  127OSM   H16G13638   1.629   1.180   8.005  1.8852 -0.5488 -4.3159
  127OSM   C17F13639   1.710   1.293   8.161  0.9854 -0.2352  0.3823
  127OSM   H17F13640   1.667   1.382   8.111 -0.1722 -1.4495 -0.8628
  127OSM   H17G13641   1.809   1.329   8.197 -0.1477  2.5762  0.9624
  127OSM   C18F13642   1.630   1.255   8.283  0.6335  0.7375  0.2474
  127OSM   H18F13643   1.640   1.333   8.361  0.1770  1.9786 -0.8956
  127OSM   H18G13644   1.667   1.159   8.325 -2.6522  0.6913  3.5981
  127OSM   H18H13645   1.523   1.242   8.257  0.6702 -1.2635  0.9630
  128OSM      N13646   1.709   5.577   5.913 -0.4385  0.2436 -0.3392
  128OSM    C1513647   1.856   5.572   5.955 -0.1188  0.2760  0.1868
  128OSM   H15A13648   1.884   5.656   6.017  0.8724 -0.9981  1.5391
  128OSM   H15B13649   1.925   5.565   5.872 -0.3644 -0.5179  0.0424
  128OSM   H15C13650   1.873   5.483   6.014  3.3820 -0.1469 -1.1723
  128OSM    C1413651   1.699   5.662   5.799  0.0679  0.3182 -0.4758
  128OSM   H14A13652   1.733   5.763   5.814  1.4923 -0.1531 -0.3465
  128OSM   H14B13653   1.600   5.645   5.759  0.2151  0.8994 -1.0988
  128OSM   H14C13654   1.760   5.626   5.717 -2.1673 -1.1591 -1.5997
  128OSM    C1313655   1.662   5.440   5.873  0.1052  0.5940  0.4061
  128OSM   H13A13656   1.671   5.366   5.951 -1.4199  1.0499  1.0678
  128OSM   H13B13657   1.700   5.396   5.783 -0.7946 -1.7610  1.0979
  128OSM   H13C13658   1.555   5.445   5.857  0.2753 -0.1478 -1.1474
  128OSM    C1213659   1.630   5.630   6.034  0.5307  1.0039 -0.5336
  128OSM   H12A13660   1.668   5.724   6.072  1.0727  0.1789  1.0294
  128OSM   H12B13661   1.647   5.566   6.119 -1.4185 -0.6878 -1.3376
  128OSM    C1113662   1.476   5.648   6.019 -0.4677  0.0004  0.0459
  128OSM   H11A13663   1.457   5.696   5.921 -0.0554  0.7405  0.3193
  128OSM   H11B13664   1.437   5.714   6.099  3.5270  0.9794  1.4345
  128OSM      P13665   1.266   5.489   6.012 -0.4573  0.1169 -0.3278
  128OSM    O1313666   1.215   5.543   5.885 -0.0922 -0.4223  0.1206
  128OSM    O1413667   1.230   5.350   6.034  0.0071  0.5254  0.8350
  128OSM    O1113668   1.211   5.570   6.135 -0.3355 -0.7066 -0.4445
  128OSM    O1213669   1.416   5.511   6.016 -0.0528 -0.2019  0.3604
  128OSM    C1S13670   1.232   5.517   6.268 -0.1199  0.4969  0.0500
  128OSM    H1S13671   1.339   5.493   6.288  0.1320  0.4380 -1.2977
  128OSM    H1T13672   1.189   5.415   6.278 -2.1586  1.3293  0.3406
  128OSM     NF13673   1.196   5.542   6.507 -0.2274  0.0509  0.3736
  128OSM    HNF13674   1.134   5.469   6.534  0.0838 -1.0532 -1.6935
  128OSM    C2S13675   1.161   5.601   6.382  0.9234  0.7829 -0.6461
  128OSM    H2S13676   1.195   5.707   6.378 -0.9704  1.5018  0.9055
  128OSM    C3S13677   1.008   5.590   6.349 -1.0553 -0.0788  0.4853
  128OSM    H3S13678   0.971   5.489   6.377 -2.0630  0.4530  1.1199
  128OSM     O313679   0.977   5.606   6.210 -0.1199 -0.6267  0.1439
  128OSM    HO313680   1.064   5.599   6.168  0.0165  0.2497  0.2429
  128OSM    C4S13681   0.930   5.692   6.436  0.4545  0.7381  0.0083
  128OSM    H4S13682   0.993   5.778   6.462 -0.9050  1.5512  0.7033
  128OSM    C5S13683   0.804   5.682   6.488 -0.1785 -0.1846  0.6349
  128OSM    H5S13684   0.748   5.587   6.488 -0.2118 -0.1652  0.6520
  128OSM    C6S13685   0.736   5.790   6.565 -0.0639  0.0233  0.4102
  128OSM    H6S13686   0.633   5.799   6.526  0.1294  1.4113  0.1553
  128OSM    H6T13687   0.771   5.894   6.545 -2.9593  0.8635 -0.7476
  128OSM    C7S13688   0.727   5.769   6.717 -0.1465  0.4671 -0.4908
  128OSM    H7S13689   0.724   5.868   6.768 -0.7182 -0.2765  0.9869
  128OSM    H7T13690   0.821   5.721   6.752 -0.3760 -0.7973 -1.5624
  128OSM    C8S13691   0.609   5.691   6.772 -0.3250  0.0396  0.8094
  128OSM    H8S13692   0.629   5.588   6.735 -0.4698  0.2811  0.0423
  128OSM    H8T13693   0.506   5.720   6.741 -1.7790 -3.1419  2.1837
  128OSM    C9S13694   0.609   5.674   6.926  0.4051  0.5150 -0.1105
  128OSM    H9S13695   0.709   5.665   6.974  0.4731 -1.1565 -0.4778
  128OSM    H9T13696   0.553   5.584   6.960  2.0721 -0.4098  0.2576
  128OSM   C10S13697   0.549   5.801   6.995  0.0567 -0.3273 -0.6007
  128OSM   H10S13698   0.443   5.816   6.964 -0.6337 -2.2421  0.6820
  128OSM   H10T13699   0.606   5.889   6.957 -2.0435  1.0205 -0.8428
  128OSM   C11S13700   0.542   5.810   7.144  0.0189  0.1650 -0.2807
  128OSM   H11S13701   0.640   5.784   7.189  2.3215  1.9077 -3.8692
  128OSM   H11T13702   0.470   5.732   7.178  1.6086 -1.3122 -0.1678
  128OSM   C12S13703   0.481   5.937   7.194  0.6643 -0.6932 -0.2735
  128OSM   H12S13704   0.386   5.962   7.141  1.5599  1.1074 -1.1311
  128OSM   H12T13705   0.552   6.021   7.179  0.5898 -0.8662 -1.7235
  128OSM   C13S13706   0.454   5.916   7.339 -0.3771 -0.3658 -0.0406
  128OSM   H13S13707   0.550   5.906   7.394 -0.2382  0.9860  0.0137
  128OSM   H13T13708   0.390   5.828   7.357  2.2087 -2.2135  0.7469
  128OSM   C14S13709   0.364   6.034   7.395  0.1989 -0.4014 -0.4693
  128OSM   H14S13710   0.376   6.030   7.505  1.2754 -0.1890 -0.5760
  128OSM   H14T13711   0.259   6.015   7.363  0.4395 -0.2492 -1.3903
  128OSM   C15S13712   0.415   6.174   7.350 -0.4735 -0.4157 -0.0839
  128OSM   H15S13713   0.413   6.187   7.240 -2.3561  1.9416  0.1419
  128OSM   H15T13714   0.519   6.178   7.391  0.2423  1.6939 -1.8852
  128OSM   C16S13715   0.324   6.281   7.406 -0.1557  0.2907 -0.2846
  128OSM   H16S13716   0.333   6.301   7.515 -0.9547 -3.1200  0.5310
  128OSM   H16T13717   0.221   6.243   7.392  0.7393 -1.2353 -4.1026
  128OSM   C17S13718   0.344   6.431   7.348  0.3868  0.0973 -0.0327
  128OSM   H17S13719   0.285   6.509   7.401  2.9484  2.4063 -0.3670
  128OSM   H17T13720   0.309   6.433   7.243 -0.2837  0.9344  0.2000
  128OSM   C18S13721   0.494   6.462   7.349  0.0074 -0.0220  0.2562
  128OSM   H18S13722   0.508   6.546   7.278 -0.1116 -0.7586 -0.6570
  128OSM   H18T13723   0.558   6.381   7.306  0.1263  0.8591 -1.3101
  128OSM   H18U13724   0.526   6.494   7.450  3.3621  0.2880 -0.7807
  128OSM    C1F13725   1.311   5.567   6.563 -0.9381  0.0886  0.8823
  128OSM     OF13726   1.382   5.652   6.510 -0.2696 -0.1603 -0.4381
  128OSM    C2F13727   1.365   5.484   6.679  0.2607 -0.1912  0.3344
  128OSM    H2F13728   1.449   5.427   6.634  0.9418  0.4921  0.7235
  128OSM    H2G13729   1.283   5.414   6.708  0.8539 -0.7355  0.7234
  128OSM    C3F13730   1.412   5.576   6.799 -0.2584 -0.1406  0.4416
  128OSM    H3F13731   1.336   5.565   6.878 -2.3689  3.2621 -0.8924
  128OSM    H3G13732   1.416   5.681   6.762  2.2535 -0.9114 -1.8294
  128OSM    C4F13733   1.551   5.533   6.849 -0.2348 -0.3341  0.0198
  128OSM    H4F13734   1.623   5.535   6.764 -0.9281 -0.2303 -0.5760
  128OSM    H4G13735   1.545   5.428   6.886  1.0054 -0.8470 -1.1577
  128OSM    C5F13736   1.590   5.622   6.971 -0.4509 -0.0356  0.3025
  128OSM    H5F13737   1.554   5.725   6.950  2.8809  0.8622 -1.6226
  128OSM    H5G13738   1.700   5.624   6.961 -0.5410  0.3760 -0.6623
  128OSM    C6F13739   1.543   5.559   7.102  0.7843 -0.3834 -0.0979
  128OSM    H6F13740   1.555   5.449   7.098  1.6427 -0.2961 -0.1866
  128OSM    H6G13741   1.433   5.573   7.106  1.0396  2.5823 -0.8783
  128OSM    C7F13742   1.608   5.603   7.234  0.2617 -0.0322 -0.1959
  128OSM    H7F13743   1.546   5.556   7.314  1.2388 -1.3064 -0.1526
  128OSM    H7G13744   1.605   5.713   7.248  0.2832 -0.0249 -0.2493
  128OSM    C8F13745   1.761   5.568   7.251 -0.0910  1.2451  0.6452
  128OSM    H8F13746   1.814   5.608   7.162  1.3316  0.6064  1.1857
  128OSM    H8G13747   1.766   5.457   7.250 -3.0865  1.0102 -0.6981
  128OSM    C9F13748   1.815   5.623   7.375 -0.3605  0.3403 -0.7302
  128OSM    H9F13749   1.812   5.733   7.384 -0.9670  0.2142  1.1185
  128OSM   C10F13750   1.837   5.559   7.489 -0.5021  0.4669 -0.1879
  128OSM   H10F13751   1.870   5.615   7.578  1.2392  0.2722 -0.6589
  128OSM   C11F13752   1.812   5.412   7.510  0.0984 -0.1126  0.2865
  128OSM   H11F13753   1.907   5.354   7.512 -1.3035 -2.6665 -1.1211
  128OSM   H11G13754   1.757   5.371   7.423 -0.6662  1.7779 -0.1635
  128OSM   C12F13755   1.736   5.363   7.643  0.1640 -0.2834  0.2913
  128OSM   H12F13756   1.698   5.259   7.635 -1.5790  0.4372 -1.8294
  128OSM   H12G13757   1.640   5.414   7.665  0.7087  0.8252  0.1559
  128OSM   C13F13758   1.827   5.391   7.762 -0.3640  0.5858  0.1442
  128OSM   H13F13759   1.834   5.501   7.777  2.5486  0.8755 -2.3106
  128OSM   H13G13760   1.925   5.344   7.740 -0.2669  1.6289 -1.8893
  128OSM   C14F13761   1.745   5.325   7.878 -0.6426  0.1662 -0.1884
  128OSM   H14F13762   1.739   5.219   7.845  0.3561  0.8879 -3.0450
  128OSM   H14G13763   1.639   5.358   7.883 -1.0082 -1.1857  1.9277
  128OSM   C15F13764   1.806   5.349   8.018 -0.3693  0.2786  0.5729
  128OSM   H15F13765   1.837   5.455   8.011  0.2167  0.1884  1.6398
  128OSM   H15G13766   1.890   5.278   8.037  1.1258  1.4972 -1.1592
  128OSM   C16F13767   1.701   5.336   8.133 -0.1608  0.5562  0.1937
  128OSM   H16F13768   1.654   5.237   8.111 -0.1281  0.7900 -0.9904
  128OSM   H16G13769   1.624   5.415   8.119 -0.8442 -0.5233 -3.2059
  128OSM   C17F13770   1.767   5.333   8.273 -0.6697  0.6258 -0.1198
  128OSM   H17F13771   1.823   5.237   8.272 -0.5538  0.6966 -1.0377
  128OSM   H17G13772   1.691   5.330   8.354 -0.9195  0.4945 -0.3585
  128OSM   C18F13773   1.852   5.458   8.302  0.1042 -0.0095  0.3990
  128OSM   H18F13774   1.921   5.480   8.218 -0.4338  0.9562  0.1958
  128OSM   H18G13775   1.916   5.446   8.392 -0.1105  0.7645  0.6643
  128OSM   H18H13776   1.780   5.541   8.317  0.0565 -0.0470  0.3788
  129OSM      N13777   0.479   0.942   5.730 -0.2282  0.2092 -0.1420
  129OSM    C1513778   0.616   1.008   5.726  0.5364 -0.1535 -0.1003
  129OSM   H15A13779   0.685   0.935   5.687  0.3459  0.1537 -1.0548
  129OSM   H15B13780   0.648   1.020   5.828  1.1224 -1.4358 -0.1261
  129OSM   H15C13781   0.625   1.106   5.680  1.1924 -1.0415 -1.9868
  129OSM    C1413782   0.437   0.934   5.594  0.8789 -0.0419  0.7116
  129OSM   H14A13783   0.333   0.906   5.588 -0.2585  3.9405 -2.4658
  129OSM   H14B13784   0.492   0.863   5.535  0.7724  0.1896  0.3339
  129OSM   H14C13785   0.439   1.030   5.545 -1.2652  0.7050  1.9663
  129OSM    C1313786   0.499   0.801   5.778  0.3260 -0.1161 -0.0304
  129OSM   H13A13787   0.405   0.747   5.782  1.1264 -1.6073 -0.5348
  129OSM   H13B13788   0.558   0.795   5.869 -1.1879 -0.5529  0.9719
  129OSM   H13C13789   0.552   0.745   5.702  0.9025  0.3000  0.0563
  129OSM    C1213790   0.382   1.025   5.814 -0.0645  0.1974  0.4148
  129OSM   H12A13791   0.282   0.987   5.820  0.0206 -0.4386 -1.4568
  129OSM   H12B13792   0.387   1.127   5.779 -0.7811  0.2177  0.3615
  129OSM    C1113793   0.421   1.025   5.967 -0.1262 -0.4569  1.1516
  129OSM   H11A13794   0.517   1.081   5.977  0.8139 -1.5536 -1.0604
  129OSM   H11B13795   0.440   0.923   6.005 -2.0281 -0.9423  0.8761
  129OSM      P13796   0.304   1.242   6.056 -0.2560 -0.2046  0.2574
  129OSM    O1313797   0.386   1.306   5.955 -0.4291  0.5381 -0.3410
  129OSM    O1413798   0.160   1.281   6.054 -0.3055 -0.0835  0.2921
  129OSM    O1113799   0.368   1.263   6.198  0.1225  0.2622 -0.3313
  129OSM    O1213800   0.307   1.084   6.030 -0.7893 -0.2876  0.3985
  129OSM    C1S13801   0.306   1.318   6.308 -0.1965 -0.2406 -0.7201
  129OSM    H1S13802   0.203   1.353   6.289  0.2532  1.5941 -0.0040
  129OSM    H1T13803   0.370   1.408   6.322 -1.6285  0.7293 -0.1758
  129OSM     NF13804   0.287   1.346   6.549 -0.0931 -0.4357  0.1856
  129OSM    HNF13805   0.352   1.391   6.611  1.0968 -0.8085 -0.7478
  129OSM    C2S13806   0.337   1.256   6.445 -0.1614  0.3132  0.1005
  129OSM    H2S13807   0.285   1.157   6.448 -0.7558  0.6310  2.5917
  129OSM    C3S13808   0.483   1.214   6.468 -0.2327 -0.9147  0.7822
  129OSM    H3S13809   0.550   1.303   6.472  2.6098 -2.3152 -4.7243
  129OSM     O313810   0.531   1.129   6.358  0.0148  0.2361 -0.2518
  129OSM    HO313811   0.471   1.148   6.285 -0.9295  0.9492  0.6884
  129OSM    C4S13812   0.501   1.132   6.597  0.4318  0.0673 -0.2209
  129OSM    H4S13813   0.441   1.041   6.597  0.2441  0.1895 -0.5880
  129OSM    C5S13814   0.591   1.154   6.698  0.8623 -0.1857 -0.5516
  129OSM    H5S13815   0.667   1.233   6.702 -0.2567  0.9605 -1.2569
  129OSM    C6S13816   0.591   1.065   6.826  0.7162  0.4735 -0.0354
  129OSM    H6S13817   0.696   1.055   6.861  0.4028  0.8957  1.0653
  129OSM    H6T13818   0.539   0.969   6.808  2.5102 -0.9401  1.9021
  129OSM    C7S13819   0.522   1.137   6.952  0.4950 -0.7033  0.1569
  129OSM    H7S13820   0.420   1.147   6.910  1.2815 -3.2535 -2.7437
  129OSM    H7T13821   0.568   1.236   6.971  2.2388 -1.6478  1.1323
  129OSM    C8S13822   0.526   1.067   7.090 -0.8009  0.2001  0.3975
  129OSM    H8S13823   0.634   1.044   7.100 -0.6002 -0.0172 -1.6526
  129OSM    H8T13824   0.455   0.981   7.090  0.9344 -1.2927  0.1474
  129OSM    C9S13825   0.492   1.156   7.204  0.4353  0.4674 -0.0538
  129OSM    H9S13826   0.396   1.202   7.169  0.4471  0.5735  0.0518
  129OSM    H9T13827   0.567   1.238   7.207 -0.7741  1.7165 -1.5048
  129OSM   C10S13828   0.475   1.087   7.333 -0.1584  0.1471 -0.2408
  129OSM   H10S13829   0.568   1.030   7.354 -0.1172  1.0649  2.5743
  129OSM   H10T13830   0.386   1.023   7.321  0.7049 -1.0990 -0.1332
  129OSM   C11S13831   0.441   1.178   7.453 -0.1690 -0.6050  0.1333
  129OSM   H11S13832   0.337   1.216   7.450  0.0041  0.2754  2.8851
  129OSM   H11T13833   0.508   1.264   7.428 -0.1678 -1.3138 -2.5840
  129OSM   C12S13834   0.462   1.125   7.593 -0.1950  0.5828  0.2673
  129OSM   H12S13835   0.454   1.209   7.666 -2.0534 -1.0320  2.0563
  129OSM   H12T13836   0.563   1.079   7.595 -0.6425 -0.4896 -0.8845
  129OSM   C13S13837   0.369   1.016   7.646  0.1778 -0.1308 -0.5110
  129OSM   H13S13838   0.359   0.949   7.558  0.0204 -1.4399  0.4523
  129OSM   H13T13839   0.273   1.070   7.662  0.6834  0.6570 -0.1013
  129OSM   C14S13840   0.423   0.933   7.763  0.3673  1.0323  0.5873
  129OSM   H14S13841   0.533   0.922   7.754  0.1003 -0.5914 -1.3347
  129OSM   H14T13842   0.374   0.839   7.729 -0.8270  1.2548  1.6101
  129OSM   C15S13843   0.384   0.990   7.902  0.1780 -0.1616 -0.2131
  129OSM   H15S13844   0.387   1.099   7.884  0.9244 -0.3574 -1.4076
  129OSM   H15T13845   0.459   0.984   7.984 -1.2118  3.3062  1.4918
  129OSM   C16S13846   0.253   0.943   7.954  0.6727 -0.1194  0.5844
  129OSM   H16S13847   0.267   0.835   7.933  0.8466  0.0960 -0.4674
  129OSM   H16T13848   0.174   0.987   7.889  0.9849 -1.8307 -1.0194
  129OSM   C17S13849   0.242   0.956   8.105  0.8245  0.0580  0.6464
  129OSM   H17S13850   0.219   1.060   8.136  1.2586  0.2159  0.4363
  129OSM   H17T13851   0.337   0.930   8.156  0.5189  0.1605  1.2809
  129OSM   C18S13852   0.146   0.856   8.169 -0.3099 -0.5441  0.0086
  129OSM   H18S13853   0.187   0.755   8.146  1.6576 -0.2086  1.7909
  129OSM   H18T13854   0.043   0.870   8.127 -0.5075 -2.5441 -0.3028
  129OSM   H18U13855   0.145   0.866   8.279  1.3714  0.7128 -0.0529
  129OSM    C1F13856   0.159   1.376   6.549  0.1751 -0.1679 -0.3353
  129OSM     OF13857   0.079   1.298   6.498  0.1085  0.4578 -0.3165
  129OSM    C2F13858   0.119   1.511   6.604  0.3183  0.5357 -0.4491
  129OSM    H2F13859   0.103   1.586   6.523 -1.9970  1.3973  0.7282
  129OSM    H2G13860   0.200   1.545   6.672 -0.6961  0.4163  0.8380
  129OSM    C3F13861  -0.006   1.506   6.684 -0.5368  0.6739 -0.5822
  129OSM    H3F13862  -0.083   1.457   6.620  0.1192 -0.9646 -0.1603
  129OSM    H3G13863  -0.027   1.610   6.716 -1.2857  0.5763 -0.7349
  129OSM    C4F13864   0.006   1.421   6.816 -0.0542 -0.1370 -0.5707
  129OSM    H4F13865   0.103   1.434   6.869 -0.8018 -2.2072  1.5400
  129OSM    H4G13866  -0.009   1.315   6.785 -2.5225 -0.3748  1.0406
  129OSM    C5F13867  -0.104   1.458   6.919 -0.6651  0.1540  0.6287
  129OSM    H5F13868  -0.201   1.449   6.867 -1.3635  3.2788  1.2163
  129OSM    H5G13869  -0.095   1.566   6.943  0.4705  0.3984 -0.7463
  129OSM    C6F13870  -0.104   1.371   7.043  0.1110 -0.1977 -0.4988
  129OSM    H6F13871  -0.030   1.410   7.117  0.2757 -1.4168  0.0076
  129OSM    H6G13872  -0.092   1.265   7.012 -2.8620 -1.3558  1.7545
  129OSM    C7F13873  -0.241   1.367   7.119  0.6485  0.6157 -0.2263
  129OSM    H7F13874  -0.256   1.269   7.170  1.8853  1.3641  1.6991
  129OSM    H7G13875  -0.308   1.365   7.030  0.6169 -1.4614 -0.2008
  129OSM    C8F13876  -0.260   1.498   7.200  0.4765  1.1079  0.1932
  129OSM    H8F13877  -0.223   1.583   7.138 -3.0731  1.2848 -1.9462
  129OSM    H8G13878  -0.190   1.499   7.287  0.9550 -0.1772 -0.1490
  129OSM    C9F13879  -0.404   1.521   7.226  0.9606  0.1741  0.0955
  129OSM    H9F13880  -0.467   1.556   7.143 -1.4509  1.6132  2.3898
  129OSM   C10F13881  -0.468   1.496   7.344  0.4637  0.1937  0.8519
  129OSM   H10F13882  -0.577   1.510   7.346  0.6047  2.4210 -1.5144
  129OSM   C11F13883  -0.409   1.445   7.469  0.6304  0.6344 -0.6436
  129OSM   H11F13884  -0.386   1.513   7.554 -0.1281 -1.3267  1.2444
  129OSM   H11G13885  -0.324   1.377   7.446  0.2042  0.1297 -0.7448
  129OSM   C12F13886  -0.514   1.347   7.529  0.1082 -0.0963 -0.1278
  129OSM   H12F13887  -0.547   1.279   7.448 -2.0149  2.3688 -1.4834
  129OSM   H12G13888  -0.609   1.396   7.560 -0.4826 -1.4203  0.2553
  129OSM   C13F13889  -0.454   1.270   7.647 -0.3564  0.4613  0.5263
  129OSM   H13F13890  -0.366   1.325   7.686 -1.3519  1.8755  0.8328
  129OSM   H13G13891  -0.403   1.182   7.601 -0.0197  0.5936  0.6424
  129OSM   C14F13892  -0.552   1.233   7.761  0.4436  0.5743  0.4484
  129OSM   H14F13893  -0.515   1.148   7.822 -1.4931 -1.6964 -1.2854
  129OSM   H14G13894  -0.649   1.196   7.721 -0.0013  0.1608  1.8554
  129OSM   C15F13895  -0.586   1.352   7.856 -0.4426  0.3702  0.1931
  129OSM   H15F13896  -0.657   1.420   7.805  0.4744  2.9550  2.0795
  129OSM   H15G13897  -0.502   1.415   7.894  1.5343 -1.8724 -0.2567
  129OSM   C16F13898  -0.656   1.300   7.985 -0.1269 -0.4357  0.3585
  129OSM   H16F13899  -0.585   1.230   8.035 -1.2845 -1.9054  0.0302
  129OSM   H16G13900  -0.741   1.233   7.959  1.3363 -1.5942 -1.6475
  129OSM   C17F13901  -0.687   1.417   8.084  0.3964 -0.7208 -0.4192
  129OSM   H17F13902  -0.742   1.498   8.030 -0.1657  0.0464  1.2450
  129OSM   H17G13903  -0.587   1.454   8.115  0.7237 -0.0935 -2.1209
  129OSM   C18F13904  -0.769   1.371   8.205  0.5512  0.4337  0.1654
  129OSM   H18F13905  -0.706   1.312   8.275  0.1780 -0.7696 -0.4736
  129OSM   H18G13906  -0.858   1.311   8.176  1.3317 -1.3508  1.2898
  129OSM   H18H13907  -0.803   1.465   8.252  0.4846  0.9261 -0.8396
  130OSM      N13908   1.092   6.483   5.940  0.1824  0.2281 -0.2960
  130OSM    C1513909   0.952   6.444   5.905 -0.4486 -0.3556 -0.0637
  130OSM   H15A13910   0.909   6.352   5.941 -1.0480  0.1167  0.4490
  130OSM   H15B13911   0.932   6.443   5.799  0.1787  0.6815 -0.2073
  130OSM   H15C13912   0.891   6.520   5.951 -0.3129 -0.8830  1.0163
  130OSM    C1413913   1.182   6.380   5.871  0.4243 -0.3435  0.3434
  130OSM   H14A13914   1.288   6.397   5.883  1.2184 -2.5170 -2.3824
  130OSM   H14B13915   1.171   6.399   5.765  0.7243  1.4116  0.6034
  130OSM   H14C13916   1.161   6.279   5.905  0.6779 -0.0791  1.3169
  130OSM    C1313917   1.121   6.619   5.890 -0.5798 -0.6557 -0.2324
  130OSM   H13A13918   1.072   6.692   5.953  1.6569  0.6772  0.0484
  130OSM   H13B13919   1.090   6.628   5.787 -0.0075 -3.6668 -0.7721
  130OSM   H13C13920   1.227   6.640   5.899 -0.9691  1.0649  0.8380
  130OSM    C1213921   1.115   6.478   6.097 -0.4928  0.0182 -0.5414
  130OSM   H12A13922   1.220   6.500   6.111 -0.8077  0.9835  0.4452
  130OSM   H12B13923   1.099   6.373   6.116  0.0442 -0.1395 -0.9454
  130OSM    C1113924   1.027   6.561   6.189  0.0833 -0.1695  0.4017
  130OSM   H11A13925   1.064   6.537   6.291  0.8430  2.3055  0.7696
  130OSM   H11B13926   0.921   6.529   6.181 -0.2896  0.3018  2.7035
  130OSM      P13927   1.160   6.783   6.224  0.1664 -0.3666 -0.0360
  130OSM    O1313928   1.279   6.699   6.252 -0.2456 -0.3602 -0.2107
  130OSM    O1413929   1.189   6.899   6.135  0.8843 -0.3728 -0.2524
  130OSM    O1113930   1.088   6.824   6.364 -0.2215 -0.9609  0.0680
  130OSM    O1213931   1.041   6.703   6.151 -0.5168  0.3980  0.2381
  130OSM    C1S13932   0.944   6.841   6.360 -0.1398 -0.3296 -0.8673
  130OSM    H1S13933   0.891   6.743   6.364  0.0071 -0.3863 -0.1310
  130OSM    H1T13934   0.909   6.883   6.263 -1.0067  0.5525 -0.1925
  130OSM     NF13935   0.734   6.944   6.471  0.0862  0.7093  0.3555
  130OSM    HNF13936   0.699   7.028   6.432 -0.1579 -0.0225 -1.0709
  130OSM    C2S13937   0.884   6.938   6.466  0.2257 -0.6242  0.3611
  130OSM    H2S13938   0.913   6.905   6.569  2.7084 -1.1404 -0.4358
  130OSM    C3S13939   0.947   7.080   6.439  0.1368 -0.6481  0.0806
  130OSM    H3S13940   0.903   7.117   6.344 -0.6565  3.1622  1.7483
  130OSM     O313941   1.090   7.084   6.420  0.5074  0.3489 -0.7527
  130OSM    HO313942   1.115   6.993   6.400  0.1386  0.2034 -0.5559
  130OSM    C4S13943   0.924   7.185   6.546  0.0544  0.7222 -0.6998
  130OSM    H4S13944   0.939   7.152   6.650  0.6424 -1.1813 -1.3481
  130OSM    C5S13945   0.883   7.310   6.531 -0.3097  0.4859  0.3732
  130OSM    H5S13946   0.858   7.343   6.429  2.7503  0.3103 -0.5558
  130OSM    C6S13947   0.868   7.408   6.642  1.1722 -0.5394 -0.3792
  130OSM    H6S13948   0.766   7.454   6.637  1.2255 -0.3758 -0.0406
  130OSM    H6T13949   0.937   7.494   6.632  1.2059 -0.3729  1.0464
  130OSM    C7S13950   0.869   7.348   6.783  0.2646  0.1253  0.2212
  130OSM    H7S13951   0.968   7.303   6.808 -1.0945 -4.5062 -1.6819
  130OSM    H7T13952   0.798   7.263   6.797  3.1776 -2.2373  1.9865
  130OSM    C8S13953   0.845   7.442   6.904  0.0633  0.0868  0.9573
  130OSM    H8S13954   0.756   7.501   6.872 -1.3548 -1.5656  1.6736
  130OSM    H8T13955   0.928   7.515   6.903 -1.5398  2.0476 -1.6777
  130OSM    C9S13956   0.841   7.372   7.036  0.7312 -0.0704  0.6654
  130OSM    H9S13957   0.943   7.330   7.052  0.2817 -0.2179  3.5194
  130OSM    H9T13958   0.777   7.282   7.027  1.7228 -0.6625 -1.0500
  130OSM   C10S13959   0.810   7.470   7.143 -0.0678  0.1105 -1.0268
  130OSM   H10S13960   0.722   7.530   7.112  0.4356  0.7823 -1.1746
  130OSM   H10T13961   0.883   7.552   7.159 -0.0453 -0.5338  3.5176
  130OSM   C11S13962   0.767   7.397   7.273  0.2138  0.5140 -0.3727
  130OSM   H11S13963   0.844   7.325   7.308 -0.6013 -0.4432 -0.4864
  130OSM   H11T13964   0.680   7.335   7.241  0.7127  0.0195 -0.7852
  130OSM   C12S13965   0.729   7.495   7.389  0.0680 -0.6016  0.0636
  130OSM   H12S13966   0.627   7.537   7.379  0.7763  1.1202 -0.4527
  130OSM   H12T13967   0.797   7.583   7.388 -2.4585  1.5333  1.7664
  130OSM   C13S13968   0.750   7.432   7.530 -0.0540  0.0291 -0.3319
  130OSM   H13S13969   0.849   7.381   7.529  0.3083  0.6752  0.6481
  130OSM   H13T13970   0.676   7.349   7.527  0.7341 -0.6595 -1.5078
  130OSM   C14S13971   0.714   7.516   7.653  0.2203  0.6947 -0.3137
  130OSM   H14S13972   0.603   7.508   7.651  0.3614 -1.9612 -2.0493
  130OSM   H14T13973   0.738   7.624   7.639  0.2447  0.8869  1.0017
  130OSM   C15S13974   0.764   7.471   7.786 -0.8854  0.4943 -0.1298
  130OSM   H15S13975   0.873   7.478   7.768 -0.9460 -0.1519 -0.8208
  130OSM   H15T13976   0.742   7.363   7.801 -1.1598  0.8481  2.4002
  130OSM   C16S13977   0.731   7.564   7.908  0.1828 -0.8670  0.4524
  130OSM   H16S13978   0.630   7.536   7.945  0.3868 -0.8438  1.0423
  130OSM   H16T13979   0.732   7.671   7.877  0.8168 -0.8654  0.4739
  130OSM   C17S13980   0.832   7.553   8.023 -0.2391 -0.5305 -0.5554
  130OSM   H17S13981   0.827   7.634   8.099  2.0152 -0.7877 -0.0415
  130OSM   H17T13982   0.931   7.564   7.973  0.0284 -0.5840 -0.0398
  130OSM   C18S13983   0.823   7.427   8.108 -0.5842  0.1348 -0.0099
  130OSM   H18S13984   0.841   7.335   8.048  1.0765  0.7336 -0.4740
  130OSM   H18T13985   0.725   7.417   8.160  0.4811 -0.8753  1.9172
  130OSM   H18U13986   0.905   7.432   8.183 -0.5018  0.6070 -0.1295
  130OSM    C1F13987   0.654   6.840   6.486  0.4609 -0.2736 -0.8866
  130OSM     OF13988   0.701   6.732   6.504 -0.1606 -0.1866 -0.3179
  130OSM    C2F13989   0.511   6.868   6.466  0.7124 -0.0766 -0.0719
  130OSM    H2F13990   0.480   6.777   6.410  0.5362  0.6489 -1.1682
  130OSM    H2G13991   0.494   6.956   6.401  3.6994  0.8909  0.2690
  130OSM    C3F13992   0.437   6.883   6.598 -0.1251  0.5393 -0.0687
  130OSM    H3F13993   0.430   6.781   6.642  0.1937  0.8401  0.6988
  130OSM    H3G13994   0.340   6.931   6.575 -0.3154 -0.0017 -0.4243
  130OSM    C4F13995   0.506   6.960   6.706  0.7662  0.1182 -0.3849
  130OSM    H4F13996   0.529   7.061   6.664  1.5421  1.0593  2.0945
  130OSM    H4G13997   0.603   6.919   6.741  1.2789  2.9277  1.8515
  130OSM    C5F13998   0.424   6.965   6.832  0.0625  0.2254 -1.1296
  130OSM    H5F13999   0.379   6.864   6.847  2.3205 -0.8850 -1.2942
  130OSM    H5G14000   0.336   7.032   6.822  0.0426  0.6134  1.1504
  130OSM    C6F14001   0.501   7.018   6.948 -0.2559 -0.1265 -0.2869
  130OSM    H6F14002   0.535   7.122   6.928 -1.5353  0.2495 -0.6665
  130OSM    H6G14003   0.593   6.961   6.973 -2.8316 -3.4666  2.6967
  130OSM    C7F14004   0.422   7.034   7.082 -0.5661  0.0855 -0.5245
  130OSM    H7F14005   0.364   6.939   7.088 -1.5108  0.7350  1.9558
  130OSM    H7G14006   0.350   7.119   7.085 -0.8360 -0.1235 -0.9963
  130OSM    C8F14007   0.526   7.057   7.199 -0.0176 -0.2706 -0.0085
  130OSM    H8F14008   0.576   7.155   7.180 -1.3031  0.3773 -0.1773
  130OSM    H8G14009   0.597   6.972   7.190 -1.7225 -1.5154 -3.3490
  130OSM    C9F14010   0.469   7.079   7.331 -0.2184  0.1821 -0.3398
  130OSM    H9F14011   0.419   7.175   7.350  2.6624  2.1738 -2.0088
  130OSM   C10F14012   0.491   6.987   7.427 -0.8610  0.7398 -0.4612
  130OSM   H10F14013   0.449   7.010   7.526 -0.1150  1.5242 -0.3159
  130OSM   C11F14014   0.558   6.845   7.417 -0.3383 -0.8242 -0.8638
  130OSM   H11F14015   0.549   6.798   7.317 -0.5701  1.2406 -1.8614
  130OSM   H11G14016   0.508   6.782   7.493  0.2623  0.2820  0.5045
  130OSM   C12F14017   0.704   6.855   7.463 -0.8650  0.3183  0.2411
  130OSM   H12F14018   0.759   6.891   7.373 -0.1346  1.7056  1.2052
  130OSM   H12G14019   0.763   6.764   7.487  1.3181  1.7161  0.3535
  130OSM   C13F14020   0.724   6.946   7.578  0.0906  0.1989 -0.1383
  130OSM   H13F14021   0.643   6.945   7.653  1.5301  1.6471  1.5238
  130OSM   H13G14022   0.731   7.052   7.545  1.3342  0.5330  1.0900
  130OSM   C14F14023   0.853   6.912   7.656  0.5696 -0.6578 -0.2072
  130OSM   H14F14024   0.934   6.937   7.586  1.0852  0.5026  0.7689
  130OSM   H14G14025   0.855   6.804   7.683 -1.4165 -1.3949 -2.6563
  130OSM   C15F14026   0.861   7.002   7.781 -0.2841  0.0969  0.2180
  130OSM   H15F14027   0.790   6.971   7.860  0.9687 -1.5036  0.7631
  130OSM   H15G14028   0.841   7.107   7.752  0.9103 -0.0377 -1.2562
  130OSM   C16F14029   1.002   7.002   7.851  0.7826  0.2912  0.1280
  130OSM   H16F14030   1.074   7.045   7.780  0.7331  2.6691  1.4167
  130OSM   H16G14031   1.032   6.896   7.863 -1.3591 -0.2559  1.2498
  130OSM   C17F14032   1.004   7.070   7.987  0.0741 -0.3752  0.3777
  130OSM   H17F14033   0.963   7.173   7.981  0.8363  0.0234  1.6272
  130OSM   H17G14034   1.108   7.086   8.023  1.1475  2.0846 -3.2454
  130OSM   C18F14035   0.917   7.003   8.098 -0.7321  0.0127 -0.2770
  130OSM   H18F14036   0.818   6.966   8.065 -0.1336 -1.9226  0.0083
  130OSM   H18G14037   0.902   7.079   8.178  2.3534  0.7004 -0.2376
  130OSM   H18H14038   0.970   6.915   8.139 -0.5323  0.7486  1.0908
  131OSM      N14039   0.353   3.971   6.128 -0.8260 -0.0049 -0.4059
  131OSM    C1514040   0.258   4.086   6.111 -0.3879  0.1577 -0.2665
  131OSM   H15A14041   0.321   4.173   6.107  0.6441 -0.3328  2.6660
  131OSM   H15B14042   0.186   4.095   6.191 -0.3572 -1.6874  0.0232
  131OSM   H15C14043   0.204   4.065   6.020  1.5108  0.6646 -1.5731
  131OSM    C1414044   0.270   3.847   6.132  0.4690  0.3517  0.3126
  131OSM   H14A14045   0.222   3.837   6.036  1.5890  1.3059 -0.3815
  131OSM   H14B14046   0.200   3.848   6.213  0.1816  0.7651  0.0667
  131OSM   H14C14047   0.335   3.761   6.140  0.5929  0.5542  1.6810
  131OSM    C1314048   0.445   3.966   6.009 -0.0668  0.4527 -0.1805
  131OSM   H13A14049   0.537   4.022   6.020  1.3410 -1.7327 -0.2593
  131OSM   H13B14050   0.397   4.000   5.919  0.4690  2.5897  0.2875
  131OSM   H13C14051   0.468   3.864   5.982 -1.6079  0.4376 -1.6306
  131OSM    C1214052   0.426   3.986   6.261 -0.1823 -0.6240 -0.2401
  131OSM   H12A14053   0.472   3.892   6.290 -2.3192 -1.4696  0.6369
  131OSM   H12B14054   0.362   4.016   6.343  2.4181  2.5682  0.8408
  131OSM    C1114055   0.535   4.097   6.263  0.5787 -0.0458  0.2444
  131OSM   H11A14056   0.568   4.130   6.364 -1.1155  4.0474 -0.3378
  131OSM   H11B14057   0.492   4.188   6.214 -0.1577 -0.5559 -0.0750
  131OSM      P14058   0.759   3.966   6.234 -0.1556  0.4238 -0.2932
  131OSM    O1314059   0.708   3.827   6.239 -0.2532  0.0689 -0.0409
  131OSM    O1414060   0.878   3.998   6.154 -0.2042 -0.9648 -0.1133
  131OSM    O1114061   0.796   4.018   6.379  0.2236  0.0905  0.8819
  131OSM    O1214062   0.642   4.051   6.189  0.3843  0.3661  0.0523
  131OSM    C1S14063   0.796   3.915   6.478  0.5533  0.2487 -0.1464
  131OSM    H1S14064   0.884   3.850   6.462  0.9661  0.7110  0.2116
  131OSM    H1T14065   0.709   3.846   6.474  0.0414  0.9458 -2.2477
  131OSM     NF14066   0.827   3.858   6.721 -0.1243  0.1543 -0.4091
  131OSM    HNF14067   0.749   3.838   6.779 -0.2611  1.0658 -0.2669
  131OSM    C2S14068   0.808   3.969   6.626  0.6483  0.2338 -0.7833
  131OSM    H2S14069   0.900   4.032   6.627  1.9169 -1.4800 -2.2474
  131OSM    C3S14070   0.690   4.061   6.666  0.6364  0.9239  0.5560
  131OSM    H3S14071   0.601   3.995   6.677 -0.1538  2.0527  1.0944
  131OSM     O314072   0.670   4.161   6.565 -0.3780 -0.3591 -0.7131
  131OSM    HO314073   0.736   4.138   6.499 -1.0557 -0.6780 -1.2907
  131OSM    C4S14074   0.714   4.121   6.798 -0.6134  0.2704 -0.4805
  131OSM    H4S14075   0.686   4.060   6.885 -0.2006 -1.1516 -1.3204
  131OSM    C5S14076   0.773   4.241   6.822  0.4228 -0.7254 -0.4658
  131OSM    H5S14077   0.801   4.302   6.735  1.5315  2.8624  2.2021
  131OSM    C6S14078   0.812   4.310   6.953  0.3774 -0.3258  0.0395
  131OSM    H6S14079   0.748   4.400   6.963  1.9539  0.7722  0.7632
  131OSM    H6T14080   0.917   4.343   6.941  0.5952 -0.9026  0.2816
  131OSM    C7S14081   0.816   4.224   7.088  0.5293 -0.2571 -0.1178
  131OSM    H7S14082   0.899   4.149   7.082 -0.8027 -2.0904  2.4513
  131OSM    H7T14083   0.719   4.172   7.098 -0.1447  1.0482  0.2431
  131OSM    C8S14084   0.842   4.319   7.203  0.2734  0.2775 -0.0078
  131OSM    H8S14085   0.753   4.385   7.213 -1.2159 -1.7733  1.3995
  131OSM    H8T14086   0.936   4.375   7.186 -1.4823  2.5303 -3.4197
  131OSM    C9S14087   0.871   4.235   7.326  0.6430  0.2275  0.0318
  131OSM    H9S14088   0.965   4.175   7.327  0.0947 -0.6846  2.1585
  131OSM    H9T14089   0.786   4.165   7.334  1.0941 -0.4909 -1.2723
  131OSM   C10S14090   0.868   4.320   7.449 -0.4675  0.5483 -0.8226
  131OSM   H10S14091   0.769   4.368   7.463 -0.5931  0.2699 -0.7383
  131OSM   H10T14092   0.947   4.398   7.445  0.3398 -0.1949 -0.0496
  131OSM   C11S14093   0.905   4.247   7.586  0.5016 -0.1712  0.1000
  131OSM   H11S14094   1.009   4.209   7.586  0.3898 -0.4853 -0.4136
  131OSM   H11T14095   0.839   4.161   7.613 -1.7547  1.2736 -0.5154
  131OSM   C12S14096   0.898   4.337   7.715 -0.5607  0.0422 -0.4572
  131OSM   H12S14097   0.799   4.384   7.733 -0.5377 -0.1705  0.2424
  131OSM   H12T14098   0.975   4.415   7.698 -0.1565 -0.1414  0.4659
  131OSM   C13S14099   0.943   4.257   7.841 -0.1026  0.5680  0.2555
  131OSM   H13S14100   1.051   4.233   7.856  0.0908  1.0724 -0.2720
  131OSM   H13T14101   0.899   4.156   7.833  2.8784 -0.7661 -1.2047
  131OSM   C14S14102   0.876   4.304   7.970 -0.5924  0.2869  0.2925
  131OSM   H14S14103   0.783   4.352   7.932  1.8509  1.7864 -4.5434
  131OSM   H14T14104   0.946   4.367   8.029  0.6611 -0.8838  0.0937
  131OSM   C15S14105   0.827   4.185   8.063  0.6755 -0.3263  0.3847
  131OSM   H15S14106   0.911   4.119   8.094  0.4773 -0.2021  1.1992
  131OSM   H15T14107   0.771   4.106   8.010 -0.3402 -0.3179  1.4131
  131OSM   C16S14108   0.745   4.241   8.186  0.3366  0.6499  0.2852
  131OSM   H16S14109   0.641   4.252   8.148 -0.1064 -0.9967  0.9342
  131OSM   H16T14110   0.786   4.342   8.211  2.7306 -0.8159  2.9157
  131OSM   C17S14111   0.762   4.150   8.318  0.3759 -0.0196  0.2073
  131OSM   H17S14112   0.869   4.150   8.348  0.1578 -1.1968  1.0331
  131OSM   H17T14113   0.739   4.042   8.306  0.8343 -0.0829 -0.1616
  131OSM   C18S14114   0.687   4.210   8.437  0.2027 -0.5608 -1.0010
  131OSM   H18S14115   0.583   4.173   8.444 -1.0217  2.6596 -0.4068
  131OSM   H18T14116   0.678   4.320   8.427 -0.2699 -0.2572  1.9516
  131OSM   H18U14117   0.749   4.195   8.528 -0.1453 -2.1928 -0.9951
  131OSM    C1F14118   0.929   3.776   6.701  0.0798 -0.0174 -0.3082
  131OSM     OF14119   1.036   3.824   6.657  0.2636 -0.8792  1.0296
  131OSM    C2F14120   0.922   3.638   6.737  0.3230 -0.0122 -0.1835
  131OSM    H2F14121   0.936   3.586   6.639  1.4638 -0.8511  0.4020
  131OSM    H2G14122   0.819   3.615   6.774 -1.0156  3.6235 -1.1780
  131OSM    C3F14123   1.036   3.593   6.832 -0.0695  0.3783  0.0559
  131OSM    H3F14124   1.133   3.638   6.805 -0.9100  0.8199 -2.4313
  131OSM    H3G14125   1.044   3.483   6.821  0.0043  0.4295 -0.4111
  131OSM    C4F14126   1.002   3.609   6.979  0.9561 -0.1890 -0.3335
  131OSM    H4F14127   0.917   3.541   7.001  0.0443  0.5384 -1.5357
  131OSM    H4G14128   0.972   3.715   6.993  0.1083 -0.7683  3.3201
  131OSM    C5F14129   1.112   3.566   7.077  0.1506  0.0347  0.7632
  131OSM    H5F14130   1.199   3.635   7.070 -1.7086  2.4875  0.6578
  131OSM    H5G14131   1.150   3.465   7.049 -1.5758 -0.3040 -0.5469
  131OSM    C6F14132   1.075   3.568   7.221  0.7037  0.0339 -0.9778
  131OSM    H6F14133   0.970   3.532   7.231  0.2834  1.7921  2.0734
  131OSM    H6G14134   1.079   3.661   7.281 -0.1021  0.0190 -0.8953
  131OSM    C7F14135   1.166   3.465   7.285 -0.1864 -0.2473  0.0048
  131OSM    H7F14136   1.265   3.514   7.288  0.3854 -1.3997  0.7108
  131OSM    H7G14137   1.178   3.373   7.224  1.6332 -0.1814  0.2054
  131OSM    C8F14138   1.121   3.411   7.422  0.2067  0.2648  0.1477
  131OSM    H8F14139   1.194   3.336   7.460 -1.4637 -1.7015 -0.3558
  131OSM    H8G14140   1.027   3.353   7.409 -0.1221  0.7937  0.1377
  131OSM    C9F14141   1.103   3.509   7.540  0.5069  0.6780  0.7391
  131OSM    H9F14142   1.155   3.605   7.530 -2.4859  2.4820  1.0795
  131OSM   C10F14143   1.017   3.497   7.643 -0.5135 -0.6940  0.3538
  131OSM   H10F14144   1.015   3.578   7.718 -0.8978  0.3917 -0.7994
  131OSM   C11F14145   0.929   3.377   7.675 -0.4584  0.3219  0.0440
  131OSM   H11F14146   0.935   3.307   7.589 -0.2865 -1.1238  1.1843
  131OSM   H11G14147   0.823   3.410   7.676 -1.0803 -1.5574  0.7924
  131OSM   C12F14148   0.965   3.310   7.803  0.6702  0.8431 -0.5070
  131OSM   H12F14149   1.075   3.308   7.818  0.7360 -1.4488 -0.8692
  131OSM   H12G14150   0.935   3.202   7.799  0.5230  0.7605  1.6241
  131OSM   C13F14151   0.885   3.360   7.926  0.3102  0.2620  0.1147
  131OSM   H13F14152   0.778   3.367   7.896 -0.1516  1.4921  1.9045
  131OSM   H13G14153   0.916   3.465   7.948  1.8000 -0.2934  0.8321
  131OSM   C14F14154   0.914   3.281   8.055  0.2687  0.2472  0.3294
  131OSM   H14F14155   1.021   3.298   8.080  1.0392  1.2115 -3.1880
  131OSM   H14G14156   0.903   3.176   8.020 -2.1445  0.4447  0.3712
  131OSM   C15F14157   0.825   3.311   8.170  1.2977 -0.3499  0.0562
  131OSM   H15F14158   0.722   3.275   8.153  0.3334  1.7966  0.9008
  131OSM   H15G14159   0.823   3.422   8.167 -1.8297 -0.3144 -0.3330
  131OSM   C16F14160   0.875   3.266   8.306  0.0871 -0.6131 -0.3023
  131OSM   H16F14161   0.981   3.293   8.326 -0.1936  1.8631 -1.8022
  131OSM   H16G14162   0.863   3.156   8.318 -1.1001 -0.4313  0.4083
  131OSM   C17F14163   0.795   3.337   8.420 -0.4479  1.0654 -0.4051
  131OSM   H17F14164   0.794   3.264   8.504 -0.5098  1.0647 -0.4064
  131OSM   H17G14165   0.687   3.350   8.395 -0.2752  1.3853 -1.0036
  131OSM   C18F14166   0.861   3.465   8.468  1.0760  0.0908  0.2482
  131OSM   H18F14167   0.797   3.528   8.534 -1.5010 -1.7643 -0.3375
  131OSM   H18G14168   0.882   3.530   8.381  1.6386  1.5107  1.3844
  131OSM   H18H14169   0.949   3.453   8.535 -0.3174 -0.1035  2.1388
  132OSM      N14170   2.442   5.382   6.306 -0.1081  0.1089  0.0407
  132OSM    C1514171   2.386   5.310   6.192  0.4381 -0.2337 -0.7514
  132OSM   H15A14172   2.317   5.368   6.132 -0.7025 -1.4428 -0.6722
  132OSM   H15B14173   2.332   5.219   6.214 -0.1210  0.1514 -0.4978
  132OSM   H15C14174   2.471   5.282   6.133  0.4930 -0.0973 -0.7374
  132OSM    C1414175   2.493   5.511   6.258  0.0197  0.9400 -0.4287
  132OSM   H14A14176   2.421   5.579   6.213 -1.3451 -0.0829  0.1525
  132OSM   H14B14177   2.576   5.497   6.191 -1.1804 -1.9952 -1.4894
  132OSM   H14C14178   2.535   5.565   6.341  1.2082  0.3293 -0.6051
  132OSM    C1314179   2.341   5.404   6.408  0.2001  0.4649 -0.0403
  132OSM   H13A14180   2.306   5.312   6.454  0.3581  1.0796  1.3829
  132OSM   H13B14181   2.252   5.450   6.370  0.6456  0.5170 -1.0402
  132OSM   H13C14182   2.384   5.462   6.489  1.4782 -2.0359  1.2124
  132OSM    C1214183   2.552   5.289   6.364 -0.5332  0.4242  0.4801
  132OSM   H12A14184   2.500   5.204   6.407 -0.0004 -0.3395 -0.3468
  132OSM   H12B14185   2.597   5.337   6.450  0.1606 -0.9220  0.9048
  132OSM    C1114186   2.661   5.233   6.262 -0.7711  0.2692 -0.1505
  132OSM   H11A14187   2.750   5.201   6.321 -0.5042 -2.4364 -1.8647
  132OSM   H11B14188   2.694   5.318   6.198 -0.0188  1.5095  1.7748
  132OSM      P14189   2.589   4.988   6.221  0.3721  0.0358 -0.2619
  132OSM    O1314190   2.487   4.925   6.137  0.4055 -0.4914 -0.6977
  132OSM    O1414191   2.723   4.929   6.235 -0.7291  0.0574  0.4726
  132OSM    O1114192   2.528   5.014   6.370  0.0326 -0.6820  0.3670
  132OSM    O1214193   2.604   5.135   6.175 -0.4914  0.0644  0.1243
  132OSM    C1S14194   2.610   4.973   6.487 -0.0532 -0.2785 -0.8407
  132OSM    H1S14195   2.711   5.019   6.495 -0.7246  1.3092 -1.1531
  132OSM    H1T14196   2.613   4.862   6.483 -5.0719 -0.6533 -0.8662
  132OSM     NF14197   2.619   4.910   6.715 -0.0146  0.0697 -0.4462
  132OSM    HNF14198   2.572   4.827   6.745  1.6125 -0.7524  0.0244
  132OSM    C2S14199   2.545   4.997   6.622 -0.2165  0.0981 -0.1572
  132OSM    H2S14200   2.561   5.103   6.654 -3.4805  0.3751  0.9020
  132OSM    C3S14201   2.397   4.982   6.617 -0.2426  0.0373  0.1791
  132OSM    H3S14202   2.375   4.880   6.577 -0.4882 -0.2066  0.9235
  132OSM     O314203   2.333   5.085   6.533 -0.1021 -0.4192  0.0656
  132OSM    HO314204   2.368   5.071   6.444  2.0857  3.2579  0.1344
  132OSM    C4S14205   2.331   4.979   6.755  0.5493 -0.5062 -0.1763
  132OSM    H4S14206   2.325   4.882   6.806 -1.2299 -0.5309 -0.3854
  132OSM    C5S14207   2.276   5.083   6.824  0.7256  0.3624 -0.0730
  132OSM    H5S14208   2.255   5.184   6.787 -0.2605  1.4691  3.1462
  132OSM    C6S14209   2.214   5.052   6.957  0.0412  0.5688  0.2228
  132OSM    H6S14210   2.194   4.943   6.972  0.2886  0.4081 -0.5987
  132OSM    H6T14211   2.116   5.104   6.967  0.1774  1.3551 -2.0471
  132OSM    C7S14212   2.305   5.095   7.073 -0.5647  0.4406 -0.1543
  132OSM    H7S14213   2.324   5.204   7.067  1.7982  0.0462 -0.9088
  132OSM    H7T14214   2.403   5.042   7.073 -0.3380  0.8191 -1.9083
  132OSM    C8S14215   2.245   5.063   7.210 -0.0580 -0.4522 -0.1677
  132OSM    H8S14216   2.213   4.957   7.220  1.0094 -0.7264  0.4793
  132OSM    H8T14217   2.143   5.108   7.208 -0.4977 -1.4189 -0.1908
  132OSM    C9S14218   2.326   5.097   7.332 -0.3813  0.3214 -0.8464
  132OSM    H9S14219   2.352   5.205   7.330 -1.6223  0.6660  0.1072
  132OSM    H9T14220   2.416   5.034   7.348 -1.9482 -1.5786  1.1568
  132OSM   C10S14221   2.249   5.061   7.461 -0.0715  1.1398 -0.1044
  132OSM   H10S14222   2.194   4.965   7.457  2.1903 -0.3939  2.2327
  132OSM   H10T14223   2.167   5.136   7.473 -0.9883  0.1447 -0.0309
  132OSM   C11S14224   2.342   5.066   7.582  0.3236  0.4800 -0.1943
  132OSM   H11S14225   2.395   5.163   7.581 -0.1594  0.7499 -0.2723
  132OSM   H11T14226   2.414   4.984   7.564 -1.3546 -1.1110 -0.0132
  132OSM   C12S14227   2.286   5.056   7.728 -0.4143  0.1934 -0.1034
  132OSM   H12S14228   2.364   5.013   7.794  0.6597 -1.9888 -2.5976
  132OSM   H12T14229   2.193   4.994   7.734 -0.2604  0.0411  0.8209
  132OSM   C13S14230   2.240   5.189   7.787 -0.0791 -0.2208 -0.1980
  132OSM   H13S14231   2.133   5.210   7.765 -0.2554  0.0454  0.8612
  132OSM   H13T14232   2.298   5.280   7.763  1.1122 -0.9700 -0.2735
  132OSM   C14S14233   2.239   5.191   7.945 -0.7774 -1.0844  0.1895
  132OSM   H14S14234   2.322   5.126   7.977 -1.1800 -0.5901  2.4178
  132OSM   H14T14235   2.144   5.142   7.977 -1.4917  0.7853  1.1262
  132OSM   C15S14236   2.241   5.335   8.006 -0.3469  0.5107 -0.3766
  132OSM   H15S14237   2.159   5.400   7.967  0.5487  0.7305 -1.9580
  132OSM   H15T14238   2.337   5.386   7.983  0.2287  0.5387  1.8529
  132OSM   C16S14239   2.236   5.331   8.158  0.1749 -0.0479  0.3492
  132OSM   H16S14240   2.304   5.259   8.209  1.0698  0.4953 -0.0701
  132OSM   H16T14241   2.129   5.306   8.177  0.2391 -3.4150 -2.6064
  132OSM   C17S14242   2.265   5.465   8.216  0.0401  0.0099 -0.6046
  132OSM   H17S14243   2.205   5.544   8.166  1.4167  1.3276 -0.2407
  132OSM   H17T14244   2.370   5.483   8.185  0.4629  1.6691  1.5206
  132OSM   C18S14245   2.253   5.476   8.363 -1.0527  0.6156 -0.6301
  132OSM   H18S14246   2.151   5.468   8.408 -0.7261 -0.5414 -0.0651
  132OSM   H18T14247   2.298   5.569   8.402 -2.8381  0.6136  1.6596
  132OSM   H18U14248   2.312   5.401   8.419 -1.0996  0.9371 -0.1448
  132OSM    C1F14249   2.741   4.926   6.749  0.6325 -0.4239 -0.0108
  132OSM     OF14250   2.790   5.037   6.733 -0.2268 -0.2860  0.0901
  132OSM    C2F14251   2.816   4.809   6.794 -0.3337 -0.4456 -0.0886
  132OSM    H2F14252   2.865   4.774   6.701 -0.3888 -0.3389 -0.1582
  132OSM    H2G14253   2.749   4.724   6.819  0.6950 -1.3060 -0.2123
  132OSM    C3F14254   2.899   4.852   6.919  0.0244 -0.1615  0.6805
  132OSM    H3F14255   2.835   4.887   7.003 -0.2964  2.5763 -0.5943
  132OSM    H3G14256   2.969   4.935   6.895  1.3206 -1.4059  0.0318
  132OSM    C4F14257   3.001   4.735   6.951 -0.0138  0.4063 -0.0630
  132OSM    H4F14258   3.071   4.721   6.866  1.0506  1.0418  0.6893
  132OSM    H4G14259   2.931   4.649   6.957 -0.5732  0.8390 -0.3359
  132OSM    C5F14260   3.077   4.758   7.081  0.4750  0.0606  0.4992
  132OSM    H5F14261   3.159   4.683   7.072 -0.1577 -1.0640  3.1768
  132OSM    H5G14262   3.012   4.738   7.169 -0.8718 -1.5852 -0.7966
  132OSM    C6F14263   3.143   4.899   7.088  0.2616 -0.5037  0.1221
  132OSM    H6F14264   3.066   4.979   7.091  0.5098 -0.2678  0.2900
  132OSM    H6G14265   3.203   4.908   6.995 -1.1489  0.6460 -0.7248
  132OSM    C7F14266   3.243   4.926   7.205 -0.4304 -0.2532 -0.7585
  132OSM    H7F14267   3.255   5.036   7.203  0.6869 -0.2377  2.2708
  132OSM    H7G14268   3.349   4.896   7.192 -1.0140 -1.5915 -3.0072
  132OSM    C8F14269   3.209   4.871   7.347  0.1884 -0.8143  0.4134
  132OSM    H8F14270   3.276   4.913   7.425  0.8779  1.8083 -1.4693
  132OSM    H8G14271   3.232   4.763   7.339  3.2295 -0.5353  3.2393
  132OSM    C9F14272   3.066   4.892   7.397 -0.3113  0.0322 -0.9607
  132OSM    H9F14273   2.996   4.947   7.333 -0.5958  0.7700 -0.0416
  132OSM   C10F14274   3.023   4.852   7.516  0.1388 -0.1508 -0.0658
  132OSM   H10F14275   2.922   4.878   7.552  0.1384 -0.0788 -0.1206
  132OSM   C11F14276   3.097   4.775   7.619 -0.4773  0.1467 -0.2032
  132OSM   H11F14277   3.204   4.765   7.593 -0.0040  1.6361  0.9974
  132OSM   H11G14278   3.056   4.673   7.632  0.5500 -0.3747 -0.9505
  132OSM   C12F14279   3.092   4.860   7.752 -0.0919 -0.3290 -0.1454
  132OSM   H12F14280   2.990   4.844   7.794 -0.3239  1.1041 -0.1295
  132OSM   H12G14281   3.117   4.967   7.738 -1.2903  0.0007  0.0983
  132OSM   C13F14282   3.188   4.803   7.861 -1.2242 -0.2748  0.3508
  132OSM   H13F14283   3.295   4.811   7.830 -0.9313 -0.3927  1.2822
  132OSM   H13G14284   3.172   4.694   7.879  0.1051 -0.5198  0.1679
  132OSM   C14F14285   3.176   4.878   7.988  0.0750 -0.6776 -0.7443
  132OSM   H14F14286   3.074   4.916   8.010 -0.0896 -1.0262 -0.8870
  132OSM   H14G14287   3.246   4.964   7.974  0.6137 -1.0277 -0.2414
  132OSM   C15F14288   3.226   4.800   8.111 -0.2301 -0.4095 -0.2469
  132OSM   H15F14289   3.333   4.776   8.095  0.1510  1.5496 -0.9131
  132OSM   H15G14290   3.178   4.703   8.134 -0.5699 -0.0142  0.7692
  132OSM   C16F14291   3.234   4.898   8.231  0.3287  0.4440 -0.1693
  132OSM   H16F14292   3.128   4.920   8.254 -0.0289 -1.2354 -0.0980
  132OSM   H16G14293   3.288   4.985   8.187 -0.3999  1.0458  0.0930
  132OSM   C17F14294   3.297   4.829   8.348  0.5699  0.2120  0.3642
  132OSM   H17F14295   3.247   4.730   8.347 -0.3509  0.6531 -1.0868
  132OSM   H17G14296   3.276   4.882   8.443 -1.0702 -2.2261  1.4600
  132OSM   C18F14297   3.448   4.815   8.329 -0.7393  0.4735  0.0708
  132OSM   H18F14298   3.490   4.911   8.292 -0.7067  1.0625  1.6005
  132OSM   H18G14299   3.475   4.724   8.271 -0.3736 -0.1735  1.2424
  132OSM   H18H14300   3.489   4.799   8.431 -1.5871  0.4644  0.4182
  133SAPE     N14301   1.479   4.922  10.947 -0.0754 -0.3087  0.1491
  133SAPE   HN114302   1.553   4.858  10.912  0.8443  0.3850  0.7712
  133SAPE   HN214303   1.407   4.872  11.003  0.6410  0.7429  2.1324
  133SAPE   HN314304   1.422   4.959  10.869  1.0342  1.3449  0.0756
  133SAPE   C1214305   1.533   5.045  11.019  0.8481 -0.4817  0.5812
  133SAPE  H12A14306   1.596   5.014  11.104  1.5933  0.1624  0.2783
  133SAPE  H12B14307   1.439   5.093  11.054 -0.6962 -2.2280 -0.9671
  133SAPE   C1114308   1.606   5.142  10.916 -0.2585  0.2084 -0.2768
  133SAPE  H11A14309   1.690   5.087  10.869 -0.0243 -0.7996  1.2394
  133SAPE  H11B14310   1.661   5.209  10.985  0.6214 -1.4579  0.7063
  133SAPE     P14311   1.592   5.341  10.750 -0.3027  0.0657  0.3068
  133SAPE   O1314312   1.490   5.387  10.657  0.1851  0.0813  0.6839
  133SAPE   O1414313   1.641   5.439  10.845  0.4808  0.5880 -0.2480
  133SAPE   O1214314   1.528   5.215  10.823  0.5355 -0.2272 -0.6668
  133SAPE   O1114315   1.708   5.276  10.668 -0.3243 -0.6883  0.1243
  133SAPE    C114316   1.672   5.160  10.585  0.3793 -0.7422 -0.0943
  133SAPE    HA14317   1.748   5.080  10.576 -0.8586 -1.9894  0.1827
  133SAPE    HB14318   1.593   5.095  10.628  0.2160  0.9835  2.4055
  133SAPE    C214319   1.637   5.205  10.435  0.1384  0.1900 -0.2352
  133SAPE    HS14320   1.544   5.266  10.444 -0.6057 -1.0326  0.6035
  133SAPE   O2114321   1.608   5.086  10.360 -0.0523 -0.1671 -0.3761
  133SAPE   C2114322   1.495   5.028  10.390  0.1718  0.4060 -0.5627
  133SAPE   O2214323   1.417   5.067  10.476  0.1025 -0.4270  0.3503
  133SAPE   C2214324   1.493   4.895  10.317  0.7702 -0.3646  0.0304
  133SAPE   H2R14325   1.522   4.917  10.212 -1.2371 -0.1974 -0.5380
  133SAPE   H2S14326   1.561   4.826  10.370 -0.3968 -0.1889  1.8663
  133SAPE    C314327   1.759   5.284  10.374  0.3712 -0.2786 -0.3839
  133SAPE    HX14328   1.846   5.226  10.413  0.0567  0.6207  1.8204
  133SAPE    HY14329   1.772   5.385  10.419  0.0617 -0.0344 -0.8375
  133SAPE   O3114330   1.768   5.288  10.228 -0.8731 -0.1428  0.4215
  133SAPE   C3114331   1.683   5.379  10.181 -0.2043  0.4723  0.2557
  133SAPE   O3214332   1.596   5.440  10.243  0.7203  0.1419 -0.1008
  133SAPE   C3214333   1.725   5.416  10.036  0.9304  0.3688  0.3116
  133SAPE   H2X14334   1.811   5.363   9.991 -0.8348 -0.1929 -2.6552
  133SAPE   H2Y14335   1.745   5.525  10.031  0.0603  0.5219  0.0791
  133SAPE   C2314336   1.351   4.826  10.303  0.0711 -0.5993  0.1698
  133SAPE   H3R14337   1.296   4.887  10.229  1.6733 -1.4674 -1.8476
  133SAPE   H3S14338   1.304   4.810  10.402  0.1217  0.1448  0.3218
  133SAPE   C2414339   1.383   4.693  10.233  0.4744  0.7322  0.0807
  133SAPE   H4R14340   1.425   4.630  10.314  0.8812 -0.0914 -0.7482
  133SAPE   H4S14341   1.450   4.694  10.143 -0.2282 -0.1105 -0.4734
  133SAPE   C2514342   1.258   4.632  10.184 -0.1263 -0.1265 -0.3158
  133SAPE   H5R14343   1.214   4.571  10.265  1.7426 -1.1092  0.0157
  133SAPE   C2614344   1.190   4.636  10.066 -0.4333 -0.1612  0.0546
  133SAPE   H6R14345   1.092   4.586  10.068 -0.4270 -0.3301 -1.8591
  133SAPE   C2714346   1.234   4.713   9.938  0.2654 -0.0651  0.0247
  133SAPE   H7R14347   1.342   4.737   9.943  0.1796  0.0790  2.5616
  133SAPE   H7S14348   1.173   4.804   9.920  0.8671  0.7419  1.8267
  133SAPE   C2814349   1.212   4.617   9.819 -0.5281  0.0581  0.4617
  133SAPE   H8R14350   1.219   4.510   9.842  0.7702  0.6820  3.4595
  133SAPE   C2914351   1.178   4.660   9.694 -0.1562  0.5858 -0.4187
  133SAPE   H9R14352   1.171   4.577   9.622  5.9177  0.0864 -0.9646
  133SAPE  C21014353   1.171   4.805   9.645  0.1229 -0.1770 -0.0271
  133SAPE  H10R14354   1.229   4.869   9.716 -0.8857  0.0301  0.6351
  133SAPE  H10S14355   1.066   4.841   9.644  0.9965  2.8427  1.7979
  133SAPE  C21114356   1.227   4.821   9.506  0.2670  0.8259  0.0859
  133SAPE  H11R14357   1.321   4.879   9.505  1.4655 -0.9819  1.5564
  133SAPE  C21214358   1.185   4.757   9.394  0.3818 -0.0258  0.4235
  133SAPE  H12R14359   1.238   4.782   9.300 -1.4622 -3.0489 -1.6012
  133SAPE  C21314360   1.071   4.667   9.390  0.4363  0.4815  0.6045
  133SAPE  H13R14361   0.974   4.706   9.428 -0.9564 -0.0509 -2.0940
  133SAPE  H13S14362   1.095   4.578   9.452  1.5485  0.7661  0.6008
  133SAPE  C21414363   1.061   4.625   9.242  0.1022  0.5022 -0.9767
  133SAPE  H14R14364   1.139   4.565   9.193 -1.1450 -2.9832  0.8910
  133SAPE  C21514365   0.957   4.660   9.160  0.1262  0.5698  0.2980
  133SAPE  H15R14366   0.962   4.631   9.054  1.0943  0.1663  0.4484
  133SAPE  C21614367   0.835   4.732   9.207  0.6169 -0.6738 -0.5514
  133SAPE  H16R14368   0.879   4.822   9.256  1.2435 -1.1304 -0.2566
  133SAPE  H16S14369   0.788   4.681   9.293  3.3742 -0.4925  1.1964
  133SAPE  C21714370   0.736   4.782   9.091 -0.4720  0.6947  0.0103
  133SAPE  H17R14371   0.685   4.699   9.036 -0.4428  0.6186  0.0986
  133SAPE  H17S14372   0.803   4.835   9.021 -1.5129  1.9382 -0.0716
  133SAPE  C21814373   0.639   4.894   9.142  0.5644  0.5141 -0.3733
  133SAPE  H18R14374   0.692   4.986   9.173  0.5384  0.0883  0.9791
  133SAPE  H18S14375   0.579   4.855   9.227  0.0624 -0.1187 -1.0033
  133SAPE  C21914376   0.533   4.919   9.036 -0.7334  0.2436  0.3661
  133SAPE  H19R14377   0.458   4.837   9.030 -0.8215  0.3956 -1.3939
  133SAPE  H19S14378   0.570   4.930   8.932 -0.4129  1.3345  0.5785
  133SAPE  C22014379   0.446   5.042   9.070 -0.5690  0.0043 -0.3864
  133SAPE  H20R14380   0.398   5.081   8.978  1.0565  0.6100 -1.0086
  133SAPE  H20S14381   0.509   5.116   9.123 -1.7581  0.2650  0.7142
  133SAPE  H20T14382   0.372   5.014   9.148  0.0750  1.0947  0.6459
  133SAPE   C3314383   1.602   5.378   9.939  0.2672  0.6005 -0.9931
  133SAPE   H3X14384   1.619   5.435   9.845  3.5517  0.1732 -0.7561
  133SAPE   H3Y14385   1.513   5.418   9.994  0.0255 -0.5151 -0.5428
  133SAPE   C3414386   1.588   5.223   9.910 -0.4096 -0.2030 -0.2577
  133SAPE   H4X14387   1.598   5.167  10.006 -0.5147 -0.6259 -0.4906
  133SAPE   H4Y14388   1.673   5.195   9.843 -1.0540 -0.6496 -0.9108
  133SAPE   C3514389   1.457   5.181   9.846  0.5977  0.6858 -0.6128
  133SAPE   H5X14390   1.380   5.210   9.921  0.7556  0.7995 -0.4911
  133SAPE   H5Y14391   1.448   5.071   9.842 -0.1744  0.6890  0.5757
  133SAPE   C3614392   1.423   5.246   9.708  0.3230  0.0149  0.2483
  133SAPE   H6X14393   1.500   5.213   9.635  0.4930 -0.0082  0.4397
  133SAPE   H6Y14394   1.430   5.356   9.721  3.3851 -0.0191 -0.4215
  133SAPE   C3714395   1.285   5.202   9.649  0.5718 -0.0256  0.7303
  133SAPE   H7X14396   1.214   5.235   9.728 -0.4769 -0.3706 -0.0297
  133SAPE   H7Y14397   1.276   5.091   9.640 -1.3635  0.2680 -2.7972
  133SAPE   C3814398   1.262   5.267   9.508 -0.2657  0.0425  0.5695
  133SAPE   H8X14399   1.267   5.376   9.528  0.7031  0.1316 -0.1214
  133SAPE   H8Y14400   1.156   5.248   9.477 -0.5655  1.5092  0.6398
  133SAPE   C3914401   1.355   5.235   9.388 -1.1765  0.6333 -0.7669
  133SAPE   H9X14402   1.395   5.131   9.386 -0.2341  0.9881 -1.9054
  133SAPE   H9Y14403   1.445   5.298   9.405 -1.0092  0.1990 -0.0066
  133SAPE  C31014404   1.286   5.255   9.246  0.2978  0.0886 -0.6366
  133SAPE  H10X14405   1.181   5.236   9.278  1.1306 -3.4238  0.5225
  133SAPE  H10Y14406   1.315   5.168   9.183  0.0347 -1.0409  0.7196
  133SAPE  C31114407   1.306   5.390   9.182 -0.3555 -0.6336  0.2648
  133SAPE  H11X14408   1.415   5.410   9.185 -0.0534 -2.0756 -0.2877
  133SAPE  H11Y14409   1.251   5.456   9.253 -1.3768 -2.6609  1.4744
  133SAPE  C31214410   1.248   5.394   9.035  0.3853  0.7395 -0.0873
  133SAPE  H12X14411   1.137   5.388   9.032  0.2642 -0.9535  2.8874
  133SAPE  H12Y14412   1.279   5.302   8.981  1.1826 -0.6873  2.5988
  133SAPE  C31314413   1.286   5.522   8.954  0.7226  1.0394 -0.0474
  133SAPE  H13X14414   1.238   5.509   8.855  0.5672  0.1939  0.1320
  133SAPE  H13Y14415   1.394   5.539   8.933  0.6197  2.5917  0.5870
  133SAPE  C31414416   1.212   5.651   9.004  0.0279  0.4499 -0.0808
  133SAPE  H14X14417   1.256   5.667   9.104  3.3485 -1.6071 -1.0361
  133SAPE  H14Y14418   1.102   5.636   9.005 -0.4573  3.4759 -0.7103
  133SAPE  C31514419   1.233   5.772   8.903  0.7792  1.0002  0.0408
  133SAPE  H15X14420   1.343   5.780   8.888  1.5986 -3.9369  1.4453
  133SAPE  H15Y14421   1.180   5.862   8.940 -1.3081 -0.6782  1.3706
  133SAPE  C31614422   1.171   5.757   8.763 -0.0837 -0.1978 -1.2157
  133SAPE  H16X14423   1.062   5.748   8.784 -0.1442 -0.6030 -1.6891
  133SAPE  H16Y14424   1.209   5.666   8.712 -1.5857 -1.3745 -0.3277
  133SAPE  C31714425   1.198   5.900   8.688 -0.0064 -0.0769  0.3781
  133SAPE  H17X14426   1.307   5.916   8.669 -0.0569 -0.6285 -0.3996
  133SAPE  H17Y14427   1.169   5.990   8.746 -1.5095 -0.2690 -0.0446
  133SAPE  C31814428   1.117   5.909   8.558  0.6010  0.0838  0.1374
  133SAPE  H18X14429   1.010   5.895   8.586  0.0711  3.3521  0.0722
  133SAPE  H18Y14430   1.144   5.832   8.483 -0.1300 -1.2910  1.2202
  133SAPE  H18Z14431   1.113   6.009   8.510  1.7428 -1.2877 -3.0803
  134SAPE     N14432   4.579   0.425  10.926 -0.0482  0.1515  0.0071
  134SAPE   HN114433   4.498   0.411  10.990 -0.8852 -3.1649 -1.5529
  134SAPE   HN214434   4.646   0.356  10.963 -0.3794  0.1584  0.6299
  134SAPE   HN314435   4.609   0.524  10.935 -0.3945  0.3525 -0.8820
  134SAPE   C1214436   4.541   0.403  10.779 -0.0775 -0.2669  0.1140
  134SAPE  H12A14437   4.639   0.373  10.734 -0.4075 -0.3398 -0.5689
  134SAPE  H12B14438   4.503   0.500  10.743  0.7021  0.0691  0.1649
  134SAPE   C1114439   4.440   0.290  10.765 -0.2046 -0.4953  0.0934
  134SAPE  H11A14440   4.413   0.272  10.659  2.0106 -0.2399 -0.5770
  134SAPE  H11B14441   4.342   0.304  10.815 -0.4180 -0.6714 -0.2681
  134SAPE     P14442   4.586   0.067  10.742  0.0267  0.1193  0.2615
  134SAPE   O1314443   4.717   0.133  10.738  0.1070 -0.2656  0.6581
  134SAPE   O1414444   4.581  -0.064  10.817  0.4940  0.1043 -0.0498
  134SAPE   O1214445   4.490   0.167  10.825 -0.7307  0.6308  0.3012
  134SAPE   O1114446   4.526   0.055  10.602 -0.4984  0.1422  0.4826
  134SAPE    C114447   4.424  -0.042  10.576  0.3143  0.1694  0.0868
  134SAPE    HA14448   4.454  -0.148  10.595 -0.1565  0.1638  0.8626
  134SAPE    HB14449   4.327  -0.028  10.629  0.9194 -1.1610  1.6293
  134SAPE    C214450   4.385  -0.029  10.420 -0.7553  0.6262  0.0239
  134SAPE    HS14451   4.278  -0.060  10.415 -0.6197  0.1755 -0.0907
  134SAPE   O2114452   4.481  -0.111  10.352 -0.2143 -0.2436 -0.0036
  134SAPE   C2114453   4.443  -0.236  10.324 -0.6669  0.1270  1.2887
  134SAPE   O2214454   4.335  -0.279  10.355  0.2224  0.1376 -0.0083
  134SAPE   C2214455   4.542  -0.302  10.232  0.3933  0.3388 -0.2377
  134SAPE   H2R14456   4.592  -0.223  10.172  1.5404 -1.1628 -1.3302
  134SAPE   H2S14457   4.625  -0.356  10.283  0.6268  0.2185 -0.7361
  134SAPE    C314458   4.395   0.116  10.363  0.3579  0.5437 -0.0538
  134SAPE    HX14459   4.482   0.178  10.393  0.9550 -0.4201  0.2311
  134SAPE    HY14460   4.312   0.180  10.403 -0.3676 -1.1173  1.2430
  134SAPE   O3114461   4.370   0.110  10.225  0.7830 -0.5227 -0.2568
  134SAPE   C3114462   4.481   0.087  10.146 -0.4623 -0.0601  0.4942
  134SAPE   O3214463   4.595   0.095  10.185  0.3295  0.0757  0.3483
  134SAPE   C3214464   4.439   0.069   9.999 -0.4242  0.3031  0.7732
  134SAPE   H2X14465   4.392   0.166   9.972  0.9873  1.1556  1.3243
  134SAPE   H2Y14466   4.364  -0.013   9.999 -3.1049  2.5815  2.5415
  134SAPE   C2314467   4.478  -0.405  10.130  0.3030 -0.0485 -0.0870
  134SAPE   H3R14468   4.414  -0.479  10.183 -1.8471 -1.2436 -3.8708
  134SAPE   H3S14469   4.561  -0.459  10.079  1.0658  1.1113 -0.1182
  134SAPE   C2414470   4.401  -0.333  10.016  0.1074 -0.7009 -0.2320
  134SAPE   H4R14471   4.418  -0.394   9.925 -0.5932 -0.9898 -0.1752
  134SAPE   H4S14472   4.447  -0.232  10.003 -0.3846 -0.4636 -0.1702
  134SAPE   C2514473   4.255  -0.306  10.046 -0.2083 -0.3800  0.6738
  134SAPE   H5R14474   4.233  -0.214  10.103 -2.6690  0.4244 -1.3882
  134SAPE   C2614475   4.149  -0.361   9.981  0.1401 -0.5162  0.4262
  134SAPE   H6R14476   4.051  -0.335  10.024  1.3364  1.1869  2.3266
  134SAPE   C2714477   4.144  -0.466   9.875 -0.6134 -0.6428 -0.2846
  134SAPE   H7R14478   4.223  -0.442   9.801 -3.5885 -0.0115 -3.4524
  134SAPE   H7S14479   4.053  -0.466   9.812  0.4076 -0.4417 -1.8100
  134SAPE   C2814480   4.169  -0.599   9.948 -0.2216 -0.4395 -0.3025
  134SAPE   H8R14481   4.191  -0.595  10.056  2.0124  0.9857 -0.7466
  134SAPE   C2914482   4.179  -0.714   9.874  0.1921 -0.7171  0.1888
  134SAPE   H9R14483   4.220  -0.804   9.922  0.1130  0.2627  2.1737
  134SAPE  C21014484   4.159  -0.729   9.728 -0.5988 -0.1023 -0.0817
  134SAPE  H10R14485   4.218  -0.819   9.701  2.3666  1.5806  0.3109
  134SAPE  H10S14486   4.216  -0.654   9.669  1.6211 -1.9689 -0.4656
  134SAPE  C21114487   4.016  -0.739   9.678 -0.0830 -0.4853 -0.4691
  134SAPE  H11R14488   3.940  -0.714   9.754 -0.3484  2.4917 -1.5495
  134SAPE  C21214489   3.979  -0.739   9.551 -0.4225 -0.0912  0.3555
  134SAPE  H12R14490   3.873  -0.720   9.532 -0.4308  1.6818  1.9529
  134SAPE  C21314491   4.068  -0.739   9.433  0.0119 -0.1318 -0.3004
  134SAPE  H13R14492   4.136  -0.827   9.441  2.1340  1.5376  1.0638
  134SAPE  H13S14493   4.132  -0.649   9.431 -1.8373  1.3214  1.5028
  134SAPE  C21414494   3.994  -0.754   9.304 -0.1733 -0.0777 -0.1919
  134SAPE  H14R14495   3.935  -0.665   9.278 -1.2096 -1.2976 -2.2680
  134SAPE  C21514496   3.988  -0.860   9.224 -0.5658 -0.0516  0.3080
  134SAPE  H15R14497   3.914  -0.846   9.144 -1.7724  1.2872  1.5837
  134SAPE  C21614498   4.052  -1.000   9.244  1.1675 -0.0859 -0.3882
  134SAPE  H16R14499   4.105  -1.013   9.341  0.5652 -1.7406 -0.2399
  134SAPE  H16S14500   4.137  -1.016   9.174  1.9503  0.9637  0.2981
  134SAPE  C21714501   3.938  -1.104   9.239 -0.3976  0.1798 -0.8133
  134SAPE  H17R14502   3.873  -1.070   9.323  1.0854 -0.5753  0.7004
  134SAPE  H17S14503   3.984  -1.196   9.280 -2.7183 -0.8209 -0.2844
  134SAPE  C21814504   3.864  -1.132   9.106 -0.4616  0.1970  0.2065
  134SAPE  H18R14505   3.909  -1.224   9.063  1.6939  1.8088 -1.1612
  134SAPE  H18S14506   3.878  -1.053   9.029  0.5130 -1.6099 -1.5798
  134SAPE  C21914507   3.719  -1.159   9.134 -0.3911  0.2881 -0.0697
  134SAPE  H19R14508   3.671  -1.070   9.181  0.1152 -1.4337  4.1231
  134SAPE  H19S14509   3.722  -1.235   9.215 -1.6305 -0.3200 -0.5752
  134SAPE  C22014510   3.648  -1.217   9.010 -0.7607 -0.1736  0.1337
  134SAPE  H20R14511   3.673  -1.325   8.998  0.0313 -0.2318  2.0634
  134SAPE  H20S14512   3.669  -1.160   8.917 -0.3608 -1.9251 -0.9147
  134SAPE  H20T14513   3.538  -1.214   9.027 -0.6150  3.0784  1.1251
  134SAPE   C3314514   4.558   0.041   9.906 -0.5525  0.1492 -0.2367
  134SAPE   H3X14515   4.610  -0.054   9.934  1.0030  0.6465 -1.3038
  134SAPE   H3Y14516   4.639   0.117   9.911 -0.5332  0.0564  1.9215
  134SAPE   C3414517   4.521   0.011   9.760  0.2315 -0.2724 -0.0990
  134SAPE   H4X14518   4.475   0.104   9.718  3.3686  1.2383 -0.5011
  134SAPE   H4Y14519   4.456  -0.078   9.753 -0.5645  0.3237 -0.5146
  134SAPE   C3514520   4.640  -0.015   9.675 -0.9161 -0.0111 -0.1498
  134SAPE   H5X14521   4.674  -0.114   9.713 -0.4595 -0.0298 -0.5999
  134SAPE   H5Y14522   4.720   0.062   9.678 -0.6192 -0.3382  0.5234
  134SAPE   C3614523   4.587  -0.028   9.531 -0.4619 -0.1326 -0.5776
  134SAPE   H6X14524   4.560   0.078   9.511  0.1909  0.2472  0.4962
  134SAPE   H6Y14525   4.489  -0.081   9.531 -1.1736  1.0684 -2.5112
  134SAPE   C3714526   4.694  -0.083   9.438 -0.4792 -0.2170  0.8012
  134SAPE   H7X14527   4.714  -0.189   9.462 -0.0957 -0.2467  0.3724
  134SAPE   H7Y14528   4.796  -0.038   9.446 -0.3129 -0.4959  0.2575
  134SAPE   C3814529   4.664  -0.065   9.284 -0.9434 -0.3546 -0.3153
  134SAPE   H8X14530   4.593  -0.142   9.246 -1.0467 -1.5469  2.0732
  134SAPE   H8Y14531   4.757  -0.083   9.226  0.6659  1.2160  1.6425
  134SAPE   C3914532   4.624   0.080   9.243  0.3830 -0.3528  0.0799
  134SAPE   H9X14533   4.691   0.150   9.298  0.7361  0.1245 -0.9312
  134SAPE   H9Y14534   4.517   0.093   9.270  0.4622  0.9229 -0.1468
  134SAPE  C31014535   4.632   0.107   9.090 -0.3555  0.7734  0.2390
  134SAPE  H10X14536   4.600   0.213   9.077 -2.1266  0.3107  0.5675
  134SAPE  H10Y14537   4.569   0.033   9.036  2.0217 -0.8195 -0.4909
  134SAPE  C31114538   4.773   0.091   9.033  0.1016  0.6989 -0.2353
  134SAPE  H11X14539   4.784  -0.018   9.015 -1.7165  0.7480 -2.1003
  134SAPE  H11Y14540   4.845   0.123   9.110  0.6125  0.6953 -0.7053
  134SAPE  C31214541   4.792   0.166   8.902 -0.0737  0.1208 -0.4016
  134SAPE  H12X14542   4.788   0.274   8.924 -0.1657 -0.1432  0.9500
  134SAPE  H12Y14543   4.708   0.133   8.837 -1.0246  0.6832  0.5193
  134SAPE  C31314544   4.914   0.114   8.832  0.4473  1.0969 -0.5900
  134SAPE  H13X14545   4.891   0.007   8.808 -0.1313  1.2208 -0.5946
  134SAPE  H13Y14546   4.997   0.108   8.905 -0.3808  1.3200  0.3845
  134SAPE  C31414547   4.944   0.199   8.713 -0.5332  0.4358 -0.1576
  134SAPE  H14X14548   4.919   0.304   8.735  2.5117  0.8820  1.8307
  134SAPE  H14Y14549   4.892   0.154   8.625 -1.6313  1.2497  0.0540
  134SAPE  C31514550   5.100   0.195   8.698  1.7732  0.0061  0.3511
  134SAPE  H15X14551   5.128   0.088   8.698 -1.3943 -0.9088 -0.3039
  134SAPE  H15Y14552   5.160   0.241   8.780  1.6671 -0.5766  0.7606
  134SAPE  C31614553   5.136   0.235   8.551  0.6259 -0.0714 -0.2441
  134SAPE  H16X14554   5.115   0.344   8.551  0.8536  0.0091  1.7391
  134SAPE  H16Y14555   5.073   0.181   8.477  3.3012 -5.9071  1.2039
  134SAPE  C31714556   5.277   0.196   8.515  0.1204  0.0131  0.4622
  134SAPE  H17X14557   5.310   0.090   8.522  1.7633  0.4594 -0.1612
  134SAPE  H17Y14558   5.332   0.264   8.583 -1.3834  2.2371 -0.3956
  134SAPE  C31814559   5.317   0.225   8.369 -0.4610  0.3152  0.4760
  134SAPE  H18X14560   5.317   0.329   8.329 -2.6046  0.6758  1.3227
  134SAPE  H18Y14561   5.260   0.165   8.294 -1.1209 -0.0750  1.2770
  134SAPE  H18Z14562   5.419   0.185   8.348 -0.0793  0.8915  1.1942
  135SAPE     N14563   1.261   5.289  10.592  0.4984  0.0678 -0.0839
  135SAPE   HN114564   1.353   5.335  10.607  1.2137 -0.0041 -3.6069
  135SAPE   HN214565   1.187   5.315  10.661 -1.4597 -0.0461 -2.0435
  135SAPE   HN314566   1.253   5.187  10.612 -0.5319  0.3416  1.0157
  135SAPE   C1214567   1.214   5.334  10.457  0.1866 -0.6850 -0.0169
  135SAPE  H12A14568   1.281   5.322  10.369  0.6633 -0.0452  0.2502
  135SAPE  H12B14569   1.192   5.443  10.460 -3.4201 -1.2913  0.5584
  135SAPE   C1114570   1.079   5.268  10.414 -0.3118 -0.0118  0.6308
  135SAPE  H11A14571   1.061   5.297  10.308 -0.1799  0.0231  0.6175
  135SAPE  H11B14572   0.996   5.320  10.465 -1.5570 -0.5095 -0.8167
  135SAPE     P14573   0.940   5.054  10.417 -0.0055  0.0029 -0.0873
  135SAPE   O1314574   0.942   4.931  10.496 -0.6024  0.0263 -0.0544
  135SAPE   O1414575   0.823   5.141  10.446  0.6585  0.1706 -0.6243
  135SAPE   O1214576   1.079   5.131  10.438 -0.2635 -0.0972  0.0279
  135SAPE   O1114577   0.931   5.027  10.265  0.0241 -0.4169 -1.0632
  135SAPE    C114578   1.026   5.047  10.159  1.1211  0.2162  0.3970
  135SAPE    HA14579   1.095   5.132  10.176  3.9362 -1.5242 -1.5320
  135SAPE    HB14580   1.088   4.957  10.141  1.8661  0.6390  0.8194
  135SAPE    C214581   0.957   5.079  10.020  0.0974 -0.3752  0.4418
  135SAPE    HS14582   0.879   5.158  10.034 -0.1466  0.4166 -3.8959
  135SAPE   O2114583   0.905   4.959   9.963 -0.0801  0.0670  0.0681
  135SAPE   C2114584   0.792   4.919  10.024  0.7692 -1.0363  0.3815
  135SAPE   O2214585   0.705   4.994  10.068 -0.1450  0.0882  0.1022
  135SAPE   C2214586   0.787   4.768  10.018 -0.0553  0.3510 -0.7005
  135SAPE   H2R14587   0.678   4.750  10.007  0.0647  0.2818 -1.9485
  135SAPE   H2S14588   0.841   4.726   9.930  0.6857  0.3858 -0.2722
  135SAPE    C314589   1.057   5.132   9.916  0.3811  0.1211  0.5037
  135SAPE    HX14590   0.999   5.168   9.829 -1.2914  3.0395  2.6599
  135SAPE    HY14591   1.124   5.050   9.882 -1.6204 -1.8668  1.1393
  135SAPE   O3114592   1.129   5.244   9.979 -0.3126  0.1728  0.3315
  135SAPE   C3114593   1.102   5.368   9.933 -0.8017 -0.3077  0.4042
  135SAPE   O3214594   1.008   5.399   9.861  0.3682  0.2017  0.9294
  135SAPE   C3214595   1.209   5.462   9.980  0.0203  0.0118  0.5090
  135SAPE   H2X14596   1.290   5.468   9.904 -1.0189  1.1335 -0.5573
  135SAPE   H2Y14597   1.258   5.437  10.076  0.1963  1.9261  0.9714
  135SAPE   C2314598   0.828   4.698  10.146 -0.2034  0.2599  0.4116
  135SAPE   H3R14599   0.774   4.740  10.234 -1.7329  0.1050 -0.4062
  135SAPE   H3S14600   0.931   4.731  10.170 -0.3577  1.9036 -0.9680
  135SAPE   C2414601   0.825   4.544  10.150 -0.0279 -0.2015  0.0707
  135SAPE   H4R14602   0.843   4.515  10.256 -0.3266 -0.6946 -0.0088
  135SAPE   H4S14603   0.913   4.505  10.094 -0.0217 -0.9691  0.6013
  135SAPE   C2514604   0.709   4.476  10.090  1.1677  0.7265 -0.5255
  135SAPE   H5R14605   0.619   4.491  10.150 -1.3821 -2.2999 -3.2059
  135SAPE   C2614606   0.702   4.401   9.977  0.7519  0.5813  0.1057
  135SAPE   H6R14607   0.602   4.356   9.965  0.0353  2.0056  0.4751
  135SAPE   C2714608   0.813   4.382   9.867 -0.2427 -0.4366 -0.2792
  135SAPE   H7R14609   0.808   4.279   9.825 -0.0470  0.4029 -2.4409
  135SAPE   H7S14610   0.917   4.385   9.906  0.2493  0.2885 -1.6091
  135SAPE   C2814611   0.809   4.499   9.758  0.0302 -0.1421  0.3165
  135SAPE   H8R14612   0.871   4.588   9.780  2.2731 -1.5867  0.1904
  135SAPE   C2914613   0.756   4.486   9.633 -0.0994  0.3238 -0.1014
  135SAPE   H9R14614   0.759   4.565   9.556 -0.9471 -0.9612 -1.5172
  135SAPE  C21014615   0.686   4.365   9.580 -0.2199  0.6633 -0.0156
  135SAPE  H10R14616   0.719   4.276   9.639 -1.3814  0.2823  0.1002
  135SAPE  H10S14617   0.737   4.353   9.482  1.8236  0.6234  1.0069
  135SAPE  C21114618   0.535   4.365   9.582 -0.0621 -0.0511  0.0211
  135SAPE  H11R14619   0.480   4.337   9.673 -1.3065  0.4668 -0.5384
  135SAPE  C21214620   0.469   4.440   9.495 -0.3958  0.1560 -0.2938
  135SAPE  H12R14621   0.360   4.430   9.502 -0.3313 -2.1881 -1.7798
  135SAPE  C21314622   0.524   4.517   9.378 -0.3741 -0.2317 -0.0070
  135SAPE  H13R14623   0.628   4.480   9.365 -0.4034  0.3537 -2.6363
  135SAPE  H13S14624   0.536   4.625   9.401  2.6552 -0.3230 -0.7000
  135SAPE  C21414625   0.464   4.513   9.242 -0.1715 -0.5266 -0.5208
  135SAPE  H14R14626   0.408   4.604   9.214  0.7379  0.4525  0.7056
  135SAPE  C21514627   0.489   4.435   9.143  0.1437  1.1023  0.4544
  135SAPE  H15R14628   0.427   4.433   9.051 -0.2946 -1.3875  0.7567
  135SAPE  C21614629   0.584   4.326   9.141  0.0330 -0.0876  0.3458
  135SAPE  H16R14630   0.538   4.240   9.089 -2.4661  1.2777  0.1488
  135SAPE  H16S14631   0.603   4.290   9.244  0.1405  1.2464  0.8075
  135SAPE  C21714632   0.716   4.360   9.070 -0.4571  0.4696  0.9131
  135SAPE  H17R14633   0.779   4.269   9.075  1.1162  1.5245  1.1257
  135SAPE  H17S14634   0.776   4.443   9.114 -0.6177  0.8693  0.3839
  135SAPE  C21814635   0.696   4.387   8.918 -0.1054  0.1089  0.7285
  135SAPE  H18R14636   0.633   4.478   8.918 -1.3111 -0.6906 -0.1182
  135SAPE  H18S14637   0.638   4.300   8.880  0.2996 -0.0596  0.4988
  135SAPE  C21914638   0.825   4.422   8.847  0.1378  0.0770  0.2173
  135SAPE  H19R14639   0.892   4.338   8.876 -0.3751  0.5906  3.2302
  135SAPE  H19S14640   0.861   4.511   8.901 -0.7580  0.5725  0.0216
  135SAPE  C22014641   0.807   4.465   8.698  0.2048 -0.1692  0.3254
  135SAPE  H20R14642   0.741   4.554   8.690  0.2027 -0.0203  1.6413
  135SAPE  H20S14643   0.751   4.392   8.635  1.0267 -0.8834  0.4060
  135SAPE  H20T14644   0.908   4.492   8.660 -0.2594  0.4387 -0.4803
  135SAPE   C3314645   1.160   5.609   9.991  0.2945 -0.4153 -0.4331
  135SAPE   H3X14646   1.094   5.635  10.077  1.0413  4.1769 -0.9924
  135SAPE   H3Y14647   1.092   5.630   9.905 -0.1230 -0.2786 -0.0749
  135SAPE   C3414648   1.273   5.707  10.004 -0.4726  0.8262  0.2203
  135SAPE   H4X14649   1.350   5.659  10.069 -1.5808 -0.4655  0.6306
  135SAPE   H4Y14650   1.240   5.792  10.068  0.0727  3.4202 -2.7191
  135SAPE   C3514651   1.332   5.771   9.875 -0.1689  0.6971  0.1367
  135SAPE   H5X14652   1.428   5.819   9.903 -0.6846  1.6118  0.3662
  135SAPE   H5Y14653   1.260   5.852   9.853 -0.1577  0.7187  0.1808
  135SAPE   C3614654   1.331   5.679   9.752 -0.0100 -0.0429  0.5294
  135SAPE   H6X14655   1.235   5.629   9.727  0.1644 -0.4807  0.7197
  135SAPE   H6Y14656   1.410   5.601   9.760 -0.1726 -0.1377  1.2278
  135SAPE   C3714657   1.357   5.765   9.624  0.2278 -1.1999 -0.1704
  135SAPE   H7X14658   1.458   5.810   9.637  1.3862 -3.1352 -1.9200
  135SAPE   H7Y14659   1.278   5.842   9.617 -0.8332 -2.3642 -1.4742
  135SAPE   C3814660   1.359   5.683   9.495 -0.6562 -0.1489  0.6682
  135SAPE   H8X14661   1.261   5.634   9.474  0.3484 -2.2940  0.7377
  135SAPE   H8Y14662   1.435   5.603   9.503 -0.2672 -0.1050 -1.9204
  135SAPE   C3914663   1.408   5.783   9.380  0.5076  0.2413  0.0364
  135SAPE   H9X14664   1.463   5.859   9.439 -0.2927  0.1054  0.9743
  135SAPE   H9Y14665   1.324   5.838   9.332 -1.0193 -0.9977  1.2030
  135SAPE  C31014666   1.502   5.712   9.286 -0.4962  0.1252  0.4897
  135SAPE  H10X14667   1.461   5.624   9.233 -0.8226  0.9105 -0.5750
  135SAPE  H10Y14668   1.595   5.683   9.340  0.7460 -1.3239 -2.2046
  135SAPE  C31114669   1.538   5.806   9.173  0.4687  0.6005 -0.0461
  135SAPE  H11X14670   1.606   5.884   9.213  0.7359 -0.1450  1.0075
  135SAPE  H11Y14671   1.445   5.857   9.141  0.2407 -0.4126 -1.0749
  135SAPE  C31214672   1.602   5.746   9.054  0.1670  0.2333 -0.0660
  135SAPE  H12X14673   1.520   5.694   9.001 -0.6749  1.5852 -0.1364
  135SAPE  H12Y14674   1.687   5.678   9.073 -1.1079 -2.0723 -2.1003
  135SAPE  C31314675   1.637   5.857   8.951  0.2343 -0.7281 -0.1630
  135SAPE  H13X14676   1.698   5.939   8.995 -0.6754 -0.2103  0.1559
  135SAPE  H13Y14677   1.545   5.898   8.904  0.7483  0.6419 -0.0208
  135SAPE  C31414678   1.730   5.799   8.852  0.0574  0.6400 -0.4237
  135SAPE  H14X14679   1.698   5.695   8.832  0.2223  0.1674  1.6000
  135SAPE  H14Y14680   1.829   5.798   8.903 -0.9867  2.0548  1.7727
  135SAPE  C31514681   1.747   5.874   8.715  0.8244 -0.3202 -0.2293
  135SAPE  H15X14682   1.803   5.967   8.741  1.4018 -0.6600 -0.2447
  135SAPE  H15Y14683   1.648   5.886   8.667  0.8659 -1.9582 -0.7860
  135SAPE  C31614684   1.839   5.794   8.616 -0.4736 -0.2248 -0.2082
  135SAPE  H16X14685   1.797   5.692   8.622 -1.5840  0.2549  0.6536
  135SAPE  H16Y14686   1.944   5.795   8.651 -0.5143 -1.9144  0.0265
  135SAPE  C31714687   1.850   5.856   8.479  0.1119  0.4952 -0.6427
  135SAPE  H17X14688   1.844   5.967   8.476 -0.5397  0.4415 -2.3879
  135SAPE  H17Y14689   1.763   5.819   8.420 -0.6653 -0.2137  0.8944
  135SAPE  C31814690   1.981   5.821   8.408 -0.0168  0.5107  0.3643
  135SAPE  H18X14691   2.066   5.874   8.456  0.1451  1.5848 -1.0299
  135SAPE  H18Y14692   1.981   5.866   8.306  3.3284  2.7170  1.2038
  135SAPE  H18Z14693   2.007   5.713   8.404  3.4850  1.2960 -1.2427
  136SAPE     N14694   6.253   5.747  10.812 -0.2089 -0.3481 -0.1270
  136SAPE   HN114695   6.162   5.799  10.811 -1.5524 -2.5498 -2.4692
  136SAPE   HN214696   6.338   5.806  10.824  0.9777 -2.2674  1.4544
  136SAPE   HN314697   6.252   5.713  10.714 -1.6576 -0.5014 -0.0800
  136SAPE   C1214698   6.252   5.633  10.906  0.2916 -0.7849  0.3058
  136SAPE  H12A14699   6.225   5.671  11.007  0.4004  0.2678 -0.0540
  136SAPE  H12B14700   6.352   5.586  10.918  0.1958 -0.8559  0.8446
  136SAPE   C1114701   6.157   5.526  10.861  0.5626 -0.1148 -0.1417
  136SAPE  H11A14702   6.065   5.579  10.827  0.2186 -0.8058 -0.2951
  136SAPE  H11B14703   6.134   5.463  10.949 -0.1658 -0.1356 -0.3463
  136SAPE     P14704   6.253   5.290  10.768 -0.0351  0.0160  0.0158
  136SAPE   O1314705   6.378   5.291  10.847 -0.0669  0.4550 -0.1381
  136SAPE   O1414706   6.140   5.201  10.816  0.1795  0.1247  0.1164
  136SAPE   O1214707   6.205   5.445  10.752 -0.1009 -0.2467 -0.1519
  136SAPE   O1114708   6.287   5.256  10.619  0.1958 -0.1595  0.1074
  136SAPE    C114709   6.398   5.324  10.550 -0.1171  0.3443 -0.2243
  136SAPE    HA14710   6.379   5.432  10.533  1.3762  0.7436  0.4575
  136SAPE    HB14711   6.485   5.326  10.619 -0.8804 -0.7839  0.8321
  136SAPE    C214712   6.436   5.244  10.425 -0.6281 -1.3441  0.4781
  136SAPE    HS14713   6.541   5.273  10.401 -1.2497 -0.5479 -1.4048
  136SAPE   O2114714   6.343   5.273  10.320  0.3102  0.3286  0.0054
  136SAPE   C2114715   6.358   5.381  10.250 -0.2002 -0.1701  0.3818
  136SAPE   O2214716   6.451   5.463  10.261  0.2306 -0.5696 -0.3143
  136SAPE   C2214717   6.264   5.375  10.136  0.2819 -0.1756  0.1408
  136SAPE   H2R14718   6.291   5.274  10.098  0.0004  0.7325 -2.6683
  136SAPE   H2S14719   6.156   5.365  10.163  0.1506  0.0721 -0.2867
  136SAPE    C314720   6.452   5.093  10.432  0.1648  0.0022  0.3885
  136SAPE    HX14721   6.351   5.052  10.454 -0.4938 -1.1130 -3.8620
  136SAPE    HY14722   6.529   5.054  10.502 -1.1309 -1.4133  1.1071
  136SAPE   O3114723   6.480   5.039  10.295  0.2487  0.0747  0.6194
  136SAPE   C3114724   6.609   5.036  10.256  0.3492  0.4914  0.0763
  136SAPE   O3214725   6.704   5.071  10.324 -0.2908 -0.0689  0.2140
  136SAPE   C3214726   6.621   4.961  10.119  0.2637 -0.7848  0.2739
  136SAPE   H2X14727   6.695   5.017  10.059  0.3377  0.0048  1.0777
  136SAPE   H2Y14728   6.522   4.983  10.074 -0.7253  1.1751  3.1218
  136SAPE   C2314729   6.301   5.484  10.030  0.4487 -0.5049 -0.3381
  136SAPE   H3R14730   6.412   5.490  10.021  0.3466  0.7534 -0.8874
  136SAPE   H3S14731   6.264   5.579  10.074  0.2658 -0.5982 -0.2889
  136SAPE   C2414732   6.241   5.459   9.892 -0.0333 -0.6225 -0.2880
  136SAPE   H4R14733   6.265   5.354   9.865 -1.1781 -1.0302  0.2106
  136SAPE   H4S14734   6.283   5.530   9.819  1.9504  0.1933  1.5340
  136SAPE   C2514735   6.094   5.491   9.893  0.3992  0.4282 -0.2329
  136SAPE   H5R14736   6.041   5.434   9.970  2.7362 -0.7512  0.5967
  136SAPE   C2614737   6.032   5.577   9.808  0.9607  0.2927 -0.2045
  136SAPE   H6R14738   5.922   5.587   9.815  0.9902 -0.0839  1.1131
  136SAPE   C2714739   6.102   5.644   9.696 -0.2495  0.1207 -0.5578
  136SAPE   H7R14740   6.157   5.566   9.640  2.2246  2.3051 -1.4002
  136SAPE   H7S14741   6.190   5.701   9.734 -2.4242  2.5563  1.2888
  136SAPE   C2814742   6.003   5.724   9.610  0.1941  0.3614 -0.2189
  136SAPE   H8R14743   5.928   5.777   9.671  1.0273  1.0504  0.2141
  136SAPE   C2914744   6.000   5.734   9.477  0.0465 -0.1294  0.8077
  136SAPE   H9R14745   5.923   5.792   9.425  0.0112 -2.6228 -2.1978
  136SAPE  C21014746   6.095   5.677   9.376  0.1779 -0.0379  0.0854
  136SAPE  H10R14747   6.177   5.635   9.437 -0.8436  0.4871  1.8702
  136SAPE  H10S14748   6.145   5.756   9.315 -0.1051 -0.7287 -1.0691
  136SAPE  C21114749   6.036   5.580   9.277  0.1322 -0.5200  0.6823
  136SAPE  H11R14750   5.936   5.603   9.237  0.7300  0.3342 -0.3939
  136SAPE  C21214751   6.086   5.458   9.235 -0.3500  0.8351 -0.2777
  136SAPE  H12R14752   6.036   5.402   9.155 -0.8704 -1.5603  1.5899
  136SAPE  C21314753   6.207   5.384   9.287  0.5363 -0.9848 -0.1377
  136SAPE  H13R14754   6.292   5.448   9.258  0.4162 -0.9960 -0.5170
  136SAPE  H13S14755   6.211   5.295   9.220 -0.4140  0.6679 -2.5318
  136SAPE  C21414756   6.207   5.352   9.432  0.6122  0.2365  0.5207
  136SAPE  H14R14757   6.126   5.399   9.489 -1.2208 -2.2478  0.1214
  136SAPE  C21514758   6.299   5.285   9.500  0.0974  0.1776  0.3912
  136SAPE  H15R14759   6.285   5.254   9.605  2.2183 -2.5654 -0.0079
  136SAPE  C21614760   6.428   5.231   9.435  0.0121  0.5341  0.0764
  136SAPE  H16R14761   6.426   5.243   9.325 -1.2430  0.3215  0.0695
  136SAPE  H16S14762   6.457   5.125   9.454  0.6760  0.6123 -0.4694
  136SAPE  C21714763   6.554   5.306   9.465 -0.0773 -0.2999  0.0649
  136SAPE  H17R14764   6.543   5.413   9.436  1.6895 -0.2539 -0.5420
  136SAPE  H17S14765   6.643   5.271   9.409  0.2792  1.4599 -0.5499
  136SAPE  C21814766   6.584   5.325   9.611  0.2304 -0.0127  0.3666
  136SAPE  H18R14767   6.488   5.360   9.652 -0.0870  1.9271 -1.8409
  136SAPE  H18S14768   6.655   5.410   9.614 -2.1444  2.0372  1.0215
  136SAPE  C21914769   6.642   5.199   9.679 -0.8758  0.0398 -0.2133
  136SAPE  H19R14770   6.555   5.134   9.703 -1.4265  0.6427 -0.5483
  136SAPE  H19S14771   6.684   5.220   9.779 -1.8316 -1.6252  0.5937
  136SAPE  C22014772   6.751   5.109   9.617  0.8365 -0.6234  0.7949
  136SAPE  H20R14773   6.758   5.013   9.672  1.6876 -0.5145  0.8845
  136SAPE  H20S14774   6.853   5.153   9.613  0.3961  0.6125  2.1160
  136SAPE  H20T14775   6.715   5.089   9.514  1.0594 -0.1015  0.6125
  136SAPE   C3314776   6.665   4.816  10.127  0.2316 -0.3431  0.3005
  136SAPE   H3X14777   6.585   4.757  10.175 -1.5135  1.3623 -0.3866
  136SAPE   H3Y14778   6.750   4.810  10.199  0.5218  0.8051  0.0754
  136SAPE   C3414779   6.689   4.746   9.993 -0.3636  0.3755  1.0779
  136SAPE   H4X14780   6.752   4.793   9.913 -1.8733 -0.3899 -0.6233
  136SAPE   H4Y14781   6.591   4.731   9.944 -0.7772 -0.0349  2.0238
  136SAPE   C3514782   6.754   4.607  10.020  0.3663  0.3599 -0.4356
  136SAPE   H5X14783   6.692   4.560  10.100  0.0558 -2.3197 -2.1192
  136SAPE   H5Y14784   6.856   4.625  10.060  0.7576  1.3033 -1.8197
  136SAPE   C3614785   6.749   4.517   9.892  0.4852  0.2874 -0.2733
  136SAPE   H6X14786   6.643   4.489   9.874  0.8532 -2.1355  0.8136
  136SAPE   H6Y14787   6.799   4.419   9.910 -0.4835 -0.1657  0.0418
  136SAPE   C3714788   6.812   4.588   9.776 -0.4506  0.2813  0.3695
  136SAPE   H7X14789   6.912   4.628   9.804  0.5647 -1.7930 -0.1126
  136SAPE   H7Y14790   6.740   4.670   9.756 -0.1364  0.6486  0.7098
  136SAPE   C3814791   6.833   4.491   9.656  0.1701 -0.3548  0.0389
  136SAPE   H8X14792   6.737   4.488   9.600 -0.0716  0.1499  0.4222
  136SAPE   H8Y14793   6.863   4.388   9.686 -0.7871 -0.3060  1.2255
  136SAPE   C3914794   6.943   4.556   9.567 -0.1700  0.0491 -0.4450
  136SAPE   H9X14795   6.960   4.490   9.478 -0.5584 -1.3597  0.4842
  136SAPE   H9Y14796   7.031   4.558   9.635 -0.2396 -0.3095 -0.3384
  136SAPE  C31014797   6.908   4.695   9.512 -0.4433 -0.2315 -0.3548
  136SAPE  H10X14798   6.876   4.759   9.596  0.1522  0.5360 -0.6973
  136SAPE  H10Y14799   6.822   4.692   9.442 -3.1793 -0.3901  2.7442
  136SAPE  C31114800   7.025   4.753   9.443  0.5639  0.5216  0.9893
  136SAPE  H11X14801   7.046   4.706   9.344 -0.1162  2.5873 -0.1938
  136SAPE  H11Y14802   7.113   4.730   9.507  1.1971  0.1467  0.0012
  136SAPE  C31214803   7.014   4.896   9.400  0.4518  0.2620  0.0214
  136SAPE  H12X14804   7.111   4.931   9.359  0.9460 -1.1261 -0.0293
  136SAPE  H12Y14805   6.999   4.965   9.486 -0.9586 -0.9474  0.8005
  136SAPE  C31314806   6.905   4.919   9.303  0.3825 -0.1471  0.2454
  136SAPE  H13X14807   6.809   4.913   9.359 -0.4608 -0.2371 -1.1575
  136SAPE  H13Y14808   6.895   4.830   9.237  1.2086 -2.7587  3.3347
  136SAPE  C31414809   6.912   5.051   9.231 -0.2752 -0.7145 -0.1124
  136SAPE  H14X14810   6.996   5.051   9.159  0.5808  0.7488  0.8277
  136SAPE  H14Y14811   6.916   5.141   9.297 -1.3218 -0.0760 -0.8786
  136SAPE  C31514812   6.778   5.086   9.156  0.0912 -0.3404 -0.4586
  136SAPE  H15X14813   6.695   5.101   9.229  0.3974  1.6780 -0.4670
  136SAPE  H15Y14814   6.762   5.003   9.084  0.3212 -0.4150 -0.4249
  136SAPE  C31614815   6.796   5.218   9.080  0.3814  0.1918  0.1241
  136SAPE  H16X14816   6.884   5.223   9.013 -0.7793  0.8920 -1.4336
  136SAPE  H16Y14817   6.816   5.293   9.158 -3.9764  0.9229  0.7999
  136SAPE  C31714818   6.669   5.259   9.014  0.1381  0.0109  0.4073
  136SAPE  H17X14819   6.667   5.368   8.995 -0.7207 -0.0444  0.1067
  136SAPE  H17Y14820   6.576   5.245   9.075  0.3782 -2.3879  0.3494
  136SAPE  C31814821   6.649   5.171   8.891  0.2936  0.1720 -0.2256
  136SAPE  H18X14822   6.726   5.174   8.812 -1.1174 -2.1868 -1.8207
  136SAPE  H18Y14823   6.547   5.187   8.848 -0.2372  0.0856  0.9504
  136SAPE  H18Z14824   6.657   5.064   8.920 -0.4844  0.7341  2.4177
  137SAPE     N14825   3.174   0.690  10.974  0.4226  0.4849 -0.4335
  137SAPE   HN114826   3.232   0.616  11.020 -0.0352  1.5487  1.9628
  137SAPE   HN214827   3.168   0.672  10.871 -1.3532  1.4663 -0.5308
  137SAPE   HN314828   3.223   0.780  10.989 -0.9269  1.1928 -0.1454
  137SAPE   C1214829   3.044   0.710  11.044  0.4248  0.1095 -0.0655
  137SAPE  H12A14830   2.998   0.807  11.017 -0.7463 -0.1706  0.8347
  137SAPE  H12B14831   3.066   0.716  11.153  1.0042 -2.2955  0.0110
  137SAPE   C1114832   2.948   0.589  11.015 -0.0779 -0.2197  0.0555
  137SAPE  H11A14833   2.853   0.618  11.067  0.0943  0.6821 -0.1153
  137SAPE  H11B14834   2.993   0.499  11.062 -0.0743  0.0357  0.5542
  137SAPE     P14835   2.828   0.653  10.799  0.1335 -0.0483  0.3214
  137SAPE   O1314836   2.707   0.578  10.772 -0.4991 -0.0765 -0.5428
  137SAPE   O1414837   2.813   0.780  10.874  0.0217 -0.0981  0.2230
  137SAPE   O1214838   2.926   0.555  10.879 -0.0369 -0.3169 -0.3006
  137SAPE   O1114839   2.914   0.670  10.667 -0.7223  0.2836  0.3245
  137SAPE    C114840   2.865   0.622  10.542  0.1867  0.1611  0.2542
  137SAPE    HA14841   2.755   0.632  10.534  0.1934 -0.2157 -0.4337
  137SAPE    HB14842   2.894   0.696  10.464 -3.2548  1.0214 -0.3691
  137SAPE    C214843   2.923   0.485  10.520  0.3383  0.7103 -0.3273
  137SAPE    HS14844   2.900   0.425  10.610  1.2176  0.2160 -0.4161
  137SAPE   O2114845   3.068   0.480  10.484 -0.1715 -0.2379  0.1749
  137SAPE   C2114846   3.133   0.389  10.548 -0.1377 -0.1354 -0.0293
  137SAPE   O2214847   3.087   0.305  10.624  0.5340  0.7664 -0.2472
  137SAPE   C2214848   3.283   0.415  10.533  0.3946 -0.5575 -0.1616
  137SAPE   H2R14849   3.302   0.493  10.457 -0.1954  1.1298  1.3359
  137SAPE   H2S14850   3.316   0.450  10.634 -1.0299 -0.6671  0.3541
  137SAPE    C314851   2.844   0.408  10.398  0.2835  0.8714 -0.0390
  137SAPE    HX14852   2.740   0.380  10.428  0.6986 -0.9502 -0.1634
  137SAPE    HY14853   2.901   0.317  10.371  1.6296  1.7405 -0.1942
  137SAPE   O3114854   2.841   0.489  10.275  0.1732 -0.0094 -0.1594
  137SAPE   C3114855   2.729   0.559  10.254 -0.2910 -0.3730  0.4376
  137SAPE   O3214856   2.628   0.557  10.316  0.2950  0.0742  0.3181
  137SAPE   C3214857   2.751   0.645  10.128 -0.2506  0.5417 -0.1178
  137SAPE   H2X14858   2.828   0.597  10.063  0.1360  2.2260 -0.9532
  137SAPE   H2Y14859   2.795   0.741  10.160 -1.0059  2.5601 -4.4010
  137SAPE   C2314860   3.369   0.289  10.517  0.3880 -0.5931  0.1962
  137SAPE   H3R14861   3.353   0.218  10.601  0.3994 -1.2656 -0.3574
  137SAPE   H3S14862   3.471   0.330  10.531 -0.9748  3.1332  0.1116
  137SAPE   C2414863   3.355   0.215  10.381  0.3581  0.4731  0.1647
  137SAPE   H4R14864   3.442   0.145  10.380 -0.3719 -0.5269  2.0784
  137SAPE   H4S14865   3.375   0.292  10.303 -0.8803 -0.4147 -1.0732
  137SAPE   C2514866   3.229   0.130  10.350 -0.3588 -0.0824  0.4050
  137SAPE   H5R14867   3.186   0.077  10.437  1.0329 -1.6300  0.2103
  137SAPE   C2614868   3.164   0.127  10.234 -0.7485  0.2862  0.4396
  137SAPE   H6R14869   3.067   0.076  10.235  0.9280 -3.2059 -0.6500
  137SAPE   C2714870   3.197   0.192  10.100  0.2078 -0.3724 -0.6807
  137SAPE   H7R14871   3.284   0.260  10.111  0.6021 -1.1165  1.5812
  137SAPE   H7S14872   3.105   0.251  10.081  1.5932  0.8057 -4.6909
  137SAPE   C2814873   3.207   0.091   9.989 -0.0970 -0.7969  0.2395
  137SAPE   H8R14874   3.126   0.016   9.992 -0.2300 -0.6377  0.8128
  137SAPE   C2914875   3.305   0.073   9.894  0.6424 -0.9427 -0.5353
  137SAPE   H9R14876   3.276  -0.012   9.831 -1.8532 -1.0166  0.5859
  137SAPE  C21014877   3.419   0.163   9.858 -0.5627 -0.0056 -0.1000
  137SAPE  H10R14878   3.510   0.102   9.841 -0.5970 -0.5354  1.4325
  137SAPE  H10S14879   3.430   0.249   9.928 -1.6207 -0.2350  0.3626
  137SAPE  C21114880   3.380   0.233   9.730  0.0882 -0.5734 -0.4910
  137SAPE  H11R14881   3.288   0.293   9.731  0.5442  0.1906  2.1198
  137SAPE  C21214882   3.460   0.233   9.619  0.6326  0.6754  0.3865
  137SAPE  H12R14883   3.424   0.287   9.530  1.4385  0.7336  0.0908
  137SAPE  C21314884   3.594   0.171   9.602  0.5727 -0.6472  0.2373
  137SAPE  H13R14885   3.578   0.061   9.612  0.1763 -0.7460 -1.2038
  137SAPE  H13S14886   3.647   0.202   9.695 -4.0558 -0.2242  3.0425
  137SAPE  C21414887   3.681   0.188   9.483  0.7902  0.7131 -0.0524
  137SAPE  H14R14888   3.745   0.277   9.486 -1.4186  2.3457  1.2045
  137SAPE  C21514889   3.699   0.097   9.387  0.1259 -0.5651  0.2526
  137SAPE  H15R14890   3.755   0.128   9.298 -0.1895  0.1601  0.3040
  137SAPE  C21614891   3.631  -0.037   9.373  0.2515  0.4236  0.2469
  137SAPE  H16R14892   3.561  -0.056   9.457  1.2159  3.1100  1.7637
  137SAPE  H16S14893   3.709  -0.117   9.369  0.4067  0.6065 -0.5162
  137SAPE  C21714894   3.564  -0.055   9.237  0.2896 -0.8592  0.0919
  137SAPE  H17R14895   3.520   0.042   9.204  1.9762 -0.6239 -1.6244
  137SAPE  H17S14896   3.475  -0.122   9.246 -0.5917  0.0242 -1.5688
  137SAPE  C21814897   3.649  -0.105   9.112 -0.3447 -0.0980  0.0195
  137SAPE  H18R14898   3.687  -0.205   9.142  0.5590 -0.1197 -1.1330
  137SAPE  H18S14899   3.740  -0.041   9.111 -1.4632  1.5904  0.9775
  137SAPE  C21914900   3.576  -0.115   8.980  0.4652 -0.2993 -0.3892
  137SAPE  H19R14901   3.538  -0.017   8.943  0.7538 -0.1559 -0.3057
  137SAPE  H19S14902   3.489  -0.184   8.993  0.8375 -0.6889  0.0519
  137SAPE  C22014903   3.674  -0.178   8.877  0.1135 -0.1825 -0.5990
  137SAPE  H20R14904   3.634  -0.200   8.776 -0.6811  0.0371 -0.3358
  137SAPE  H20S14905   3.704  -0.275   8.923  1.4217  0.6266  0.3390
  137SAPE  H20T14906   3.764  -0.113   8.868  1.1150 -1.6208 -1.2480
  137SAPE   C3314907   2.622   0.679  10.056  0.7285 -0.0296  0.6258
  137SAPE   H3X14908   2.532   0.666  10.121  0.3942 -0.0538  0.1667
  137SAPE   H3Y14909   2.604   0.591   9.990 -0.5645 -1.4314  2.7335
  137SAPE   C3414910   2.637   0.800   9.957 -0.6422 -0.3002  0.3536
  137SAPE   H4X14911   2.689   0.877  10.019 -0.8192 -0.8211  1.1671
  137SAPE   H4Y14912   2.537   0.831   9.919  0.3714  0.6482 -1.6625
  137SAPE   C3514913   2.722   0.773   9.834 -0.0195  0.4326  0.1771
  137SAPE   H5X14914   2.675   0.679   9.799  1.9714  0.1993 -2.0792
  137SAPE   H5Y14915   2.823   0.735   9.859  0.8393  2.5470  0.1323
  137SAPE   C3614916   2.716   0.871   9.720  0.3593 -0.0320  0.1709
  137SAPE   H6X14917   2.786   0.953   9.745  2.1912 -1.7583  0.8887
  137SAPE   H6Y14918   2.607   0.893   9.716  0.4005  0.3282  0.8667
  137SAPE   C3714919   2.762   0.801   9.591 -0.9313 -0.2729  0.1200
  137SAPE   H7X14920   2.672   0.742   9.563 -1.0713  0.2244 -0.5105
  137SAPE   H7Y14921   2.840   0.725   9.612 -1.1180 -0.9159 -1.4103
  137SAPE   C3814922   2.800   0.905   9.488 -0.2045  0.5067  0.0894
  137SAPE   H8X14923   2.865   0.985   9.530  1.4321 -0.3424 -0.7493
  137SAPE   H8Y14924   2.705   0.945   9.446 -0.7752 -0.9805 -0.0941
  137SAPE   C3914925   2.897   0.852   9.387 -0.2559  0.1184 -0.6550
  137SAPE   H9X14926   2.853   0.766   9.331  0.6461 -0.6585 -0.1899
  137SAPE   H9Y14927   2.979   0.813   9.450 -1.0056  0.3072  0.4651
  137SAPE  C31014928   2.922   0.970   9.290  0.6929  0.4325 -0.2498
  137SAPE  H10X14929   2.985   1.045   9.342 -0.9779  1.7849 -0.0806
  137SAPE  H10Y14930   2.833   1.033   9.267  0.0236 -0.2177  0.4659
  137SAPE  C31114931   2.981   0.923   9.167 -0.4937 -0.4410 -0.0779
  137SAPE  H11X14932   2.911   0.859   9.110 -0.2243  0.0505 -0.9665
  137SAPE  H11Y14933   3.071   0.866   9.197  1.1427  2.5062  1.0202
  137SAPE  C31214934   3.032   1.042   9.082  0.0194  0.4022  0.5182
  137SAPE  H12X14935   3.106   1.104   9.136 -0.4853  1.5828 -0.1050
  137SAPE  H12Y14936   2.936   1.091   9.054 -1.7961 -3.7491 -1.3945
  137SAPE  C31314937   3.094   1.002   8.942  0.3254 -0.3603 -0.0662
  137SAPE  H13X14938   3.008   0.981   8.875  1.4985 -2.2148 -1.0678
  137SAPE  H13Y14939   3.167   0.919   8.944  0.3006 -0.3746  2.0079
  137SAPE  C31414940   3.167   1.126   8.883  0.3933 -0.0125 -0.8719
  137SAPE  H14X14941   3.234   1.161   8.964  0.2735 -0.0086 -0.7724
  137SAPE  H14Y14942   3.099   1.212   8.863  1.1976  1.0759  0.8356
  137SAPE  C31514943   3.245   1.098   8.750 -0.2043 -0.5321 -0.1087
  137SAPE  H15X14944   3.177   1.094   8.662 -2.5641  2.5512  1.3766
  137SAPE  H15Y14945   3.311   1.009   8.752 -0.0096 -0.5598 -2.9561
  137SAPE  C31614946   3.335   1.217   8.712 -0.0005  0.4016  0.5228
  137SAPE  H16X14947   3.362   1.277   8.802 -0.2318 -0.5380  1.2337
  137SAPE  H16Y14948   3.273   1.289   8.654 -0.5579  1.1842  2.0229
  137SAPE  C31714949   3.463   1.177   8.636 -0.3243  0.2546  0.0822
  137SAPE  H17X14950   3.436   1.099   8.562  1.1873 -0.5865  0.3826
  137SAPE  H17Y14951   3.525   1.113   8.703 -0.6617  0.1317  0.2824
  137SAPE  C31814952   3.538   1.293   8.587  0.4588 -0.6539  0.0302
  137SAPE  H18X14953   3.468   1.363   8.537 -0.5010 -1.9768 -0.5337
  137SAPE  H18Y14954   3.613   1.266   8.509  0.5217 -0.9291  0.1891
  137SAPE  H18Z14955   3.583   1.347   8.673 -0.4876 -0.3823  0.3660
  138SAPE     N14956   6.414   3.374  10.636  0.0275 -0.7710  0.6341
  138SAPE   HN114957   6.477   3.424  10.570 -0.5286  0.5901  1.0888
  138SAPE   HN214958   6.470   3.365  10.722  1.8977 -1.3234 -0.5808
  138SAPE   HN314959   6.408   3.278  10.595  0.4044 -0.8211  0.7006
  138SAPE   C1214960   6.290   3.459  10.645 -0.6780  0.0097  0.5843
  138SAPE  H12A14961   6.281   3.522  10.554 -0.8157 -0.1000  0.5206
  138SAPE  H12B14962   6.309   3.527  10.731 -0.5037  1.1356 -0.3077
  138SAPE   C1114963   6.169   3.377  10.688 -0.1955 -0.3530 -0.1091
  138SAPE  H11A14964   6.154   3.289  10.622 -2.8508  0.0426 -0.1284
  138SAPE  H11B14965   6.085   3.450  10.683  0.5805  0.5639 -0.0951
  138SAPE     P14966   6.181   3.197  10.870  0.0683  0.4116  0.1489
  138SAPE   O1314967   6.317   3.147  10.858 -0.3735  0.5497 -0.7022
  138SAPE   O1414968   6.124   3.198  11.008  0.2602  0.2346  0.6190
  138SAPE   O1214969   6.187   3.345  10.824 -0.1212 -0.1579 -0.4792
  138SAPE   O1114970   6.083   3.112  10.778  0.2164 -0.6010 -0.3083
  138SAPE    C114971   5.943   3.143  10.778  0.6471  0.4576 -0.4155
  138SAPE    HA14972   5.898   3.167  10.877  1.1020  3.9156 -0.9252
  138SAPE    HB14973   5.938   3.236  10.718  3.0243 -1.4505 -3.8913
  138SAPE    C214974   5.851   3.040  10.704  0.0035 -0.5818 -1.1061
  138SAPE    HS14975   5.889   2.939  10.733 -0.2246 -0.1964  0.6432
  138SAPE   O2114976   5.869   3.060  10.564  0.0774  0.1671 -0.5267
  138SAPE   C2114977   5.835   2.968  10.478 -0.3248  0.1302  0.2699
  138SAPE   O2214978   5.804   2.855  10.508  0.0667  0.3777  0.2530
  138SAPE   C2214979   5.851   3.014  10.330 -0.0315 -0.1884  0.5259
  138SAPE   H2R14980   5.809   2.930  10.270 -0.6977  0.4785  0.0535
  138SAPE   H2S14981   5.794   3.106  10.307 -2.2429 -1.2291  1.5764
  138SAPE    C314982   5.706   3.049  10.741  0.2331  0.0426 -0.6821
  138SAPE    HX14983   5.688   3.031  10.849 -0.7096 -0.5297 -0.9267
  138SAPE    HY14984   5.645   2.967  10.698  0.9061 -0.9934  0.2576
  138SAPE   O3114985   5.661   3.185  10.715 -0.1458  0.1529  0.4094
  138SAPE   C3114986   5.579   3.191  10.607 -0.0705 -0.4421 -0.1634
  138SAPE   O3214987   5.551   3.098  10.540  0.3979  0.5301  0.2415
  138SAPE   C3214988   5.516   3.324  10.585 -0.0458 -0.5844  0.3400
  138SAPE   H2X14989   5.523   3.390  10.673  1.3748  0.1761 -0.3103
  138SAPE   H2Y14990   5.410   3.311  10.553  0.1816 -1.3468 -0.1413
  138SAPE   C2314991   5.997   3.037  10.296  0.1903  0.4852  0.1363
  138SAPE   H3R14992   6.005   3.039  10.185 -1.4738 -0.8493 -0.0294
  138SAPE   H3S14993   6.049   2.943  10.323  1.3884  1.3041  0.7784
  138SAPE   C2414994   6.076   3.161  10.353 -0.2927  0.6830 -0.1304
  138SAPE   H4R14995   6.055   3.175  10.461 -3.3350  1.7633 -0.7602
  138SAPE   H4S14996   6.036   3.254  10.308  1.7268  2.9090  2.3624
  138SAPE   C2514997   6.220   3.142  10.326 -0.1251  0.3543  0.2979
  138SAPE   H5R14998   6.264   3.050  10.368 -0.1190 -0.4236 -1.3562
  138SAPE   C2614999   6.303   3.219  10.256  0.1708 -0.3045 -0.2471
  138SAPE   H6R15000   6.412   3.201  10.252  0.2079 -0.8196  1.9426
  138SAPE   C2715001   6.271   3.347  10.192 -0.0931 -0.3710  0.2281
  138SAPE   H7R15002   6.366   3.378  10.145 -0.5663  1.4480  0.4210
  138SAPE   H7S15003   6.257   3.423  10.271 -0.5648 -0.8707  0.6386
  138SAPE   C2815004   6.174   3.354  10.074 -0.0612 -0.4192  0.3458
  138SAPE   H8R15005   6.087   3.422  10.082  0.9848  0.9213  0.6250
  138SAPE   C2915006   6.175   3.285   9.960 -0.6236  0.8185  0.4205
  138SAPE   H9R15007   6.094   3.310   9.890  0.4446  2.2927 -0.3520
  138SAPE  C21015008   6.288   3.192   9.915 -0.3150  0.1095 -0.3525
  138SAPE  H10R15009   6.373   3.196   9.986 -1.3745  1.7107  0.9021
  138SAPE  H10S15010   6.322   3.228   9.815 -1.3915  0.2396 -0.6899
  138SAPE  C21115011   6.226   3.054   9.909  0.9136  0.3135 -0.0919
  138SAPE  H11R15012   6.193   3.010  10.004  2.2587  0.6687  0.5617
  138SAPE  C21215013   6.212   2.972   9.810 -0.5789  0.8089 -0.4517
  138SAPE  H12R15014   6.169   2.871   9.823 -0.3813  0.6498 -0.9967
  138SAPE  C21315015   6.260   2.993   9.666 -0.5404 -0.8097 -0.2877
  138SAPE  H13R15016   6.258   2.895   9.614  0.2696 -0.7805 -0.3812
  138SAPE  H13S15017   6.364   3.031   9.670 -0.8159  0.1788 -1.7795
  138SAPE  C21415018   6.186   3.101   9.595 -0.3671 -0.3908 -0.0918
  138SAPE  H14R15019   6.137   3.180   9.653  1.5204  1.8710 -1.3969
  138SAPE  C21515020   6.176   3.107   9.461  0.7209 -0.7994 -0.3978
  138SAPE  H15R15021   6.125   3.196   9.419  1.1027  1.2165  3.0584
  138SAPE  C21615022   6.229   3.019   9.360 -0.4131  1.0724 -0.3531
  138SAPE  H16R15023   6.189   2.918   9.382  2.4667 -0.1303 -0.1363
  138SAPE  H16S15024   6.340   3.016   9.364 -0.4622 -0.0695  0.9407
  138SAPE  C21715025   6.205   3.066   9.215  0.3297  0.2264  0.7392
  138SAPE  H17R15026   6.219   3.175   9.199  0.5669  0.0669 -0.2027
  138SAPE  H17S15027   6.096   3.060   9.192  0.5107  2.9411 -1.2991
  138SAPE  C21815028   6.282   2.982   9.107  0.1786 -0.3157  0.4633
  138SAPE  H18R15029   6.233   2.883   9.095 -0.8507  0.1021  1.1015
  138SAPE  H18S15030   6.379   2.964   9.158  0.0201 -0.6486  0.6559
  138SAPE  C21915031   6.308   3.062   8.984  0.6783 -0.4084  0.1980
  138SAPE  H19R15032   6.357   3.161   8.994 -1.8746  1.1009 -1.0222
  138SAPE  H19S15033   6.203   3.089   8.960 -0.0799  2.1672  5.0906
  138SAPE  C22015034   6.367   2.971   8.876  0.3841  0.3424 -0.0219
  138SAPE  H20R15035   6.299   2.891   8.839  2.6679 -1.0830 -1.3807
  138SAPE  H20S15036   6.456   2.913   8.907 -0.7600 -2.3360 -1.4082
  138SAPE  H20T15037   6.391   3.031   8.786 -1.3506  0.4670 -0.4352
  138SAPE   C3315038   5.596   3.390  10.466  0.0378 -0.1154 -0.3936
  138SAPE   H3X15039   5.704   3.400  10.487 -0.1325 -0.4396  0.6755
  138SAPE   H3Y15040   5.562   3.496  10.462 -1.3771 -0.5762 -2.0182
  138SAPE   C3415041   5.589   3.324  10.331  0.0919 -0.3515 -0.3586
  138SAPE   H4X15042   5.484   3.294  10.310 -0.3526  1.4010 -0.7328
  138SAPE   H4Y15043   5.647   3.229  10.325 -1.3876 -1.3583  0.6015
  138SAPE   C3515044   5.622   3.420  10.213 -0.5076  0.6053 -0.9507
  138SAPE   H5X15045   5.728   3.450  10.225 -1.6262  4.7364 -0.0524
  138SAPE   H5Y15046   5.563   3.510  10.242 -0.9642  0.4363 -1.3322
  138SAPE   C3615047   5.584   3.371  10.075 -0.0304 -0.4257 -0.0387
  138SAPE   H6X15048   5.591   3.466  10.018 -0.6361  0.1739  0.8654
  138SAPE   H6Y15049   5.482   3.327  10.081  0.5679 -1.7734  0.6938
  138SAPE   C3715050   5.690   3.265  10.029 -0.1636 -0.4268  0.4843
  138SAPE   H7X15051   5.673   3.176  10.093  2.2027 -2.0217 -0.9174
  138SAPE   H7Y15052   5.794   3.302  10.044  0.4305 -1.8614  0.1753
  138SAPE   C3815053   5.674   3.210   9.886 -0.2624  0.1372 -0.6796
  138SAPE   H8X15054   5.692   3.293   9.814  0.0205 -0.1604 -0.9509
  138SAPE   H8Y15055   5.570   3.174   9.873 -0.0831 -0.1475 -1.3315
  138SAPE   C3915056   5.771   3.096   9.865  0.8900  0.6537  0.5287
  138SAPE   H9X15057   5.716   3.008   9.903  1.4201  0.3968  0.7146
  138SAPE   H9Y15058   5.863   3.113   9.925 -0.6591  0.5950  3.0280
  138SAPE  C31015059   5.812   3.096   9.713 -0.1659 -0.2256 -0.4142
  138SAPE  H10X15060   5.905   3.036   9.709  1.1006  1.5439  0.7260
  138SAPE  H10Y15061   5.850   3.199   9.693 -0.4992  0.0820  0.4513
  138SAPE  C31115062   5.701   3.052   9.614  0.1678 -0.5256  0.5713
  138SAPE  H11X15063   5.605   3.089   9.654  0.1661 -1.1997  1.2278
  138SAPE  H11Y15064   5.694   2.943   9.637 -1.5634 -0.0902  2.3800
  138SAPE  C31215065   5.738   3.071   9.467 -0.0075 -0.6204 -0.9156
  138SAPE  H12X15066   5.844   3.039   9.453  0.2404 -0.6155  0.7252
  138SAPE  H12Y15067   5.746   3.179   9.441  2.6076 -0.6104 -0.3812
  138SAPE  C31315068   5.637   3.010   9.371  0.6710  0.9397 -0.0197
  138SAPE  H13X15069   5.533   3.045   9.386 -0.1230 -0.9849 -0.7463
  138SAPE  H13Y15070   5.636   2.900   9.382  0.3689  0.7705 -1.5925
  138SAPE  C31415071   5.675   3.053   9.234  0.9543  0.2420  0.3160
  138SAPE  H14X15072   5.783   3.038   9.212  0.8247  1.8892 -1.7082
  138SAPE  H14Y15073   5.650   3.161   9.227  1.5397  0.4502  1.2338
  138SAPE  C31515074   5.591   2.984   9.131 -0.2230  0.7468 -0.3882
  138SAPE  H15X15075   5.631   3.024   9.035 -0.8780  0.7812 -0.6482
  138SAPE  H15Y15076   5.481   2.998   9.134 -0.4154 -0.8319  0.7130
  138SAPE  C31615077   5.602   2.831   9.128 -0.8463 -0.0510  0.0384
  138SAPE  H16X15078   5.556   2.793   9.222 -0.4897  1.1285  0.7170
  138SAPE  H16Y15079   5.708   2.799   9.121 -0.5249  1.0376 -0.4293
  138SAPE  C31715080   5.535   2.763   9.008  0.4045 -0.1241 -0.2553
  138SAPE  H17X15081   5.556   2.803   8.907 -1.7193 -2.7789 -1.8834
  138SAPE  H17Y15082   5.429   2.796   9.014  0.4620  0.1566 -0.7174
  138SAPE  C31815083   5.544   2.611   9.002 -0.4928 -0.4021 -0.4246
  138SAPE  H18X15084   5.646   2.580   8.970 -0.0632  1.8205 -1.3623
  138SAPE  H18Y15085   5.466   2.571   8.934 -1.1323  2.6010 -1.6271
  138SAPE  H18Z15086   5.526   2.577   9.106 -0.7166 -0.6224 -0.5364
  139SAPE     N15087   6.137   6.521  10.711  0.4302 -0.3583  0.3803
  139SAPE   HN115088   6.138   6.464  10.798 -0.6406  1.3116  1.5443
  139SAPE   HN215089   6.041   6.528  10.671 -0.0126 -0.1010  1.4595
  139SAPE   HN315090   6.190   6.469  10.638  1.1034 -0.0477  0.6315
  139SAPE   C1215091   6.195   6.663  10.723 -0.5094 -0.2948 -0.7202
  139SAPE  H12A15092   6.238   6.673  10.825 -1.2648 -1.7977 -0.2258
  139SAPE  H12B15093   6.108   6.730  10.709  0.2507  0.4330 -2.2484
  139SAPE   C1115094   6.306   6.687  10.618 -0.6098  0.0150  0.5732
  139SAPE  H11A15095   6.348   6.790  10.616  0.4642 -0.4045  0.9495
  139SAPE  H11B15096   6.265   6.668  10.516 -1.2515 -1.2860  1.0540
  139SAPE     P15097   6.448   6.476  10.556  0.2021 -0.4301 -0.4532
  139SAPE   O1315098   6.581   6.417  10.593  0.3503 -0.7145 -0.6129
  139SAPE   O1415099   6.327   6.393  10.556 -0.2144  0.2916 -0.5269
  139SAPE   O1215100   6.412   6.604  10.643 -0.1747 -0.0662 -0.6675
  139SAPE   O1115101   6.471   6.531  10.415 -0.3842 -0.1386 -0.5203
  139SAPE    C115102   6.561   6.635  10.382  0.0548 -0.2222 -0.6664
  139SAPE    HA15103   6.518   6.728  10.425 -0.4883  0.2518 -2.1822
  139SAPE    HB15104   6.655   6.626  10.440 -1.1815  1.8289  1.8597
  139SAPE    C215105   6.585   6.658  10.225 -0.4497 -0.0365  0.5796
  139SAPE    HS15106   6.675   6.720  10.209  0.0945 -1.3505 -1.8701
  139SAPE   O2115107   6.471   6.718  10.167  0.0105  0.3339 -0.0777
  139SAPE   C2115108   6.474   6.861  10.174 -0.1373  0.0541  0.5184
  139SAPE   O2215109   6.570   6.917  10.221  0.2826  0.6037  0.1105
  139SAPE   C2215110   6.341   6.925  10.136 -0.1138 -0.4185  0.2974
  139SAPE   H2R15111   6.281   6.867  10.062  0.8873  0.1172 -0.9725
  139SAPE   H2S15112   6.283   6.930  10.231  0.7034 -2.6502  0.9619
  139SAPE    C315113   6.615   6.522  10.159  0.2279  0.2510 -0.0863
  139SAPE    HX15114   6.522   6.462  10.150  0.1691  0.5097 -1.4707
  139SAPE    HY15115   6.681   6.463  10.226 -2.6228 -4.5678 -1.0657
  139SAPE   O3115116   6.670   6.541  10.029  0.8033 -0.0402 -0.2737
  139SAPE   C3115117   6.798   6.560  10.018 -0.3204 -0.3447  0.4874
  139SAPE   O3215118   6.871   6.553  10.110  0.3364  0.0986 -0.6311
  139SAPE   C3215119   6.839   6.618   9.886  0.7675 -0.0403  0.2037
  139SAPE   H2X15120   6.782   6.713   9.875 -1.1609 -0.7150  3.2538
  139SAPE   H2Y15121   6.809   6.544   9.809  0.0828  0.2380  0.1964
  139SAPE   C2315122   6.364   7.065  10.084 -0.5693 -0.4932 -0.3964
  139SAPE   H3R15123   6.439   7.111  10.150 -1.4646 -0.7453  0.8392
  139SAPE   H3S15124   6.274   7.129  10.093 -1.4812 -1.9416  1.4686
  139SAPE   C2415125   6.419   7.066   9.933 -0.5538 -0.3927 -0.5759
  139SAPE   H4R15126   6.514   7.008   9.930 -0.1847  0.2361 -1.9232
  139SAPE   H4S15127   6.441   7.173   9.914  2.3595  0.0824  3.8989
  139SAPE   C2515128   6.313   7.018   9.836  0.5295 -0.2448  0.3942
  139SAPE   H5R15129   6.215   7.067   9.843  0.3678 -0.4991 -0.0788
  139SAPE   C2615130   6.325   6.903   9.759  0.0965 -0.5895 -0.1089
  139SAPE   H6R15131   6.240   6.875   9.694  0.2986 -0.4137 -0.4506
  139SAPE   C2715132   6.444   6.806   9.771  0.3149  0.1591  0.2492
  139SAPE   H7R15133   6.530   6.843   9.832  0.0891  0.9060  0.1231
  139SAPE   H7S15134   6.497   6.816   9.674 -0.8874 -0.5016 -0.4968
  139SAPE   C2815135   6.423   6.657   9.805 -0.6835  0.5374 -0.0591
  139SAPE   H8R15136   6.383   6.644   9.907 -1.9169  0.1735 -0.5646
  139SAPE   C2915137   6.454   6.546   9.734 -0.7414 -0.3398  0.6149
  139SAPE   H9R15138   6.418   6.448   9.766  0.2132 -0.8225  0.2250
  139SAPE  C21015139   6.517   6.532   9.594 -0.4781  0.4283 -0.1007
  139SAPE  H10R15140   6.461   6.444   9.555 -0.3296 -0.4510  1.5880
  139SAPE  H10S15141   6.625   6.513   9.611 -0.6571 -0.3281  0.2365
  139SAPE  C21115142   6.501   6.640   9.489 -0.1185 -0.1939 -0.2757
  139SAPE  H11R15143   6.432   6.723   9.510 -0.7335 -0.4839 -1.0891
  139SAPE  C21215144   6.568   6.643   9.373 -0.2742  0.7521  0.6571
  139SAPE  H12R15145   6.541   6.717   9.296  1.7741  0.1274 -0.7496
  139SAPE  C21315146   6.672   6.545   9.318  0.4357  0.3398  1.0589
  139SAPE  H13R15147   6.622   6.451   9.287  1.7400 -0.8578  2.4181
  139SAPE  H13S15148   6.733   6.518   9.407  0.2147 -1.5221  0.6678
  139SAPE  C21415149   6.767   6.570   9.197 -0.3308 -0.4314 -0.1344
  139SAPE  H14R15150   6.875   6.565   9.215 -0.0994 -0.6435 -1.4541
  139SAPE  C21515151   6.720   6.601   9.073  1.0203  0.1880  0.4046
  139SAPE  H15R15152   6.794   6.601   8.992  1.4392  0.9705  0.7678
  139SAPE  C21615153   6.582   6.614   9.019  0.0945 -0.0276 -0.1186
  139SAPE  H16R15154   6.536   6.705   9.064 -0.3526 -0.2176 -0.1831
  139SAPE  H16S15155   6.526   6.521   9.043 -0.6630 -0.1495 -2.1562
  139SAPE  C21715156   6.603   6.646   8.864 -0.8901 -0.0980  0.3513
  139SAPE  H17R15157   6.669   6.569   8.819  0.3912  1.3247 -0.2729
  139SAPE  H17S15158   6.664   6.737   8.847  0.7293 -1.3591 -0.9152
  139SAPE  C21815159   6.472   6.639   8.791 -0.6783  0.3444 -0.2754
  139SAPE  H18R15160   6.424   6.739   8.789 -2.7205 -0.5828 -1.2738
  139SAPE  H18S15161   6.405   6.567   8.844  1.5363 -1.0865  0.7217
  139SAPE  C21915162   6.487   6.580   8.646 -0.0610  0.2172  0.6390
  139SAPE  H19R15163   6.383   6.552   8.618 -0.0655  0.7612  0.0945
  139SAPE  H19S15164   6.550   6.489   8.651 -0.4904 -0.3851 -2.4234
  139SAPE  C22015165   6.527   6.686   8.536 -0.3566  0.3634 -0.3504
  139SAPE  H20R15166   6.516   6.653   8.430  1.3374  0.7569 -0.6851
  139SAPE  H20S15167   6.631   6.719   8.556 -0.9480  0.8890  2.2249
  139SAPE  H20T15168   6.461   6.774   8.556 -0.9044 -0.4170  1.4525
  139SAPE   C3315169   6.993   6.636   9.867 -0.4112  0.1088  0.3337
  139SAPE   H3X15170   7.039   6.537   9.890  0.6833  0.6170  0.4249
  139SAPE   H3Y15171   7.026   6.700   9.951 -2.3944  1.2989  0.2604
  139SAPE   C3415172   7.030   6.665   9.715 -0.1777 -0.4163 -0.1911
  139SAPE   H4X15173   7.141   6.667   9.715 -0.1689  2.3822  0.4059
  139SAPE   H4Y15174   7.001   6.767   9.683 -0.6608 -0.4594  0.0993
  139SAPE   C3515175   6.979   6.549   9.623 -1.0523 -0.0408  0.3280
  139SAPE   H5X15176   6.870   6.568   9.626 -1.4185 -1.7326 -0.9045
  139SAPE   H5Y15177   7.002   6.448   9.664  0.6415 -0.4869 -1.5275
  139SAPE   C3615178   7.035   6.545   9.484 -0.3714  0.2167 -0.7419
  139SAPE   H6X15179   7.021   6.644   9.435 -0.6643  0.8432  0.5829
  139SAPE   H6Y15180   6.978   6.469   9.426  0.4134 -0.3007 -0.8518
  139SAPE   C3715181   7.183   6.512   9.477  0.5435 -0.7259 -0.0493
  139SAPE   H7X15182   7.201   6.417   9.531 -1.6627 -1.1972 -0.0491
  139SAPE   H7Y15183   7.234   6.595   9.532 -0.9649 -0.7747  1.5154
  139SAPE   C3815184   7.240   6.497   9.335 -0.0446  0.3079 -0.0035
  139SAPE   H8X15185   7.241   6.598   9.289 -0.4971  1.0634  1.5818
  139SAPE   H8Y15186   7.175   6.427   9.277  0.0223 -0.2428  0.5789
  139SAPE   C3915187   7.380   6.433   9.340  0.4034 -0.0916 -0.6005
  139SAPE   H9X15188   7.361   6.336   9.391  0.1167  1.0169  1.5161
  139SAPE   H9Y15189   7.444   6.496   9.405  2.2818 -0.5148 -1.9585
  139SAPE  C31015190   7.448   6.432   9.197 -0.1862 -0.4219  0.6400
  139SAPE  H10X15191   7.550   6.388   9.209 -0.0955 -0.2907  0.3553
  139SAPE  H10Y15192   7.450   6.539   9.166 -1.2028 -0.3572  0.7803
  139SAPE  C31115193   7.379   6.343   9.090  0.1238  0.1712  0.1725
  139SAPE  H11X15194   7.275   6.380   9.074  0.6612  0.9688 -1.7870
  139SAPE  H11Y15195   7.371   6.235   9.113  1.6233 -0.2248 -1.0258
  139SAPE  C31215196   7.450   6.338   8.950 -0.6297 -0.5712  0.0337
  139SAPE  H12X15197   7.548   6.285   8.947 -0.3605 -0.1089  0.5504
  139SAPE  H12Y15198   7.466   6.447   8.940  0.9758 -0.5240  2.4048
  139SAPE  C31315199   7.353   6.304   8.834  0.3720 -0.8086  0.1076
  139SAPE  H13X15200   7.260   6.366   8.840  1.1160  0.4102 -0.6248
  139SAPE  H13Y15201   7.314   6.201   8.851  0.0163 -0.3184  2.6579
  139SAPE  C31415202   7.428   6.315   8.704  0.2121 -0.5855 -0.0495
  139SAPE  H14X15203   7.522   6.256   8.712  0.6586  0.3765  2.9382
  139SAPE  H14Y15204   7.456   6.422   8.692 -0.4621 -0.3470  0.4342
  139SAPE  C31515205   7.340   6.280   8.581 -0.5677 -0.3966  0.4729
  139SAPE  H15X15206   7.403   6.317   8.497  0.6584  2.0140  2.3132
  139SAPE  H15Y15207   7.245   6.334   8.566 -0.7149 -1.4458 -3.4707
  139SAPE  C31615208   7.313   6.135   8.561 -0.0681 -0.6922  0.6293
  139SAPE  H16X15209   7.409   6.083   8.541  0.0402 -0.8981  1.6373
  139SAPE  H16Y15210   7.249   6.089   8.639 -1.4605 -0.4523 -0.3192
  139SAPE  C31715211   7.232   6.107   8.427 -0.3910 -0.1794  0.6377
  139SAPE  H17X15212   7.303   6.132   8.345 -0.3548  3.0107  1.5016
  139SAPE  H17Y15213   7.148   6.179   8.415 -0.8937 -0.8845 -0.2345
  139SAPE  C31815214   7.182   5.965   8.419 -0.8045  0.7851 -0.0744
  139SAPE  H18X15215   7.120   5.942   8.509 -0.6385  0.3363 -0.0730
  139SAPE  H18Y15216   7.258   5.885   8.410 -0.9847  0.6694 -0.5753
  139SAPE  H18Z15217   7.111   5.957   8.334 -1.0051 -0.0799  0.1703
  140SAPE     N15218   6.014   4.429  10.926  0.4027  0.4035  0.5617
  140SAPE   HN115219   5.920   4.469  10.904 -1.5180 -2.7192  2.4113
  140SAPE   HN215220   6.089   4.497  10.901  2.5000 -1.9598 -0.0174
  140SAPE   HN315221   6.025   4.350  10.860  0.8049  0.5728  0.4201
  140SAPE   C1215222   6.007   4.374  11.071 -0.2828  0.4518 -0.3848
  140SAPE  H12A15223   5.906   4.390  11.114  0.5140 -4.0780  4.1698
  140SAPE  H12B15224   6.085   4.433  11.124 -0.1334  0.7716 -0.9636
  140SAPE   C1115225   6.063   4.233  11.075  0.1070  0.5665  1.0312
  140SAPE  H11A15226   6.008   4.158  11.015 -0.8542  0.9838  1.3839
  140SAPE  H11B15227   6.054   4.193  11.178 -1.3492  0.1505  0.7634
  140SAPE     P15228   6.278   4.083  11.068 -0.1055 -0.1263  0.0783
  140SAPE   O1315229   6.337   4.097  11.200  0.7967  0.5778  0.0257
  140SAPE   O1415230   6.185   3.965  11.048  0.7432 -0.1158  0.1669
  140SAPE   O1215231   6.198   4.221  11.032 -0.3344 -0.5602  0.6820
  140SAPE   O1115232   6.391   4.081  10.960 -0.4952  0.0790  0.6123
  140SAPE    C115233   6.409   4.178  10.858  0.9683 -0.3699 -0.2602
  140SAPE    HA15234   6.315   4.229  10.827  2.0591  1.7289 -0.3237
  140SAPE    HB15235   6.485   4.254  10.887  1.4012 -0.7259 -0.4547
  140SAPE    C215236   6.467   4.098  10.740  0.6560  0.1160  0.8609
  140SAPE    HS15237   6.556   4.043  10.777  1.8954  2.9888  2.4823
  140SAPE   O2115238   6.522   4.191  10.635 -0.2675 -0.1450 -0.6448
  140SAPE   C2115239   6.638   4.255  10.670  0.5519  0.0500  0.0773
  140SAPE   O2215240   6.695   4.242  10.775 -0.2502  0.1035 -0.2704
  140SAPE   C2215241   6.674   4.357  10.564  0.0145  0.5500  0.4841
  140SAPE   H2R15242   6.616   4.330  10.473  0.1194  0.9667  0.2911
  140SAPE   H2S15243   6.639   4.458  10.593 -0.7902  1.5404 -3.3985
  140SAPE    C315244   6.368   3.991  10.677 -0.8547  0.5878 -0.3987
  140SAPE    HX15245   6.285   4.055  10.641  0.3490  2.7396  0.4844
  140SAPE    HY15246   6.320   3.939  10.763  2.2315  0.7018  1.5230
  140SAPE   O3115247   6.428   3.898  10.578  0.0496 -0.3715  0.0287
  140SAPE   C3115248   6.408   3.932  10.454 -0.2811  0.1794 -0.2421
  140SAPE   O3215249   6.354   4.034  10.414 -0.2492  0.8495 -0.2121
  140SAPE   C3215250   6.446   3.820  10.356 -0.0210 -0.0845  0.1521
  140SAPE   H2X15251   6.413   3.723  10.400 -1.1332 -0.4808 -1.4413
  140SAPE   H2Y15252   6.556   3.831  10.346 -0.2110  2.4504  0.4267
  140SAPE   C2315253   6.829   4.357  10.545 -0.4833  0.3337  0.4495
  140SAPE   H3R15254   6.855   4.260  10.498 -1.4457  0.2022  0.1625
  140SAPE   H3S15255   6.884   4.376  10.639  1.2263 -0.0697 -0.4301
  140SAPE   C2415256   6.876   4.457  10.433  0.9356  0.5437 -0.0671
  140SAPE   H4R15257   6.835   4.558  10.456 -0.6460 -0.0836 -0.0078
  140SAPE   H4S15258   6.847   4.413  10.336  0.7798  2.5166 -0.9540
  140SAPE   C2515259   7.021   4.478  10.427  0.0531 -0.5532  0.5135
  140SAPE   H5R15260   7.063   4.535  10.512 -0.3095  0.1506  0.2162
  140SAPE   C2615261   7.105   4.450  10.329  0.7161  0.4323  0.4572
  140SAPE   H6R15262   7.208   4.483  10.350  1.0620 -0.7134  0.6009
  140SAPE   C2715263   7.069   4.378  10.204 -0.1679 -0.3509  0.3534
  140SAPE   H7R15264   6.959   4.379  10.185 -0.2548 -0.9334  0.7823
  140SAPE   H7S15265   7.087   4.271  10.231  1.2948 -0.1476  0.2463
  140SAPE   C2815266   7.139   4.423  10.077  0.3456 -0.2268  0.2159
  140SAPE   H8R15267   7.213   4.505  10.083 -0.0737  0.0855  1.6582
  140SAPE   C2915268   7.138   4.363   9.962  0.4484 -0.2893  0.4053
  140SAPE   H9R15269   7.196   4.403   9.878  1.4381 -2.7786 -0.1858
  140SAPE  C21015270   7.050   4.248   9.926  0.2910 -0.5514 -0.0461
  140SAPE  H10R15271   7.008   4.280   9.828  0.6955 -0.1293 -0.0859
  140SAPE  H10S15272   6.960   4.240   9.990  1.1879  1.3318  1.5435
  140SAPE  C21115273   7.132   4.125   9.902  0.3431  0.6453 -0.7162
  140SAPE  H11R15274   7.181   4.102   9.998 -0.6392 -0.6897 -0.5124
  140SAPE  C21215275   7.148   4.051   9.789  0.3578  0.2345  0.6352
  140SAPE  H12R15276   7.227   3.976   9.775  1.8838  1.7316  0.9988
  140SAPE  C21315277   7.087   4.075   9.656  0.4628 -0.6613 -0.3903
  140SAPE  H13R15278   7.167   4.109   9.587  0.8197  1.5805  1.0094
  140SAPE  H13S15279   7.012   4.158   9.662 -0.7674 -1.7689 -0.0591
  140SAPE  C21415280   7.003   3.959   9.607  0.2119 -0.2486 -0.5987
  140SAPE  H14R15281   6.918   3.944   9.675 -0.6744 -1.4999 -1.9311
  140SAPE  C21515282   7.016   3.884   9.495  0.1736  0.1141 -0.3831
  140SAPE  H15R15283   6.942   3.803   9.483 -0.4837  0.3836  1.4837
  140SAPE  C21615284   7.124   3.902   9.393  0.0845 -1.2338 -0.0669
  140SAPE  H16R15285   7.197   3.826   9.427  1.3194 -1.3767 -2.7953
  140SAPE  H16S15286   7.176   4.001   9.399  0.2030 -1.3526  1.3372
  140SAPE  C21715287   7.073   3.895   9.243  0.0982 -0.5979 -0.4276
  140SAPE  H17R15288   6.997   3.974   9.228 -2.0445 -2.1353  1.5415
  140SAPE  H17S15289   7.019   3.799   9.232 -1.0079  0.1715 -2.2370
  140SAPE  C21815290   7.187   3.905   9.141 -0.8034 -0.6128 -0.1465
  140SAPE  H18R15291   7.256   3.826   9.176 -0.3679  0.1926  0.8753
  140SAPE  H18S15292   7.229   4.008   9.152  0.0241 -1.1532  2.2619
  140SAPE  C21915293   7.141   3.887   8.999  0.1811 -0.5481 -0.6892
  140SAPE  H19R15294   7.216   3.922   8.925 -1.0839  2.2288 -0.7767
  140SAPE  H19S15295   7.062   3.961   8.974  1.1846  0.6569 -0.3907
  140SAPE  C22015296   7.092   3.741   8.970 -0.1895  0.2847  0.1824
  140SAPE  H20R15297   7.037   3.732   8.874 -1.6850 -0.2412  1.0552
  140SAPE  H20S15298   7.012   3.711   9.041  0.1741  1.5177  1.1497
  140SAPE  H20T15299   7.179   3.673   8.972 -0.5080 -0.1072  1.0100
  140SAPE   C3315300   6.373   3.834  10.222 -0.1158 -0.0993  0.2053
  140SAPE   H3X15301   6.404   3.925  10.164 -0.7531  0.6333  0.9920
  140SAPE   H3Y15302   6.264   3.845  10.242  0.1209  4.3001  0.0693
  140SAPE   C3415303   6.397   3.715  10.134  0.1965 -0.3409  0.4940
  140SAPE   H4X15304   6.358   3.628  10.191 -0.4030 -1.0550 -0.9618
  140SAPE   H4Y15305   6.505   3.697  10.115  0.4977  2.0819 -0.3584
  140SAPE   C3515306   6.331   3.738  10.003  0.3943 -0.2427  0.3545
  140SAPE   H5X15307   6.353   3.834   9.951  2.4940 -1.3369 -0.9227
  140SAPE   H5Y15308   6.224   3.727  10.029  0.9951 -0.9904  2.7256
  140SAPE   C3615309   6.362   3.627   9.900 -0.3596  0.2509  0.0282
  140SAPE   H6X15310   6.357   3.528   9.950  0.3234 -0.4319 -1.1922
  140SAPE   H6Y15311   6.469   3.645   9.876 -0.2158  0.8892  1.0925
  140SAPE   C3715312   6.283   3.630   9.767  0.2266 -0.7601 -0.1638
  140SAPE   H7X15313   6.314   3.702   9.689  1.0133 -0.3653  0.4979
  140SAPE   H7Y15314   6.177   3.653   9.793  0.0123 -1.2621 -0.5686
  140SAPE   C3815315   6.295   3.500   9.688 -0.4575  0.1350  0.1227
  140SAPE   H8X15316   6.239   3.515   9.594  2.3381 -0.0205 -1.6907
  140SAPE   H8Y15317   6.257   3.413   9.746 -0.1699  1.2376  2.0544
  140SAPE   C3915318   6.444   3.478   9.660  0.3864  0.1970 -0.0954
  140SAPE   H9X15319   6.496   3.437   9.749 -1.7273  0.6934  1.4390
  140SAPE   H9Y15320   6.492   3.577   9.650  1.3865 -0.2038  0.5778
  140SAPE  C31015321   6.469   3.370   9.553 -0.0465 -0.6051  0.0119
  140SAPE  H10X15322   6.437   3.269   9.587 -2.6277 -0.0908 -0.6399
  140SAPE  H10Y15323   6.579   3.376   9.541  0.0930  0.2895  1.4580
  140SAPE  C31115324   6.394   3.388   9.417 -0.3554 -0.2535 -0.4372
  140SAPE  H11X15325   6.285   3.385   9.437  0.1372 -0.7534  2.6597
  140SAPE  H11Y15326   6.426   3.306   9.348  3.0545 -0.7099  1.4753
  140SAPE  C31215327   6.435   3.516   9.352  0.7421 -0.1974  1.2387
  140SAPE  H12X15328   6.546   3.520   9.353  0.7596  1.9482 -1.1211
  140SAPE  H12Y15329   6.398   3.604   9.408  1.3105  1.4670 -0.8998
  140SAPE  C31315330   6.383   3.544   9.209 -0.4960 -0.5112 -0.5059
  140SAPE  H13X15331   6.379   3.654   9.190 -1.5443 -0.3922  0.2953
  140SAPE  H13Y15332   6.277   3.511   9.203 -0.1874 -1.3349 -1.8676
  140SAPE  C31415333   6.467   3.476   9.104  0.2688 -0.0447 -0.5281
  140SAPE  H14X15334   6.481   3.370   9.134 -1.2293  0.1332  0.8912
  140SAPE  H14Y15335   6.569   3.518   9.112  1.4281 -2.9140  1.4931
  140SAPE  C31515336   6.433   3.487   8.959 -0.0893 -0.4180  0.3393
  140SAPE  H15X15337   6.424   3.596   8.939  0.1555 -0.7247 -1.6486
  140SAPE  H15Y15338   6.337   3.438   8.933  0.4886 -0.3342 -2.2386
  140SAPE  C31615339   6.536   3.422   8.869  0.1742 -0.0689  0.0726
  140SAPE  H16X15340   6.562   3.320   8.906 -0.6194  0.4549  2.2172
  140SAPE  H16Y15341   6.634   3.474   8.863  0.5252 -0.8468 -1.3020
  140SAPE  C31715342   6.485   3.391   8.728 -0.1016 -0.3266 -0.0949
  140SAPE  H17X15343   6.469   3.487   8.675 -2.5541 -0.6848 -0.1271
  140SAPE  H17Y15344   6.380   3.354   8.728  0.2045 -1.2219 -0.4057
  140SAPE  C31815345   6.573   3.296   8.653 -0.4131 -0.1865 -0.0917
  140SAPE  H18X15346   6.571   3.200   8.710  1.4575  0.1230  0.5634
  140SAPE  H18Y15347   6.676   3.334   8.644 -0.2287 -0.4331  0.8605
  140SAPE  H18Z15348   6.526   3.273   8.554  0.5993 -0.8040 -0.4405
  141SAPE     N15349   0.116   6.041  10.882  0.0354 -0.6180  0.5167
  141SAPE   HN115350   0.207   5.995  10.902  0.7796  0.6403  0.1264
  141SAPE   HN215351   0.106   6.118  10.951 -1.1727 -1.3716  1.2046
  141SAPE   HN315352   0.031   5.982  10.885 -0.8421  0.6541  2.6805
  141SAPE   C1215353   0.120   6.117  10.749 -0.4883  0.0085 -0.5229
  141SAPE  H12A15354   0.049   6.201  10.761 -0.5022  0.2456 -2.0150
  141SAPE  H12B15355   0.096   6.046  10.668 -1.7442  0.4410 -0.5426
  141SAPE   C1115356   0.258   6.178  10.715  0.8562  0.5722  0.0959
  141SAPE  H11A15357   0.295   6.247  10.794 -0.3710  0.4853  0.7643
  141SAPE  H11B15358   0.259   6.228  10.615 -0.3520  0.0530 -0.1855
  141SAPE     P15359   0.506   6.073  10.711 -0.2375 -0.5695  0.1194
  141SAPE   O1315360   0.538   6.216  10.678 -0.4432 -0.4410 -0.1227
  141SAPE   O1415361   0.560   6.017  10.834 -0.1932 -0.2494  0.3203
  141SAPE   O1215362   0.350   6.070  10.715 -0.0790  0.2610  0.3987
  141SAPE   O1115363   0.558   5.981  10.593 -0.1370  0.0121 -0.0384
  141SAPE    C115364   0.479   5.879  10.532  0.7623 -0.0477 -0.1799
  141SAPE    HA15365   0.546   5.806  10.481 -0.2413 -1.3714  0.3220
  141SAPE    HB15366   0.411   5.820  10.597  0.6751  1.8301  1.5284
  141SAPE    C215367   0.400   5.933  10.411  0.1860 -0.0856 -0.6432
  141SAPE    HS15368   0.310   5.975  10.460  0.6562 -1.6836  1.7511
  141SAPE   O2115369   0.367   5.823  10.317  0.9333 -0.4351 -0.2667
  141SAPE   C2115370   0.252   5.841  10.258  0.5755 -0.2713 -0.2263
  141SAPE   O2215371   0.164   5.919  10.294  0.3436  0.1493 -0.5197
  141SAPE   C2215372   0.241   5.767  10.127  0.5064  0.7697  0.2766
  141SAPE   H2R15373   0.305   5.817  10.051 -0.5425 -0.2255 -1.3085
  141SAPE   H2S15374   0.278   5.663  10.135  0.4383  0.6114 -1.3017
  141SAPE    C315375   0.472   6.056  10.342  0.0073  0.0957 -0.1227
  141SAPE    HX15376   0.565   6.019  10.293  1.4963  0.7869  2.0655
  141SAPE    HY15377   0.503   6.140  10.408 -1.4361  0.8257 -0.3346
  141SAPE   O3115378   0.400   6.103  10.230 -0.0683 -0.5865  0.4186
  141SAPE   C3115379   0.320   6.205  10.253  0.8984  0.0452  0.0426
  141SAPE   O3215380   0.296   6.252  10.364 -0.2539 -0.2891 -0.2812
  141SAPE   C3215381   0.257   6.266  10.129  0.0883 -0.8341  0.3838
  141SAPE   H2X15382   0.329   6.254  10.045 -1.8389 -2.0933 -1.1796
  141SAPE   H2Y15383   0.238   6.375  10.136 -0.4867 -0.9047  0.0319
  141SAPE   C2315384   0.098   5.765  10.073 -0.0495 -0.3698 -0.2514
  141SAPE   H3R15385   0.067   5.867  10.042  1.2691  0.3793  0.7913
  141SAPE   H3S15386   0.028   5.726  10.150 -0.7069 -1.2779 -1.2840
  141SAPE   C2415387   0.097   5.669   9.954  0.3660  0.1359  0.4554
  141SAPE   H4R15388  -0.004   5.622   9.955  1.2815 -2.0375 -1.5442
  141SAPE   H4S15389   0.165   5.582   9.964  0.1828  0.0879  1.4534
  141SAPE   C2515390   0.112   5.741   9.826  0.2693  0.2510 -0.3345
  141SAPE   H5R15391   0.081   5.847   9.829 -0.2867  0.0868 -0.1568
  141SAPE   C2615392   0.156   5.683   9.708 -0.0015 -0.4927  0.6368
  141SAPE   H6R15393   0.149   5.740   9.614 -1.6844  1.2519  1.7342
  141SAPE   C2715394   0.203   5.540   9.686  0.4655  0.4484 -0.0815
  141SAPE   H7R15395   0.181   5.506   9.583 -1.2060  0.0587  0.3825
  141SAPE   H7S15396   0.151   5.468   9.753 -0.0731  1.3073  0.4408
  141SAPE   C2815397   0.351   5.533   9.705 -0.0093  0.1713 -0.0171
  141SAPE   H8R15398   0.390   5.535   9.808  1.0645  1.2954 -0.4293
  141SAPE   C2915399   0.444   5.530   9.606 -0.3082 -0.2148  0.1660
  141SAPE   H9R15400   0.551   5.540   9.630 -0.7872  1.0418  2.0714
  141SAPE  C21015401   0.403   5.548   9.456 -0.1092 -0.6515  0.5073
  141SAPE  H10R15402   0.491   5.582   9.398 -1.3383  3.3339  0.7292
  141SAPE  H10S15403   0.330   5.627   9.429  0.2335 -0.1695  0.9702
  141SAPE  C21115404   0.353   5.423   9.377 -0.1841  0.1229  0.1284
  141SAPE  H11R15405   0.295   5.349   9.435 -1.9825  1.7615  0.5246
  141SAPE  C21215406   0.375   5.400   9.245  0.8906  0.0845 -0.1756
  141SAPE  H12R15407   0.336   5.309   9.197  0.6580 -0.4133  0.9353
  141SAPE  C21315408   0.447   5.488   9.148 -0.0366 -0.0183 -0.5102
  141SAPE  H13R15409   0.413   5.591   9.173  0.7036  0.0354  0.3240
  141SAPE  H13S15410   0.406   5.461   9.048 -2.2206 -1.9331  0.7785
  141SAPE  C21415411   0.598   5.478   9.163 -0.1853  0.1436  0.9759
  141SAPE  H14R15412   0.644   5.486   9.262 -0.8255 -1.1199  1.3979
  141SAPE  C21515413   0.681   5.472   9.056 -0.2302 -0.1095  1.0524
  141SAPE  H15R15414   0.788   5.470   9.084 -0.5006  1.6939  2.3927
  141SAPE  C21615415   0.636   5.480   8.910  0.0515 -0.0982 -0.7261
  141SAPE  H16R15416   0.621   5.583   8.872  0.9691  0.1993 -0.3251
  141SAPE  H16S15417   0.532   5.442   8.905 -0.1905 -0.2473  2.7702
  141SAPE  C21715418   0.732   5.405   8.814  0.1845 -0.6078 -0.1237
  141SAPE  H17R15419   0.836   5.416   8.851 -0.1076  4.7503 -0.1116
  141SAPE  H17S15420   0.720   5.440   8.709 -0.6789 -0.0626  0.1483
  141SAPE  C21815421   0.710   5.249   8.815  0.4536  0.4030 -0.5430
  141SAPE  H18R15422   0.642   5.220   8.732  0.3129 -0.9974  0.0291
  141SAPE  H18S15423   0.668   5.220   8.914 -0.2103 -1.0738 -1.2308
  141SAPE  C21915424   0.841   5.174   8.786  0.6337  0.4749 -0.1617
  141SAPE  H19R15425   0.881   5.199   8.685 -1.4491 -4.6060 -2.6273
  141SAPE  H19S15426   0.814   5.067   8.774  0.0649  0.4701  1.0239
  141SAPE  C22015427   0.947   5.193   8.893 -0.0971  0.0468 -0.2070
  141SAPE  H20R15428   1.032   5.255   8.857  1.5803 -1.9454  0.1389
  141SAPE  H20S15429   0.995   5.094   8.910 -2.2092 -1.4037 -2.0406
  141SAPE  H20T15430   0.895   5.221   8.987  0.7002 -0.0447  0.2688
  141SAPE   C3315431   0.127   6.193  10.081 -0.5137 -0.3696 -0.4665
  141SAPE   H3X15432   0.048   6.228  10.150  0.1197  0.0866  0.0398
  141SAPE   H3Y15433   0.140   6.084  10.095  0.8739 -0.1300  0.2689
  141SAPE   C3415434   0.098   6.212   9.928  0.1849 -0.3289 -0.3974
  141SAPE   H4X15435   0.167   6.146   9.873 -0.6646 -1.3913 -0.2189
  141SAPE   H4Y15436   0.117   6.318   9.899  1.8549 -0.2963  0.6517
  141SAPE   C3515437  -0.048   6.173   9.890  0.2673  0.0219  0.2045
  141SAPE   H5X15438  -0.113   6.215   9.970  0.2706 -1.1508  0.8456
  141SAPE   H5Y15439  -0.065   6.063   9.884  1.3732 -0.3045  2.4012
  141SAPE   C3615440  -0.091   6.230   9.749  0.6397 -0.1025 -0.8747
  141SAPE   H6X15441  -0.087   6.341   9.756  2.1351 -0.1791 -0.2101
  141SAPE   H6Y15442  -0.196   6.198   9.731 -0.6296  2.5122  1.2431
  141SAPE   C3715443  -0.005   6.193   9.620  0.5032 -0.0018 -0.2614
  141SAPE   H7X15444   0.011   6.083   9.619 -1.3137 -0.3145 -1.4485
  141SAPE   H7Y15445   0.091   6.248   9.619  0.7609 -0.4495 -1.0140
  141SAPE   C3815446  -0.093   6.224   9.504  1.0673  0.4404 -0.4688
  141SAPE   H8X15447  -0.140   6.325   9.511 -0.7258 -0.3342 -0.8282
  141SAPE   H8Y15448  -0.186   6.163   9.500 -0.8782  3.0573  1.4143
  141SAPE   C3915449  -0.027   6.207   9.365 -0.1626 -0.5271 -0.6545
  141SAPE   H9X15450   0.045   6.292   9.357  0.2913 -0.8636 -0.1898
  141SAPE   H9Y15451  -0.106   6.220   9.288  0.0037  1.9913 -0.5019
  141SAPE  C31015452   0.058   6.081   9.349 -0.2163  0.5582  0.0085
  141SAPE  H10X15453   0.004   5.989   9.380  2.7101 -0.7219  1.7472
  141SAPE  H10Y15454   0.153   6.080   9.408 -1.1107  0.1391  1.4923
  141SAPE  C31115455   0.104   6.059   9.204 -0.6876  0.2958  0.2269
  141SAPE  H11X15456   0.024   6.017   9.140 -0.2735 -2.5206  1.4282
  141SAPE  H11Y15457   0.180   5.978   9.208 -1.5229 -0.5371 -0.5405
  141SAPE  C31215458   0.162   6.184   9.133 -0.2029 -0.3644 -0.0872
  141SAPE  H12X15459   0.238   6.232   9.198  0.0846  0.7654 -1.2268
  141SAPE  H12Y15460   0.091   6.266   9.109 -1.1307 -0.2937  2.5447
  141SAPE  C31315461   0.236   6.150   9.013 -0.2943  0.0388 -0.4508
  141SAPE  H13X15462   0.310   6.071   9.037 -0.8768 -0.1704  0.7505
  141SAPE  H13Y15463   0.305   6.231   8.984 -0.2491  0.1426 -0.0608
  141SAPE  C31415464   0.165   6.095   8.894  0.3291 -0.0229  0.5719
  141SAPE  H14X15465   0.098   6.010   8.917  0.0002 -0.1355 -0.7095
  141SAPE  H14Y15466   0.233   6.054   8.816 -2.7906 -2.4346 -1.0992
  141SAPE  C31515467   0.087   6.208   8.823  0.3638 -0.0215  0.0843
  141SAPE  H15X15468   0.170   6.276   8.792  1.9980 -2.2463 -0.7380
  141SAPE  H15Y15469   0.039   6.273   8.899  2.5419  2.3046 -0.3932
  141SAPE  C31615470   0.002   6.154   8.707 -0.5718 -0.4888  0.0969
  141SAPE  H16X15471  -0.079   6.090   8.748  0.2271 -2.1949 -0.8884
  141SAPE  H16Y15472   0.067   6.089   8.645  0.0525  0.2414 -0.0445
  141SAPE  C31715473  -0.065   6.262   8.622  0.1917 -0.5972 -0.0730
  141SAPE  H17X15474  -0.117   6.331   8.692  0.6660 -0.8408  0.5288
  141SAPE  H17Y15475  -0.128   6.207   8.548 -0.5701  0.8961 -0.5816
  141SAPE  C31815476   0.036   6.352   8.546  1.0009  0.3948 -0.0170
  141SAPE  H18X15477  -0.028   6.428   8.496 -0.0687 -0.5551 -0.1302
  141SAPE  H18Y15478   0.081   6.297   8.461 -0.4321  2.8009 -2.5042
  141SAPE  H18Z15479   0.114   6.400   8.610  1.1142 -1.9070  1.6847
  142SAPE     N15480   2.204   2.749  11.536 -0.0497  0.0047 -0.2932
  142SAPE   HN115481   2.149   2.661  11.526  2.3406 -1.3747 -2.5313
  142SAPE   HN215482   2.242   2.747  11.633 -0.4851  2.0132 -0.0478
  142SAPE   HN315483   2.151   2.837  11.522 -0.7310 -0.0776  1.5542
  142SAPE   C1215484   2.310   2.727  11.436  0.3577  0.5942 -0.5019
  142SAPE  H12A15485   2.258   2.653  11.371  0.3745  0.2891 -0.1707
  142SAPE  H12B15486   2.402   2.679  11.476 -0.1108 -0.2201 -0.3839
  142SAPE   C1115487   2.344   2.845  11.340 -0.1484 -0.0354  0.1885
  142SAPE  H11A15488   2.388   2.790  11.255  0.3641 -0.7748  0.9201
  142SAPE  H11B15489   2.422   2.902  11.395  0.1773 -2.9326  3.0258
  142SAPE     P15490   2.131   2.881  11.194  0.0867 -0.0848  0.3957
  142SAPE   O1315491   2.067   2.751  11.234 -0.0878 -0.5304  0.0966
  142SAPE   O1415492   2.032   2.980  11.146  0.1198  0.2075  0.1773
  142SAPE   O1215493   2.233   2.931  11.304  0.3277 -0.3926 -0.5913
  142SAPE   O1115494   2.229   2.856  11.072  0.2382  0.1105 -0.1187
  142SAPE    C115495   2.281   2.968  10.995  0.3657  0.1276  0.8469
  142SAPE    HA15496   2.298   3.052  11.065 -0.5703 -1.2719  2.8627
  142SAPE    HB15497   2.383   2.934  10.967 -0.0389 -1.8696  1.5953
  142SAPE    C215498   2.195   3.005  10.870 -0.1544  0.0078 -0.3956
  142SAPE    HS15499   2.107   3.064  10.903 -0.5872 -0.3700 -0.8660
  142SAPE   O2115500   2.148   2.881  10.801 -0.4434 -0.4497 -0.4952
  142SAPE   C2115501   2.034   2.884  10.740 -0.0626 -0.5283 -0.1611
  142SAPE   O2215502   1.966   2.980  10.720  0.2522 -0.4243 -0.2010
  142SAPE   C2215503   2.001   2.739  10.695 -0.9299 -0.5256 -0.4370
  142SAPE   H2R15504   2.101   2.712  10.653  0.5100  1.8425  1.2133
  142SAPE   H2S15505   1.985   2.680  10.787  0.2933 -1.2505 -0.6579
  142SAPE    C315506   2.277   3.100  10.774  0.4415 -0.1696  0.9138
  142SAPE    HX15507   2.369   3.049  10.740 -0.0149 -0.0410 -0.5913
  142SAPE    HY15508   2.311   3.195  10.822  0.2560  0.3938 -0.0432
  142SAPE   O3115509   2.203   3.126  10.651  0.4209 -0.5609  0.8566
  142SAPE   C3115510   2.109   3.214  10.659  0.2318 -0.2027 -0.2628
  142SAPE   O3215511   2.072   3.277  10.759  0.4204  0.6335  0.0683
  142SAPE   C3215512   2.056   3.252  10.516  0.2325 -0.3291  0.1054
  142SAPE   H2X15513   1.975   3.326  10.534  0.9013  0.4011  0.1865
  142SAPE   H2Y15514   2.035   3.159  10.459  0.3404 -2.4261  3.2119
  142SAPE   C2315515   1.875   2.722  10.606 -0.7880  0.2291  0.4307
  142SAPE   H3R15516   1.797   2.798  10.627 -1.4080 -0.9111  2.6398
  142SAPE   H3S15517   1.816   2.630  10.625 -1.5097  0.4168 -0.8226
  142SAPE   C2415518   1.905   2.728  10.459 -0.8267 -0.0589  0.0411
  142SAPE   H4R15519   1.974   2.651  10.420 -0.1721  1.0043 -0.9847
  142SAPE   H4S15520   1.967   2.819  10.439  0.7728 -1.0240  0.3982
  142SAPE   C2515521   1.781   2.708  10.376  0.6106  0.1948  0.5101
  142SAPE   H5R15522   1.713   2.624  10.394  0.0324  0.2990 -1.0014
  142SAPE   C2615523   1.736   2.806  10.291  0.5943  0.3966  0.4582
  142SAPE   H6R15524   1.638   2.786  10.245  1.4261 -1.4836 -0.6019
  142SAPE   C2715525   1.805   2.933  10.256  0.3982  0.0553  0.0669
  142SAPE   H7R15526   1.863   2.896  10.169 -1.5999 -0.6729 -1.0417
  142SAPE   H7S15527   1.876   2.960  10.337 -0.2206  0.3354  0.5278
  142SAPE   C2815528   1.722   3.051  10.226 -0.0832  0.3696  0.2412
  142SAPE   H8R15529   1.684   3.114  10.308 -0.6325 -0.3056  0.5224
  142SAPE   C2915530   1.696   3.100  10.105 -0.1107 -0.7327  0.2675
  142SAPE   H9R15531   1.635   3.192  10.104  2.3465  0.9980  0.0999
  142SAPE  C21015532   1.738   3.051   9.965 -0.0938 -0.2342 -0.0121
  142SAPE  H10R15533   1.848   3.049   9.947 -0.6063 -2.7975 -4.2272
  142SAPE  H10S15534   1.716   3.138   9.899  0.9222  0.4219  0.4692
  142SAPE  C21115535   1.699   2.917   9.917 -0.5749 -0.3222 -0.7132
  142SAPE  H11R15536   1.652   2.865  10.001 -1.5682  1.8970  0.1915
  142SAPE  C21215537   1.712   2.860   9.795 -0.7032 -0.1696 -0.6956
  142SAPE  H12R15538   1.684   2.754   9.781  1.3051 -0.8687  0.0935
  142SAPE  C21315539   1.772   2.936   9.674  0.1918 -0.5078  0.0661
  142SAPE  H13R15540   1.850   2.874   9.624  1.3320  0.8294  0.1279
  142SAPE  H13S15541   1.827   3.028   9.702 -0.4259  1.0937 -3.3986
  142SAPE  C21415542   1.662   2.958   9.579  0.0968 -0.5435  0.6581
  142SAPE  H14R15543   1.563   2.984   9.621 -0.2883  1.5010 -1.3230
  142SAPE  C21515544   1.689   2.955   9.447 -0.0682  0.1135 -0.9274
  142SAPE  H15R15545   1.611   2.979   9.374  1.6699  3.4050 -1.8762
  142SAPE  C21615546   1.826   2.932   9.379  0.1177 -1.0825  0.1993
  142SAPE  H16R15547   1.846   2.824   9.362 -1.9180 -1.1150 -2.7848
  142SAPE  H16S15548   1.914   2.969   9.435  1.2747 -3.0364 -0.2363
  142SAPE  C21715549   1.838   2.994   9.235  0.1582 -0.8440  0.3173
  142SAPE  H17R15550   1.943   2.991   9.200 -0.6772 -1.9505 -2.3749
  142SAPE  H17S15551   1.820   3.103   9.241  0.9668 -0.7341  0.8552
  142SAPE  C21815552   1.765   2.914   9.132  0.3029 -0.2552 -0.2295
  142SAPE  H18R15553   1.659   2.902   9.162  0.2618 -0.5212 -0.4785
  142SAPE  H18S15554   1.815   2.816   9.112 -0.1402 -0.1965 -1.7617
  142SAPE  C21915555   1.766   3.006   9.006 -0.1559 -0.1200  0.6527
  142SAPE  H19R15556   1.871   3.011   8.970  0.3601  0.4075  2.1612
  142SAPE  H19S15557   1.734   3.109   9.032  0.3461  0.0134  0.7532
  142SAPE  C22015558   1.679   2.962   8.882  0.0596  0.2678  0.1703
  142SAPE  H20R15559   1.642   2.858   8.892 -2.1036  1.1406  2.1935
  142SAPE  H20S15560   1.729   2.981   8.785 -1.5713 -2.4914 -1.3423
  142SAPE  H20T15561   1.589   3.027   8.896  0.7181  1.0147  1.0800
  142SAPE   C3315562   2.160   3.346  10.434  0.0504 -0.5194  0.1843
  142SAPE   H3X15563   2.238   3.280  10.391  0.3383  0.5934 -1.0519
  142SAPE   H3Y15564   2.200   3.413  10.513  3.3729 -2.8992  0.7129
  142SAPE   C3415565   2.091   3.424  10.319 -0.8614 -0.5297 -0.0248
  142SAPE   H4X15566   2.175   3.480  10.272 -1.2090 -1.1676 -1.4279
  142SAPE   H4Y15567   2.026   3.504  10.362  2.7084  1.5980  1.9314
  142SAPE   C3515568   2.023   3.347  10.216 -0.1547 -0.0987  0.0970
  142SAPE   H5X15569   1.948   3.279  10.260 -0.6868  0.7417  0.5187
  142SAPE   H5Y15570   2.089   3.284  10.153  0.9166  0.7238  0.3615
  142SAPE   C3615571   1.939   3.424  10.111 -0.1251 -0.3602 -0.1248
  142SAPE   H6X15572   1.902   3.515  10.164 -1.9684 -0.3881 -1.2872
  142SAPE   H6Y15573   1.855   3.360  10.076 -1.5780  1.5997 -0.4083
  142SAPE   C3715574   2.026   3.472   9.995  0.4125 -0.2978  0.6359
  142SAPE   H7X15575   2.044   3.384   9.929  1.1108 -0.2339  0.7358
  142SAPE   H7Y15576   2.124   3.515  10.025  1.1710  0.3887 -2.4465
  142SAPE   C3815577   1.957   3.578   9.906 -0.2226 -0.2444  0.2007
  142SAPE   H8X15578   1.931   3.669   9.965  1.5916  0.1055  0.5452
  142SAPE   H8Y15579   1.860   3.548   9.862 -1.5389  0.4553  2.4316
  142SAPE   C3915580   2.036   3.633   9.784  0.0334  0.0103 -0.2467
  142SAPE   H9X15581   2.130   3.676   9.826  0.9114 -2.3746  0.3626
  142SAPE   H9Y15582   1.976   3.708   9.729  1.5775 -0.0469 -2.1079
  142SAPE  C31015583   2.086   3.528   9.683 -0.4089  0.0039 -0.0472
  142SAPE  H10X15584   1.997   3.474   9.645 -0.3187  0.9590 -1.7071
  142SAPE  H10Y15585   2.166   3.465   9.729 -0.8002  1.5504  3.0150
  142SAPE  C31115586   2.146   3.595   9.559 -0.1949 -0.4509  0.8220
  142SAPE  H11X15587   2.195   3.512   9.504 -0.4631  0.4344 -0.8246
  142SAPE  H11Y15588   2.227   3.666   9.586  0.3655 -2.0407  3.6717
  142SAPE  C31215589   2.034   3.633   9.452  0.0859  0.0390  0.4466
  142SAPE  H12X15590   1.986   3.729   9.478 -0.1967 -0.5156  2.1355
  142SAPE  H12Y15591   1.959   3.552   9.436  2.1865 -1.7474 -1.0511
  142SAPE  C31315592   2.090   3.647   9.320 -0.8389 -0.2248  0.0689
  142SAPE  H13X15593   2.150   3.556   9.297 -0.3064  0.1473 -0.0585
  142SAPE  H13Y15594   2.161   3.732   9.328 -0.7886 -0.2036 -0.5312
  142SAPE  C31415595   1.987   3.670   9.209  0.4947  0.0573  0.1917
  142SAPE  H14X15596   1.907   3.729   9.259  1.4365 -0.9281  3.0226
  142SAPE  H14Y15597   1.940   3.573   9.182  1.3835 -0.7785  1.5350
  142SAPE  C31515598   2.046   3.734   9.079  0.6541  0.5293  0.0735
  142SAPE  H15X15599   2.071   3.648   9.013 -0.9429 -0.3301  0.5474
  142SAPE  H15Y15600   2.138   3.791   9.103  0.8414 -0.1008  0.9288
  142SAPE  C31615601   1.940   3.817   9.007  0.4505  0.1340 -0.1046
  142SAPE  H16X15602   1.899   3.894   9.075  0.2590 -1.2973  1.4612
  142SAPE  H16Y15603   1.853   3.752   8.981  0.5779 -0.1051  0.0637
  142SAPE  C31715604   1.996   3.880   8.873  0.9389 -0.0982 -0.0363
  142SAPE  H17X15605   2.101   3.910   8.896  0.5414  0.5245  1.0599
  142SAPE  H17Y15606   1.937   3.970   8.847  0.7951 -0.3772 -0.6748
  142SAPE  C31815607   1.998   3.778   8.756  0.5831 -0.5537  0.2352
  142SAPE  H18X15608   2.003   3.826   8.656  0.3571  0.6648  0.7913
  142SAPE  H18Y15609   1.909   3.710   8.756  0.2878 -0.1698  0.0416
  142SAPE  H18Z15610   2.084   3.708   8.754  0.4808 -0.6717 -0.0993
  143SAPE     N15611   2.828   2.321  11.236 -0.6610 -0.2451 -0.5205
  143SAPE   HN115612   2.820   2.401  11.170 -0.3840  0.1171 -0.1173
  143SAPE   HN215613   2.785   2.240  11.187 -3.3337 -0.0196  1.2238
  143SAPE   HN315614   2.773   2.343  11.322  1.8457  0.0082  1.1101
  143SAPE   C1215615   2.975   2.301  11.264 -0.4372 -0.4366 -0.4621
  143SAPE  H12A15616   2.983   2.200  11.308 -0.6558 -0.3891 -0.3113
  143SAPE  H12B15617   3.003   2.361  11.353  1.6456 -0.5762 -0.9570
  143SAPE   C1115618   3.079   2.335  11.159 -0.1092 -0.1160  0.6084
  143SAPE  H11A15619   3.182   2.341  11.198  0.1665 -0.9750  0.0481
  143SAPE  H11B15620   3.052   2.435  11.120 -0.5019 -1.1347 -1.9577
  143SAPE     P15621   3.159   2.120  11.025  0.4968 -0.4254 -0.1081
  143SAPE   O1315622   3.289   2.164  11.062 -0.8484 -0.0443  0.9209
  143SAPE   O1415623   3.095   2.013  11.109  0.4514  0.3905  1.3286
  143SAPE   O1215624   3.070   2.245  11.041  0.2307  0.1432 -0.2870
  143SAPE   O1115625   3.155   2.089  10.871  0.4581  0.5602  0.1534
  143SAPE    C115626   3.064   2.159  10.780 -0.0244  0.1233  0.2038
  143SAPE    HA15627   3.034   2.096  10.693 -0.6932 -4.0152  3.1425
  143SAPE    HB15628   2.969   2.172  10.836  0.9721 -2.5682  2.7916
  143SAPE    C215629   3.119   2.294  10.735 -0.3282  1.1082  0.5818
  143SAPE    HS15630   3.154   2.337  10.831 -4.6367 -1.5568  3.6755
  143SAPE   O2115631   3.016   2.373  10.674 -0.2264  0.0821 -0.3821
  143SAPE   C2115632   3.046   2.493  10.642 -0.2508  0.1956  0.6612
  143SAPE   O2215633   3.149   2.553  10.666  0.2028  0.1177 -0.2729
  143SAPE   C2215634   2.927   2.537  10.548  0.1730 -0.6825 -0.5894
  143SAPE   H2R15635   2.934   2.459  10.469  0.3216 -0.9154 -0.3481
  143SAPE   H2S15636   2.834   2.517  10.604 -0.6015  0.6644 -1.3206
  143SAPE    C315637   3.243   2.274  10.633  0.1868  0.2112 -0.0425
  143SAPE    HX15638   3.303   2.194  10.681  1.3181  1.0322 -0.0513
  143SAPE    HY15639   3.309   2.363  10.633  2.3648 -1.2701 -2.5811
  143SAPE   O3115640   3.205   2.221  10.505  0.6997  0.2248 -0.1482
  143SAPE   C3115641   3.300   2.182  10.429 -0.1789  0.0493 -0.0708
  143SAPE   O3215642   3.418   2.211  10.449  0.1187 -0.2644 -0.5054
  143SAPE   C3215643   3.253   2.114  10.296  0.7281  0.0090  0.6339
  143SAPE   H2X15644   3.157   2.063  10.321  0.3470  0.9196  1.1009
  143SAPE   H2Y15645   3.326   2.040  10.259  0.2456  0.2405 -0.8417
  143SAPE   C2315646   2.932   2.683  10.478 -0.1776  0.1702 -0.6252
  143SAPE   H3R15647   3.036   2.721  10.479 -0.0312 -0.2020  1.0421
  143SAPE   H3S15648   2.863   2.743  10.542 -1.2842 -3.1354  1.5389
  143SAPE   C2415649   2.879   2.672  10.337  0.7027 -0.0250 -0.2547
  143SAPE   H4R15650   2.954   2.610  10.283 -0.7107  0.0617 -2.4526
  143SAPE   H4S15651   2.891   2.773  10.291  2.2286  0.8339  1.8820
  143SAPE   C2515652   2.743   2.629  10.313 -0.1308 -0.0316 -0.2126
  143SAPE   H5R15653   2.708   2.557  10.389 -0.5956  2.2376  1.8657
  143SAPE   C2615654   2.668   2.664  10.213 -0.0417 -0.0202  0.0899
  143SAPE   H6R15655   2.563   2.631  10.216  0.2941 -1.2579 -0.8313
  143SAPE   C2715656   2.705   2.749  10.099 -0.6831 -0.1593 -0.0483
  143SAPE   H7R15657   2.720   2.856  10.125  1.5444 -0.7549  1.4462
  143SAPE   H7S15658   2.617   2.752  10.033 -1.1128 -1.4423  0.4351
  143SAPE   C2815659   2.832   2.703  10.025  0.1221  0.8087 -0.3013
  143SAPE   H8R15660   2.917   2.674  10.089  0.9821  2.9729 -0.4067
  143SAPE   C2915661   2.859   2.700   9.892  0.5490 -0.2285 -0.0996
  143SAPE   H9R15662   2.952   2.657   9.852  0.3124 -2.3653  1.4503
  143SAPE  C21015663   2.760   2.745   9.778 -0.2638  0.1670 -0.2206
  143SAPE  H10R15664   2.654   2.755   9.810  0.2886  1.4520  1.3505
  143SAPE  H10S15665   2.750   2.660   9.708 -2.3710  0.7108 -0.6473
  143SAPE  C21115666   2.795   2.860   9.688 -0.1873 -0.1274  0.4323
  143SAPE  H11R15667   2.851   2.938   9.743 -0.3249  1.0562 -1.0297
  143SAPE  C21215668   2.770   2.885   9.560  0.0892 -0.2222 -0.0912
  143SAPE  H12R15669   2.794   2.985   9.521 -1.8873  1.4451  2.6079
  143SAPE  C21315670   2.692   2.799   9.465 -0.5024  1.3500 -0.5820
  143SAPE  H13R15671   2.646   2.714   9.520 -0.9747  0.5497 -2.1541
  143SAPE  H13S15672   2.760   2.753   9.390  1.8433 -1.1439  2.7539
  143SAPE  C21415673   2.585   2.874   9.390  0.3143 -0.2691  0.4085
  143SAPE  H14R15674   2.493   2.888   9.448 -0.3376  0.2007 -0.7138
  143SAPE  C21515675   2.575   2.912   9.262 -0.3988  0.6589 -0.1539
  143SAPE  H15R15676   2.483   2.958   9.225 -0.9326 -2.3330 -2.9095
  143SAPE  C21615677   2.689   2.897   9.161 -0.4201 -0.4438 -0.7000
  143SAPE  H16R15678   2.652   2.846   9.070  0.1906  1.5500 -2.1255
  143SAPE  H16S15679   2.773   2.842   9.208 -0.0144  1.3234  0.7579
  143SAPE  C21715680   2.751   3.040   9.125  0.2273 -0.5017  0.4007
  143SAPE  H17R15681   2.845   3.029   9.066  0.3607 -0.1956  0.5536
  143SAPE  H17S15682   2.775   3.101   9.214  2.9995 -1.2186  0.2481
  143SAPE  C21815683   2.662   3.122   9.041  0.9997 -0.3269 -0.3458
  143SAPE  H18R15684   2.703   3.225   9.030 -0.6969  0.3684 -0.4025
  143SAPE  H18S15685   2.561   3.143   9.082  0.8600  0.6432 -1.1238
  143SAPE  C21915686   2.655   3.086   8.891 -0.1321 -0.1189  0.6816
  143SAPE  H19R15687   2.553   3.042   8.885 -1.0899  2.1227 -1.4639
  143SAPE  H19S15688   2.723   3.000   8.871  0.4691  0.2343  1.1742
  143SAPE  C22015689   2.665   3.201   8.788  0.1173  0.6117 -0.8460
  143SAPE  H20R15690   2.627   3.163   8.691 -0.0681  1.7089 -1.2100
  143SAPE  H20S15691   2.769   3.234   8.767 -0.2944  2.3736 -0.3053
  143SAPE  H20T15692   2.607   3.292   8.813 -0.2694 -0.1370  1.1691
  143SAPE   C3315693   3.197   2.213  10.186 -0.1747  0.0838  0.2621
  143SAPE   H3X15694   3.291   2.267  10.161  0.8387 -1.4011  0.6478
  143SAPE   H3Y15695   3.128   2.292  10.222  2.1978  2.6935 -0.5510
  143SAPE   C3415696   3.162   2.146  10.050 -0.5683 -0.6088 -0.3468
  143SAPE   H4X15697   3.078   2.074  10.060 -0.2133 -1.4244 -2.7185
  143SAPE   H4Y15698   3.254   2.090  10.024  0.6722  0.2923  1.8668
  143SAPE   C3515699   3.144   2.234   9.928 -0.0381 -0.2150 -0.2808
  143SAPE   H5X15700   3.232   2.301   9.918 -1.4111  1.3853 -2.8721
  143SAPE   H5Y15701   3.054   2.299   9.934 -0.9993 -1.2548 -2.5054
  143SAPE   C3615702   3.136   2.149   9.804  0.0214  0.6406 -0.2585
  143SAPE   H6X15703   3.048   2.083   9.803 -0.9934  1.9594 -1.1106
  143SAPE   H6Y15704   3.227   2.085   9.795 -1.2925 -1.0905 -1.8989
  143SAPE   C3715705   3.127   2.235   9.674  0.3118  0.2618 -0.3494
  143SAPE   H7X15706   3.219   2.296   9.679 -0.3321  1.1507  2.1726
  143SAPE   H7Y15707   3.041   2.305   9.681 -0.3394 -0.4080 -1.3239
  143SAPE   C3815708   3.129   2.158   9.542  0.4455 -0.1356  0.2401
  143SAPE   H8X15709   3.031   2.107   9.540 -0.6148  1.5844  2.9079
  143SAPE   H8Y15710   3.198   2.071   9.549 -1.0661 -1.8680 -3.6427
  143SAPE   C3915711   3.153   2.252   9.426 -0.0933  0.0686 -0.5440
  143SAPE   H9X15712   3.257   2.290   9.438  0.2751 -1.2023  0.4362
  143SAPE   H9Y15713   3.084   2.340   9.418 -0.1599  0.0580 -0.0897
  143SAPE  C31015714   3.151   2.180   9.295  0.0306  0.8872  0.3678
  143SAPE  H10X15715   3.050   2.135   9.282 -0.2007  0.6463  2.5766
  143SAPE  H10Y15716   3.227   2.099   9.292 -2.9381 -2.1135 -1.7994
  143SAPE  C31115717   3.171   2.286   9.189  0.0729 -0.0168  0.8916
  143SAPE  H11X15718   3.267   2.342   9.192 -0.0337  0.1467  1.3043
  143SAPE  H11Y15719   3.084   2.355   9.202  0.2893  0.3426  0.4848
  143SAPE  C31215720   3.158   2.227   9.046 -0.0372 -0.6664  1.4002
  143SAPE  H12X15721   3.124   2.320   8.995  1.3754 -0.1366  1.3741
  143SAPE  H12Y15722   3.069   2.160   9.052  0.2068 -0.9080  2.4854
  143SAPE  C31315723   3.281   2.161   8.986 -0.9437  0.1590 -0.3026
  143SAPE  H13X15724   3.309   2.084   9.060  0.2360 -0.9153 -1.7985
  143SAPE  H13Y15725   3.360   2.239   8.987 -2.3690  1.6661  0.5837
  143SAPE  C31415726   3.265   2.113   8.847  0.5938 -0.3354 -0.7726
  143SAPE  H14X15727   3.292   2.188   8.769  0.0418 -0.8541 -1.4807
  143SAPE  H14Y15728   3.158   2.086   8.831  0.5045 -0.2160 -0.3897
  143SAPE  C31515729   3.359   1.991   8.812 -0.6543  0.5073 -0.0518
  143SAPE  H15X15730   3.291   1.903   8.806 -1.0368  0.8742 -4.0353
  143SAPE  H15Y15731   3.445   1.977   8.881 -1.0777 -0.8341  0.2182
  143SAPE  C31615732   3.420   1.994   8.661 -0.1592 -0.3545  0.5794
  143SAPE  H16X15733   3.486   1.908   8.633  1.0743 -0.1005  2.4643
  143SAPE  H16Y15734   3.476   2.088   8.645 -2.0362  0.5410 -1.0365
  143SAPE  C31715735   3.310   2.013   8.555 -0.6232 -0.5777  0.4458
  143SAPE  H17X15736   3.260   2.112   8.556  1.8432  0.7553  0.9874
  143SAPE  H17Y15737   3.225   1.945   8.576 -2.4727  1.2083 -0.8770
  143SAPE  C31815738   3.353   1.990   8.410 -0.5262  0.1344 -0.1675
  143SAPE  H18X15739   3.366   1.880   8.402  0.5223  0.3094 -0.9891
  143SAPE  H18Y15740   3.449   2.037   8.379  0.0272 -0.9553 -0.1462
  143SAPE  H18Z15741   3.265   2.013   8.346  0.7106  1.4396 -1.4634
  144SAPE     N15742   1.985   1.401  10.645 -0.4419 -0.1191  0.3717
  144SAPE   HN115743   2.046   1.480  10.675 -0.0004  1.1126 -3.3262
  144SAPE   HN215744   1.897   1.451  10.619  1.7453  2.3703 -3.1859
  144SAPE   HN315745   1.970   1.342  10.729  2.4275 -2.0765 -0.3331
  144SAPE   C1215746   2.055   1.321  10.542  0.4104 -0.0508  0.1632
  144SAPE  H12A15747   2.097   1.397  10.473  2.6662 -0.2392  1.2528
  144SAPE  H12B15748   1.974   1.259  10.497 -0.7488  2.2857 -1.2091
  144SAPE   C1115749   2.178   1.237  10.596 -0.6679 -0.0238 -0.1918
  144SAPE  H11A15750   2.264   1.307  10.582 -2.1404  1.7336 -0.7828
  144SAPE  H11B15751   2.192   1.155  10.522  0.2047  1.0210 -1.2225
  144SAPE     P15752   2.244   1.087  10.802 -0.0573  0.4695  0.1838
  144SAPE   O1315753   2.359   1.154  10.860 -0.2497  0.4416  0.0757
  144SAPE   O1415754   2.145   1.031  10.898 -0.5076 -0.0544  0.1297
  144SAPE   O1215755   2.164   1.202  10.731  0.5089 -0.3936  0.0764
  144SAPE   O1115756   2.275   0.983  10.688 -0.5070 -0.6018 -0.1255
  144SAPE    C115757   2.399   0.908  10.702 -0.4094 -0.1212 -0.5296
  144SAPE    HA15758   2.447   0.913  10.802 -1.5767  0.3035  0.0296
  144SAPE    HB15759   2.377   0.800  10.687  1.3047 -0.4317 -1.0448
  144SAPE    C215760   2.499   0.957  10.593 -0.2122 -0.2197 -0.1577
  144SAPE    HS15761   2.514   1.066  10.605  2.6566 -0.6564  0.9506
  144SAPE   O2115762   2.435   0.911  10.475  0.2629  0.2043  0.0253
  144SAPE   C2115763   2.446   0.995  10.373  0.9329  0.6197  0.1757
  144SAPE   O2215764   2.465   1.116  10.389 -0.1451  0.6676 -0.0576
  144SAPE   C2215765   2.411   0.921  10.243 -0.3129 -0.6074 -0.4557
  144SAPE   H2R15766   2.474   0.964  10.163 -0.9036  2.1005  0.4309
  144SAPE   H2S15767   2.422   0.811  10.256 -0.4194 -0.7467 -1.4942
  144SAPE    C315768   2.647   0.898  10.588 -0.1394 -0.9181 -0.3185
  144SAPE    HX15769   2.630   0.789  10.580 -2.6684 -0.4903 -1.9025
  144SAPE    HY15770   2.693   0.912  10.688 -0.8006  1.6129 -0.2872
  144SAPE   O3115771   2.728   0.954  10.481  0.0253  0.3261 -0.5605
  144SAPE   C3115772   2.797   1.063  10.521 -0.3967 -0.8965  0.7159
  144SAPE   O3215773   2.803   1.104  10.635 -0.2126  0.1178  0.1633
  144SAPE   C3215774   2.895   1.114  10.407 -0.1984  0.2025 -0.3741
  144SAPE   H2X15775   2.965   1.188  10.452  0.0287 -0.0828 -0.2480
  144SAPE   H2Y15776   2.832   1.167  10.333  0.0643 -0.5396 -1.1594
  144SAPE   C2315777   2.254   0.951  10.216 -0.1271  0.2617 -0.2596
  144SAPE   H3R15778   2.199   0.928  10.310  0.6179  0.1756  0.1611
  144SAPE   H3S15779   2.221   0.873  10.144 -0.5558 -3.0328  3.1584
  144SAPE   C2415780   2.248   1.089  10.151  0.3819 -0.7769  0.0574
  144SAPE   H4R15781   2.319   1.092  10.066 -1.0632  2.3755 -1.1743
  144SAPE   H4S15782   2.272   1.174  10.218 -1.9561 -1.3875  1.8097
  144SAPE   C2515783   2.113   1.122  10.099 -0.5082 -0.5162 -0.9117
  144SAPE   H5R15784   2.043   1.123  10.185  2.7167  2.3943  1.9869
  144SAPE   C2615785   2.075   1.147   9.971 -0.5542 -0.6162 -0.7781
  144SAPE   H6R15786   1.974   1.186   9.953 -0.8988 -1.1077  0.0102
  144SAPE   C2715787   2.169   1.148   9.856  0.3115 -0.1677 -0.0328
  144SAPE   H7R15788   2.218   1.048   9.845  0.3053 -0.1105 -0.6166
  144SAPE   H7S15789   2.245   1.227   9.871  1.5637 -1.2402 -0.4630
  144SAPE   C2815790   2.106   1.152   9.718 -0.2953  0.4683 -0.2764
  144SAPE   H8R15791   1.998   1.132   9.717  0.0491 -1.5961 -0.8645
  144SAPE   C2915792   2.165   1.181   9.601  0.2095 -0.0881  0.1079
  144SAPE   H9R15793   2.101   1.184   9.512  1.3908 -0.6274 -0.7924
  144SAPE  C21015794   2.308   1.215   9.582 -0.1599  0.8051  0.1401
  144SAPE  H10R15795   2.330   1.269   9.677 -1.2392  2.0232 -0.2821
  144SAPE  H10S15796   2.322   1.290   9.502 -0.6586 -1.0448 -1.7837
  144SAPE  C21115797   2.393   1.088   9.563  0.0088  1.1411  0.5217
  144SAPE  H11R15798   2.411   1.033   9.656  0.3156  0.1310 -0.1146
  144SAPE  C21215799   2.441   1.031   9.449 -0.5473 -0.6997 -0.1642
  144SAPE  H12R15800   2.492   0.934   9.457  1.8283  0.5642  1.2332
  144SAPE  C21315801   2.428   1.089   9.308 -0.6051 -0.1743 -0.1345
  144SAPE  H13R15802   2.507   1.056   9.238  0.7880 -0.4919  1.5329
  144SAPE  H13S15803   2.460   1.195   9.314  0.2636 -0.4974  1.4769
  144SAPE  C21415804   2.296   1.071   9.241  0.3448  0.0211 -0.7007
  144SAPE  H14R15805   2.227   0.993   9.277  0.2347  0.3579 -0.1812
  144SAPE  C21515806   2.253   1.124   9.127 -0.0643  0.0065  0.3963
  144SAPE  H15R15807   2.147   1.114   9.099  0.4875  1.7761 -2.6952
  144SAPE  C21615808   2.329   1.212   9.026 -0.1713 -0.4741  0.0991
  144SAPE  H16R15809   2.432   1.231   9.063 -1.5145  1.5143  3.3652
  144SAPE  H16S15810   2.281   1.310   9.004  1.8756  0.4193 -0.6157
  144SAPE  C21715811   2.354   1.141   8.882  0.2267 -0.6122 -0.3584
  144SAPE  H17R15812   2.396   1.039   8.900 -2.0527 -2.1605 -2.9833
  144SAPE  H17S15813   2.434   1.203   8.837 -0.6690  2.4893  1.9660
  144SAPE  C21815814   2.229   1.134   8.799  0.3406 -0.2275 -0.6382
  144SAPE  H18R15815   2.143   1.127   8.869  1.1349 -4.1696  0.2261
  144SAPE  H18S15816   2.233   1.049   8.728 -0.5733 -3.1518  2.5035
  144SAPE  C21915817   2.216   1.268   8.714  0.1101  0.1952 -0.8057
  144SAPE  H19R15818   2.202   1.343   8.795  1.0495  0.1538 -0.5939
  144SAPE  H19S15819   2.120   1.266   8.658 -1.1187 -0.5727  1.2056
  144SAPE  C22015820   2.336   1.310   8.631  0.0307  0.0963  0.4867
  144SAPE  H20R15821   2.318   1.358   8.532  2.2789 -2.0699 -1.1040
  144SAPE  H20S15822   2.405   1.225   8.612 -0.3645 -0.0479 -0.3627
  144SAPE  H20T15823   2.402   1.371   8.696 -0.0857 -1.6157  2.3052
  144SAPE   C3315824   2.967   1.001  10.342 -0.0874 -0.0794 -0.2805
  144SAPE   H3X15825   3.031   1.025  10.255  0.9136  0.4008  0.5745
  144SAPE   H3Y15826   2.902   0.916  10.310 -1.2100  1.1503 -1.3807
  144SAPE   C3415827   3.067   0.940  10.435  0.0387  0.2510 -0.4146
  144SAPE   H4X15828   3.016   0.876  10.510  0.1392 -0.5325 -0.9941
  144SAPE   H4Y15829   3.115   1.009  10.508 -1.5537 -1.0098  1.9289
  144SAPE   C3515830   3.169   0.851  10.363 -0.3350  0.1858 -0.5988
  144SAPE   H5X15831   3.227   0.802  10.444 -2.3773  1.0745  1.5170
  144SAPE   H5Y15832   3.248   0.915  10.318  0.2298  0.8816  1.3087
  144SAPE   C3615833   3.124   0.754  10.252 -0.1361  0.0696  0.5423
  144SAPE   H6X15834   3.078   0.810  10.168 -0.2268  0.7302  1.0237
  144SAPE   H6Y15835   3.056   0.674  10.289 -1.0275 -0.5269 -2.1300
  144SAPE   C3715836   3.244   0.673  10.195 -0.5172  0.5145 -0.7877
  144SAPE   H7X15837   3.288   0.624  10.284 -0.5299 -1.1834 -1.6516
  144SAPE   H7Y15838   3.325   0.741  10.163 -0.1229  0.9215  0.9744
  144SAPE   C3815839   3.211   0.584  10.078  0.1170 -0.0999 -0.3319
  144SAPE   H8X15840   3.104   0.557  10.088 -0.1994  1.5665  1.3727
  144SAPE   H8Y15841   3.280   0.497  10.082  0.5021  0.2223  0.4513
  144SAPE   C3915842   3.237   0.661   9.946  0.2998  0.4949  0.6605
  144SAPE   H9X15843   3.333   0.715   9.962 -0.6328  2.4527 -0.0389
  144SAPE   H9Y15844   3.157   0.738   9.942  0.6276  0.8823  1.3427
  144SAPE  C31015845   3.241   0.573   9.823 -0.4888  0.2433  0.8190
  144SAPE  H10X15846   3.140   0.528   9.811  0.1386 -0.8002 -0.8814
  144SAPE  H10Y15847   3.319   0.494   9.831  0.0741  0.7244  0.2241
  144SAPE  C31115848   3.269   0.667   9.706  0.6509  0.2867  0.5896
  144SAPE  H11X15849   3.377   0.695   9.711  1.2480 -1.4810 -1.2155
  144SAPE  H11Y15850   3.208   0.758   9.726 -0.6683 -0.3021 -0.6111
  144SAPE  C31215851   3.244   0.621   9.556 -0.0642 -0.0446 -0.6349
  144SAPE  H12X15852   3.136   0.612   9.532  0.5157  0.1722 -3.6692
  144SAPE  H12Y15853   3.297   0.524   9.549  1.4124  0.3163  3.0621
  144SAPE  C31315854   3.297   0.723   9.454 -0.5219  0.2574  0.4259
  144SAPE  H13X15855   3.393   0.764   9.492 -1.2478  0.0138  2.6246
  144SAPE  H13Y15856   3.234   0.814   9.444 -0.2957  0.4523  0.7615
  144SAPE  C31415857   3.322   0.661   9.313 -0.1432 -0.2446 -0.3141
  144SAPE  H14X15858   3.398   0.580   9.313 -0.6750 -0.7510  0.0555
  144SAPE  H14Y15859   3.356   0.746   9.251 -0.4712  0.9528  1.0696
  144SAPE  C31515860   3.189   0.599   9.260  0.3628 -0.1351  0.0927
  144SAPE  H15X15861   3.103   0.658   9.295  0.3179 -0.5205  0.6477
  144SAPE  H15Y15862   3.180   0.503   9.315 -0.2684  1.7894  3.6328
  144SAPE  C31615863   3.198   0.596   9.107 -0.2177  1.0704 -0.7446
  144SAPE  H16X15864   3.284   0.528   9.090  0.4765  1.7904 -0.2138
  144SAPE  H16Y15865   3.235   0.690   9.060 -0.5218  0.7751 -1.6106
  144SAPE  C31715866   3.077   0.529   9.036  0.1544 -0.2784  0.1112
  144SAPE  H17X15867   2.989   0.593   9.062  0.3928 -0.6944  2.0887
  144SAPE  H17Y15868   3.052   0.429   9.079  1.1730  0.0832  1.6142
  144SAPE  C31815869   3.099   0.516   8.880 -0.3017  0.4336 -0.7812
  144SAPE  H18X15870   3.164   0.428   8.860  1.6506  1.2004  1.7925
  144SAPE  H18Y15871   3.130   0.614   8.839 -3.3109  2.4136  1.2605
  144SAPE  H18Z15872   2.993   0.505   8.847 -1.6289  4.3260  1.5944
  145SAPE     N15873   4.713   2.082  10.996 -0.0540  0.2655  0.1193
  145SAPE   HN115874   4.698   2.112  11.095 -0.8908  0.0634  0.0598
  145SAPE   HN215875   4.639   2.015  10.967  1.7460 -1.5628 -0.4774
  145SAPE   HN315876   4.803   2.030  10.995  0.3822  0.9560  1.4941
  145SAPE   C1215877   4.721   2.197  10.900  0.5302  0.2935 -0.1513
  145SAPE  H12A15878   4.621   2.241  10.883  0.1711 -1.2965 -2.7396
  145SAPE  H12B15879   4.743   2.148  10.803  1.5313  0.7623 -0.1725
  145SAPE   C1115880   4.824   2.305  10.941  0.2034  0.4343  0.2049
  145SAPE  H11A15881   4.777   2.344  11.034 -0.8659 -1.1104  0.3463
  145SAPE  H11B15882   4.826   2.388  10.867  0.9468  0.7367  0.5593
  145SAPE     P15883   5.058   2.300  11.059 -0.2678 -0.4179 -0.2350
  145SAPE   O1315884   5.001   2.277  11.192 -0.4455 -1.0958 -0.1642
  145SAPE   O1415885   5.187   2.235  11.033 -0.7918  0.0680 -0.6793
  145SAPE   O1215886   4.951   2.239  10.952 -0.1945  0.2808 -0.4773
  145SAPE   O1115887   5.053   2.460  11.033  0.5421 -0.6081  0.0152
  145SAPE    C115888   5.171   2.530  10.982 -0.1137  0.3927 -0.6264
  145SAPE    HA15889   5.190   2.618  11.046 -0.3084 -0.4363  0.6076
  145SAPE    HB15890   5.267   2.475  10.990 -0.8597 -0.9443 -0.4670
  145SAPE    C215891   5.150   2.565  10.831  0.5224  0.5899 -0.2435
  145SAPE    HS15892   5.243   2.613  10.795  0.7424  0.8357  0.6280
  145SAPE   O2115893   5.027   2.651  10.810 -0.0564 -0.5273 -0.7018
  145SAPE   C2115894   5.058   2.781  10.830 -0.4844 -0.3007  0.2560
  145SAPE   O2215895   5.164   2.828  10.871 -0.0079  0.3972  0.2255
  145SAPE   C2215896   4.939   2.863  10.777 -0.0154 -0.5842  0.1408
  145SAPE   H2R15897   4.846   2.812  10.808 -0.2252  0.0533  0.5824
  145SAPE   H2S15898   4.939   2.963  10.825 -1.4269 -2.3627  4.2518
  145SAPE    C315899   5.131   2.437  10.745 -0.3424  0.2446  0.6862
  145SAPE    HX15900   5.025   2.407  10.760 -0.1357 -0.1161  1.4624
  145SAPE    HY15901   5.194   2.357  10.790 -0.8653 -0.2706  0.5159
  145SAPE   O3115902   5.161   2.465  10.605  0.1694  0.6660 -0.4524
  145SAPE   C3115903   5.077   2.429  10.506 -0.0838 -0.2158 -0.0332
  145SAPE   O3215904   4.980   2.357  10.525  0.3531  0.2500  0.2171
  145SAPE   C3215905   5.135   2.472  10.364  0.0622  0.1492 -0.1290
  145SAPE   H2X15906   5.245   2.474  10.377  0.0631  1.0668 -0.2434
  145SAPE   H2Y15907   5.111   2.574  10.326  2.2854 -0.3553 -3.3198
  145SAPE   C2315908   4.948   2.896  10.620  0.1356 -0.6225  0.2240
  145SAPE   H3R15909   5.043   2.947  10.594  0.2965 -0.1997  1.5939
  145SAPE   H3S15910   4.867   2.970  10.601  0.7205  0.4187  1.6422
  145SAPE   C2415911   4.937   2.772  10.531 -0.5184  0.1655  1.0909
  145SAPE   H4R15912   5.022   2.705  10.557 -1.4421 -2.3904 -1.9518
  145SAPE   H4S15913   4.958   2.798  10.425 -1.4328 -1.8460  0.3639
  145SAPE   C2515914   4.812   2.695  10.549 -0.4254 -0.2677  0.1059
  145SAPE   H5R15915   4.768   2.689  10.649 -1.9388  0.1386 -0.5181
  145SAPE   C2615916   4.738   2.650  10.447 -0.4039  0.2491  0.0038
  145SAPE   H6R15917   4.645   2.603  10.482  0.7676  0.3641  3.7274
  145SAPE   C2715918   4.770   2.663  10.305 -0.4292 -0.0656 -0.1511
  145SAPE   H7R15919   4.857   2.605  10.269  0.2332  1.0334 -0.3565
  145SAPE   H7S15920   4.775   2.770  10.274 -3.5442  0.4507  0.7777
  145SAPE   C2815921   4.652   2.626  10.219 -0.3751  0.5192  0.0479
  145SAPE   H8R15922   4.561   2.609  10.280  0.1235 -0.5168  0.5234
  145SAPE   C2915923   4.654   2.595  10.084  0.3519  0.4349 -0.1433
  145SAPE   H9R15924   4.563   2.554  10.037  1.5702 -1.3706 -1.0397
  145SAPE  C21015925   4.769   2.596   9.980  0.2424 -0.2917  0.0972
  145SAPE  H10R15926   4.853   2.652  10.026 -0.0424 -0.3275  0.6820
  145SAPE  H10S15927   4.726   2.660   9.900 -3.8404 -2.1347  0.5258
  145SAPE  C21115928   4.822   2.458   9.946  0.5068 -0.6027 -0.0013
  145SAPE  H11R15929   4.857   2.405  10.036 -2.4140 -0.1864  1.5106
  145SAPE  C21215930   4.835   2.408   9.822 -0.0476 -0.0676 -0.2427
  145SAPE  H12R15931   4.874   2.305   9.817 -0.4774 -0.2001 -0.8962
  145SAPE  C21315932   4.792   2.479   9.697 -0.0074  0.6075  1.0137
  145SAPE  H13R15933   4.884   2.476   9.635 -0.6140 -0.6081  0.1352
  145SAPE  H13S15934   4.770   2.587   9.709 -1.7981  0.6787 -1.8857
  145SAPE  C21415935   4.676   2.421   9.622 -0.1494  0.8080  0.1990
  145SAPE  H14R15936   4.616   2.347   9.677  0.5351  0.8591  1.0352
  145SAPE  C21515937   4.650   2.451   9.493  0.5778  0.4343 -0.4602
  145SAPE  H15R15938   4.561   2.398   9.456  0.9364 -2.2537  2.0871
  145SAPE  C21615939   4.724   2.547   9.405  0.6642  0.4100 -0.3814
  145SAPE  H16R15940   4.775   2.499   9.320  2.0561 -0.8143  1.0756
  145SAPE  H16S15941   4.805   2.594   9.466 -0.7162  2.6725 -0.1553
  145SAPE  C21715942   4.636   2.659   9.355 -0.5330 -0.2730 -0.4801
  145SAPE  H17R15943   4.699   2.730   9.297 -2.1045  2.2562  0.6717
  145SAPE  H17S15944   4.591   2.715   9.441  1.6563  0.0750  0.5002
  145SAPE  C21815945   4.535   2.598   9.256 -0.0134 -0.1118 -0.3137
  145SAPE  H18R15946   4.455   2.547   9.312 -0.6421  2.0666  0.9077
  145SAPE  H18S15947   4.585   2.531   9.183 -2.1762  0.4711 -2.4591
  145SAPE  C21915948   4.467   2.703   9.173 -0.1063  0.1028 -0.3856
  145SAPE  H19R15949   4.403   2.643   9.104 -1.2373  0.2392  0.5269
  145SAPE  H19S15950   4.536   2.756   9.104 -0.4919  0.2160 -0.6938
  145SAPE  C22015951   4.388   2.809   9.244 -0.3961 -0.3799  0.2919
  145SAPE  H20R15952   4.323   2.755   9.317 -0.8062 -0.0047  0.2081
  145SAPE  H20S15953   4.324   2.860   9.169  1.7432  2.6024  0.3387
  145SAPE  H20T15954   4.461   2.872   9.298 -0.5160  0.2714 -0.2945
  145SAPE   C3315955   5.098   2.357  10.258  0.6128 -0.5629 -0.5375
  145SAPE   H3X15956   4.989   2.337  10.250 -0.1693  2.6458  0.6291
  145SAPE   H3Y15957   5.158   2.266  10.281  1.8712  0.6714  1.3675
  145SAPE   C3415958   5.149   2.410  10.126 -0.1027 -0.6674  0.3479
  145SAPE   H4X15959   5.243   2.468  10.141 -0.5758  0.1755  0.1210
  145SAPE   H4Y15960   5.077   2.481  10.081 -0.6520 -1.3030  0.2190
  145SAPE   C3515961   5.182   2.297  10.026  0.1095 -0.0565  0.2431
  145SAPE   H5X15962   5.086   2.259   9.984  1.0347 -0.1170 -1.9619
  145SAPE   H5Y15963   5.228   2.210  10.076 -0.6639 -2.8838 -3.5070
  145SAPE   C3615964   5.251   2.358   9.898  0.3410  0.5128 -0.7959
  145SAPE   H6X15965   5.360   2.360   9.917  0.2964  0.7929 -0.5706
  145SAPE   H6Y15966   5.211   2.457   9.870 -1.3408  0.0807 -0.0149
  145SAPE   C3715967   5.226   2.253   9.781  0.1072 -0.3116  0.1655
  145SAPE   H7X15968   5.119   2.256   9.750  0.5125  0.8944 -1.2749
  145SAPE   H7Y15969   5.248   2.154   9.825 -2.1640 -1.4033 -0.9871
  145SAPE   C3815970   5.313   2.266   9.659 -0.5259 -0.6780 -0.6512
  145SAPE   H8X15971   5.421   2.267   9.685 -1.0723 -0.2282  1.8653
  145SAPE   H8Y15972   5.285   2.358   9.604 -1.0566 -0.1665  0.4555
  145SAPE   C3915973   5.291   2.139   9.565 -0.0644 -0.5743 -0.2248
  145SAPE   H9X15974   5.186   2.138   9.529  0.1319  0.5347 -0.8863
  145SAPE   H9Y15975   5.306   2.056   9.637 -1.0232  0.4733  1.2396
  145SAPE  C31015976   5.390   2.143   9.447 -0.1214 -0.8140 -0.0398
  145SAPE  H10X15977   5.442   2.046   9.438  2.8104  0.5168  1.4233
  145SAPE  H10Y15978   5.465   2.218   9.481 -2.2792  1.0734  0.8842
  145SAPE  C31115979   5.331   2.192   9.315 -0.8378 -0.0346 -0.8616
  145SAPE  H11X15980   5.266   2.281   9.330  0.8946  1.5266 -2.0619
  145SAPE  H11Y15981   5.263   2.113   9.277 -1.3042  1.0455 -2.3742
  145SAPE  C31215982   5.419   2.200   9.186  0.1833  0.6708  0.1768
  145SAPE  H12X15983   5.476   2.295   9.199 -1.8824  1.7809  1.6880
  145SAPE  H12Y15984   5.342   2.203   9.106 -1.4199  0.2394  1.6581
  145SAPE  C31315985   5.507   2.079   9.170 -0.0178  0.2553 -0.6551
  145SAPE  H13X15986   5.453   1.985   9.193 -0.9269  0.7879 -0.5783
  145SAPE  H13Y15987   5.592   2.093   9.240 -0.2033  1.0293 -0.5723
  145SAPE  C31415988   5.550   2.058   9.022 -0.4631  0.1314  0.5964
  145SAPE  H14X15989   5.603   2.151   8.993  2.0615 -1.3121  0.2539
  145SAPE  H14Y15990   5.461   2.054   8.956 -2.2244  1.6605  2.7356
  145SAPE  C31515991   5.651   1.947   9.003  0.1452 -0.1175 -0.4150
  145SAPE  H15X15992   5.631   1.875   9.085 -1.2452  2.0355  1.2193
  145SAPE  H15Y15993   5.754   1.975   9.033  0.4085 -1.3172 -0.1429
  145SAPE  C31615994   5.648   1.891   8.857 -0.0006 -0.0053  0.0415
  145SAPE  H16X15995   5.710   1.799   8.852 -1.1472 -0.7322 -1.8621
  145SAPE  H16Y15996   5.712   1.960   8.798  0.6431  0.0799  0.8229
  145SAPE  C31715997   5.515   1.866   8.786  0.3337  0.1725 -0.3024
  145SAPE  H17X15998   5.528   1.820   8.686 -3.4034  0.8175 -1.2526
  145SAPE  H17Y15999   5.466   1.963   8.762 -1.3463 -0.6818 -0.4939
  145SAPE  C31816000   5.417   1.779   8.859  0.0939  0.9313  0.5950
  145SAPE  H18X16001   5.458   1.682   8.895 -1.7541 -0.2492 -0.3461
  145SAPE  H18Y16002   5.322   1.763   8.805  0.6858 -1.1086  0.0864
  145SAPE  H18Z16003   5.393   1.830   8.955 -0.2845 -1.3376  1.7826
  146SAPE     N16004   1.346   1.865  11.064  0.1811  0.0983 -0.0334
  146SAPE   HN116005   1.356   1.829  10.967  0.1292 -1.6683  0.5742
  146SAPE   HN216006   1.423   1.934  11.077 -1.3214  1.7932  0.2143
  146SAPE   HN316007   1.355   1.790  11.135 -2.0767 -2.0148 -1.8304
  146SAPE   C1216008   1.219   1.938  11.047 -0.3526 -0.1426 -1.3235
  146SAPE  H12A16009   1.203   1.984  11.147  0.8897 -1.4017 -0.4999
  146SAPE  H12B16010   1.141   1.861  11.032  0.1842 -0.2977 -3.6280
  146SAPE   C1116011   1.219   2.054  10.948 -0.3522 -0.0745 -0.7175
  146SAPE  H11A16012   1.268   2.144  10.992 -1.8961  1.5516 -2.1725
  146SAPE  H11B16013   1.116   2.094  10.939 -0.3041  0.0802 -0.5796
  146SAPE     P16014   1.286   2.092  10.681  0.4151 -0.0937 -0.0784
  146SAPE   O1316015   1.160   2.158  10.647  0.0255 -0.1144 -0.3312
  146SAPE   O1416016   1.409   2.175  10.679 -0.3763 -0.4940  0.2008
  146SAPE   O1216017   1.275   2.014  10.820 -0.0349 -0.7242 -0.0952
  146SAPE   O1116018   1.301   1.970  10.581  0.2166 -0.4677  0.3800
  146SAPE    C116019   1.407   1.969  10.485  0.4773  0.1456  0.3087
  146SAPE    HA16020   1.505   2.010  10.519  1.0638 -1.6374  0.8979
  146SAPE    HB16021   1.433   1.861  10.478 -0.7777 -0.2787  1.7382
  146SAPE    C216022   1.372   2.024  10.341  0.6587  0.1123  0.1090
  146SAPE    HS16023   1.458   1.999  10.275  1.6739  0.2605  1.3386
  146SAPE   O2116024   1.343   2.168  10.342 -0.5489  0.3262 -0.2680
  146SAPE   C2116025   1.454   2.239  10.346  1.0569  0.2812 -0.6328
  146SAPE   O2216026   1.565   2.196  10.334 -0.7216 -0.2485  0.3201
  146SAPE   C2216027   1.408   2.391  10.345  0.1772  0.0562  0.3540
  146SAPE   H2R16028   1.340   2.393  10.432  1.6870  0.9807  1.5578
  146SAPE   H2S16029   1.490   2.466  10.352 -0.6889  1.1589 -0.7064
  146SAPE    C316030   1.266   1.929  10.276  0.0290  0.6128 -0.9576
  146SAPE    HX16031   1.163   1.950  10.312 -1.1829 -2.2939 -2.3859
  146SAPE    HY16032   1.282   1.822  10.304 -0.5804  0.5922 -0.6721
  146SAPE   O3116033   1.274   1.945  10.132 -0.0183 -0.3083 -0.0546
  146SAPE   C3116034   1.192   2.030  10.074 -0.7399 -0.5942 -0.2707
  146SAPE   O3216035   1.110   2.100  10.122  0.8458 -0.5772  0.4064
  146SAPE   C3216036   1.202   2.022   9.921 -0.1275 -0.0886 -0.7832
  146SAPE   H2X16037   1.100   2.005   9.880  0.2061 -0.6247 -1.4007
  146SAPE   H2Y16038   1.263   1.934   9.893  0.6831  0.3173 -0.3142
  146SAPE   C2316039   1.326   2.421  10.215 -0.8605  0.2000  1.1920
  146SAPE   H3R16040   1.294   2.528  10.217  1.6704  1.0763 -0.6928
  146SAPE   H3S16041   1.244   2.347  10.200 -0.7997  0.5473 -1.1713
  146SAPE   C2416042   1.413   2.392  10.082  0.7940 -0.8693 -0.0377
  146SAPE   H4R16043   1.341   2.402   9.998  0.0028 -1.7887  0.5099
  146SAPE   H4S16044   1.459   2.291  10.086  1.4968 -0.5398  0.5137
  146SAPE   C2516045   1.517   2.496  10.066  0.7076 -0.8621 -1.0927
  146SAPE   H5R16046   1.563   2.524  10.162  0.0752 -3.2498  0.0011
  146SAPE   C2616047   1.555   2.566   9.964 -0.1930 -0.1397 -0.5266
  146SAPE   H6R16048   1.630   2.644   9.985 -0.9677  0.5624 -0.3298
  146SAPE   C2716049   1.516   2.546   9.820  0.2052 -0.2893 -0.1057
  146SAPE   H7R16050   1.502   2.647   9.777 -0.1848  0.6884  2.1701
  146SAPE   H7S16051   1.420   2.490   9.824  0.4146 -0.6433  0.1438
  146SAPE   C2816052   1.594   2.453   9.730 -0.3557 -0.1410 -0.4245
  146SAPE   H8R16053   1.688   2.417   9.774 -1.6853 -1.5017  1.5080
  146SAPE   C2916054   1.576   2.437   9.594  0.0323 -0.0278 -0.6285
  146SAPE   H9R16055   1.644   2.381   9.529  1.0296  2.6432 -2.0335
  146SAPE  C21016056   1.472   2.509   9.507 -0.3938 -0.2205  0.8346
  146SAPE  H10R16057   1.389   2.559   9.561  2.1908  3.1541  2.0716
  146SAPE  H10S16058   1.434   2.433   9.436 -0.1190  0.1049  0.3307
  146SAPE  C21116059   1.558   2.607   9.436 -0.4450  0.0771  0.0289
  146SAPE  H11R16060   1.617   2.676   9.498 -1.3018  1.9031 -1.0882
  146SAPE  C21216061   1.580   2.622   9.302  0.1371 -0.1777  0.5222
  146SAPE  H12R16062   1.648   2.697   9.260 -1.0888  0.2318 -0.7732
  146SAPE  C21316063   1.527   2.543   9.190  0.4185  0.5015  0.1349
  146SAPE  H13R16064   1.451   2.608   9.141 -2.7086 -1.7805  1.6318
  146SAPE  H13S16065   1.461   2.468   9.239 -2.0566  3.0551  1.0052
  146SAPE  C21416066   1.629   2.482   9.099 -0.7924 -0.1725 -0.3670
  146SAPE  H14R16067   1.731   2.495   9.138 -1.1912 -0.2843  0.7392
  146SAPE  C21516068   1.601   2.443   8.976  0.4946  0.8213 -0.0604
  146SAPE  H15R16069   1.685   2.408   8.915  1.0240 -0.2286  1.2216
  146SAPE  C21616070   1.465   2.449   8.909  0.5634  0.3088  0.4470
  146SAPE  H16R16071   1.389   2.489   8.980  0.4257 -2.9999  2.3210
  146SAPE  H16S16072   1.423   2.355   8.869  3.1551  0.4588 -3.1965
  146SAPE  C21716073   1.465   2.539   8.781 -0.0209  0.1566 -0.7368
  146SAPE  H17R16074   1.540   2.621   8.783  0.8791 -0.6080  1.7838
  146SAPE  H17S16075   1.360   2.574   8.769 -0.0150  1.1222  1.4801
  146SAPE  C21816076   1.511   2.459   8.657  0.6265 -0.3357 -0.0965
  146SAPE  H18R16077   1.445   2.370   8.649 -0.4855  0.5343 -0.9066
  146SAPE  H18S16078   1.616   2.424   8.667  1.1435  1.1909  0.2274
  146SAPE  C21916079   1.497   2.546   8.532 -0.4312  0.7251  0.9523
  146SAPE  H19R16080   1.587   2.610   8.532  4.1609 -4.8819  0.1666
  146SAPE  H19S16081   1.400   2.600   8.528 -2.2147 -2.2358  1.2974
  146SAPE  C22016082   1.512   2.466   8.405 -0.5192  0.2962 -0.7556
  146SAPE  H20R16083   1.421   2.410   8.376 -1.0482  0.4781  0.5224
  146SAPE  H20S16084   1.606   2.407   8.411  0.5803  1.8741 -1.4374
  146SAPE  H20T16085   1.537   2.543   8.328  2.6094 -0.4820 -0.6788
  146SAPE   C3316086   1.256   2.161   9.862 -0.6512  0.1031 -0.3776
  146SAPE   H3X16087   1.361   2.184   9.887 -0.8878  0.9749 -0.1316
  146SAPE   H3Y16088   1.184   2.239   9.898 -1.4032 -1.4701  1.7035
  146SAPE   C3416089   1.245   2.169   9.707  0.4543 -0.3022  0.9785
  146SAPE   H4X16090   1.277   2.273   9.684 -1.2114 -0.0747 -0.4783
  146SAPE   H4Y16091   1.138   2.159   9.681  0.2579 -1.0073  1.9963
  146SAPE   C3516092   1.330   2.065   9.621 -0.0209 -0.3827 -0.1367
  146SAPE   H5X16093   1.275   1.968   9.630  0.7511 -0.6265  3.1568
  146SAPE   H5Y16094   1.425   2.050   9.677  0.4794 -0.0177 -0.8728
  146SAPE   C3616095   1.349   2.107   9.475 -0.0807 -0.5368 -0.4339
  146SAPE   H6X16096   1.426   2.049   9.419  0.0800  0.0277 -0.8111
  146SAPE   H6Y16097   1.370   2.216   9.476 -1.0486 -0.3366 -1.0168
  146SAPE   C3716098   1.226   2.086   9.386  0.0321  0.4060  0.0130
  146SAPE   H7X16099   1.151   2.145   9.442 -3.4698 -0.2113 -3.5957
  146SAPE   H7Y16100   1.187   1.982   9.390 -1.0932  0.7947 -0.6443
  146SAPE   C3816101   1.241   2.143   9.245 -0.4737  0.3052  0.3485
  146SAPE   H8X16102   1.275   2.248   9.254 -2.0556  1.1401 -2.3902
  146SAPE   H8Y16103   1.147   2.146   9.186  0.4589  4.1425 -1.2861
  146SAPE   C3916104   1.335   2.053   9.169 -0.3486  0.4750  0.4425
  146SAPE   H9X16105   1.317   1.950   9.207 -2.3743  1.5431  2.7320
  146SAPE   H9Y16106   1.436   2.095   9.188 -0.2701  0.8288 -0.7083
  146SAPE  C31016107   1.322   2.055   9.015 -0.5117  0.2736 -0.1226
  146SAPE  H10X16108   1.345   2.158   8.980  0.5031  0.3487  0.7020
  146SAPE  H10Y16109   1.220   2.025   8.982 -0.5168  0.5538 -0.3624
  146SAPE  C31116110   1.426   1.969   8.940  0.2017  0.0848 -0.7471
  146SAPE  H11X16111   1.385   1.867   8.922 -0.3077  0.1516  0.0261
  146SAPE  H11Y16112   1.515   1.961   9.006  0.4533 -0.2238 -1.1174
  146SAPE  C31216113   1.467   2.024   8.806  0.8885 -0.0440 -0.5947
  146SAPE  H12X16114   1.517   2.123   8.820  3.4366 -1.3955  0.4969
  146SAPE  H12Y16115   1.376   2.038   8.744  0.0088 -0.5428  0.5450
  146SAPE  C31316116   1.575   1.937   8.740  0.3942 -0.2499  0.1449
  146SAPE  H13X16117   1.536   1.835   8.717  0.4881 -0.3112  0.2549
  146SAPE  H13Y16118   1.667   1.937   8.802  0.0877  4.3686  0.9145
  146SAPE  C31416119   1.612   1.991   8.598  0.2612 -0.3042 -0.1972
  146SAPE  H14X16120   1.638   2.098   8.615 -1.9444  0.2156  0.1572
  146SAPE  H14Y16121   1.517   2.003   8.543 -0.3078  1.6032  1.1044
  146SAPE  C31516122   1.715   1.916   8.513 -1.4176  1.4565  0.2098
  146SAPE  H15X16123   1.675   1.815   8.490  0.0337  0.7735  0.5083
  146SAPE  H15Y16124   1.802   1.899   8.581 -0.7203  0.6155 -0.8397
  146SAPE  C31616125   1.749   1.995   8.382  1.0057 -0.5418 -0.3987
  146SAPE  H16X16126   1.762   2.104   8.399  0.8329 -0.4189 -1.0381
  146SAPE  H16Y16127   1.668   1.978   8.308 -0.2679 -1.1149  1.0582
  146SAPE  C31716128   1.885   1.952   8.316  0.3985 -0.8923 -0.0967
  146SAPE  H17X16129   1.967   1.969   8.388  0.6879 -0.9695 -0.4024
  146SAPE  H17Y16130   1.904   2.033   8.242  1.2875  0.4340  1.5110
  146SAPE  C31816131   1.893   1.806   8.258  0.6790 -0.3566 -0.0853
  146SAPE  H18X16132   2.000   1.780   8.269  0.6113 -1.1738 -1.1353
  146SAPE  H18Y16133   1.845   1.795   8.158  3.2966 -0.1920 -1.4479
  146SAPE  H18Z16134   1.833   1.733   8.317 -0.7236  0.8400  0.0231
  147SAPE     N16135   3.979   5.446   6.286 -0.0524  0.0964  0.1996
  147SAPE   HN116136   3.979   5.368   6.217 -3.0472 -1.1660  1.4430
  147SAPE   HN216137   3.902   5.513   6.265 -0.8239 -0.5869  0.7568
  147SAPE   HN316138   4.064   5.504   6.295  0.5872 -1.1356  2.9469
  147SAPE   C1216139   3.966   5.379   6.415 -0.2929  0.3828  0.2203
  147SAPE  H12A16140   3.959   5.450   6.501 -0.5624 -1.4810  1.7938
  147SAPE  H12B16141   4.064   5.328   6.426 -0.0268  0.4499 -1.5366
  147SAPE   C1116142   3.841   5.293   6.411  0.3498  0.0054  0.4244
  147SAPE  H11A16143   3.821   5.262   6.516  0.8227 -0.1457  0.4706
  147SAPE  H11B16144   3.860   5.199   6.354  2.1929 -0.7585  2.1783
  147SAPE     P16145   3.602   5.282   6.300 -0.2005  0.1365  0.2382
  147SAPE   O1316146   3.586   5.332   6.165 -0.0384  0.0712  0.0087
  147SAPE   O1416147   3.624   5.134   6.322  0.2128  0.1250 -0.0152
  147SAPE   O1216148   3.723   5.363   6.363 -0.3570 -0.1395  0.1925
  147SAPE   O1116149   3.488   5.319   6.392  0.4509 -0.1915 -0.5643
  147SAPE    C116150   3.486   5.456   6.452  0.0014  0.1935  0.8760
  147SAPE    HA16151   3.538   5.538   6.398  0.6302 -0.9270 -0.2620
  147SAPE    HB16152   3.378   5.483   6.454 -0.6196 -2.0732  2.5023
  147SAPE    C216153   3.540   5.456   6.600 -0.0428 -0.1936  0.0463
  147SAPE    HS16154   3.638   5.403   6.601 -0.2329 -0.5663  1.7189
  147SAPE   O2116155   3.442   5.404   6.693 -0.0751  0.6151  0.7417
  147SAPE   C2116156   3.485   5.293   6.758  0.0678  0.2072  0.9520
  147SAPE   O2216157   3.589   5.238   6.729  0.5101 -0.3392  0.5061
  147SAPE   C2216158   3.375   5.235   6.840 -0.0533  0.0489 -0.8838
  147SAPE   H2R16159   3.297   5.315   6.841  0.3967  0.4993 -1.2619
  147SAPE   H2S16160   3.341   5.141   6.792  2.6683 -0.0948 -2.7204
  147SAPE    C316161   3.581   5.600   6.650 -0.0852 -0.3582  0.1997
  147SAPE    HX16162   3.489   5.662   6.641 -0.2142 -0.8110 -2.4371
  147SAPE    HY16163   3.654   5.642   6.579 -1.1836  3.9343  1.3018
  147SAPE   O3116164   3.636   5.597   6.787 -0.1403  0.2183 -0.0623
  147SAPE   C3116165   3.766   5.549   6.798  0.0442 -0.7293 -0.0007
  147SAPE   O3216166   3.838   5.542   6.700 -0.5495  0.3981  0.1530
  147SAPE   C3216167   3.800   5.507   6.941 -0.0684  0.1054 -0.0539
  147SAPE   H2X16168   3.709   5.477   6.996  0.5167 -1.9268 -0.1020
  147SAPE   H2Y16169   3.849   5.593   6.992 -0.4960 -0.3772  1.2087
  147SAPE   C2316170   3.421   5.191   6.981  0.0845  0.4786  0.0081
  147SAPE   H3R16171   3.510   5.125   6.976 -0.8463 -0.8461  0.3511
  147SAPE   H3S16172   3.339   5.137   7.034  0.9426 -2.9775 -1.8549
  147SAPE   C2416173   3.452   5.305   7.088 -0.0789  0.0633 -0.8736
  147SAPE   H4R16174   3.524   5.372   7.037  0.7098 -0.4872 -0.5087
  147SAPE   H4S16175   3.496   5.269   7.183  0.0986 -0.8176 -1.2814
  147SAPE   C2516176   3.331   5.396   7.115  0.0884 -0.3201 -0.1761
  147SAPE   H5R16177   3.292   5.449   7.027 -2.6410 -1.1074  0.4309
  147SAPE   C2616178   3.258   5.400   7.230  0.2390  0.8800  0.6986
  147SAPE   H6R16179   3.168   5.463   7.225 -0.6998 -0.2627  2.2071
  147SAPE   C2716180   3.273   5.308   7.349  0.5822 -0.4359  0.8731
  147SAPE   H7R16181   3.277   5.200   7.325  0.6344 -0.0108 -1.2381
  147SAPE   H7S16182   3.181   5.319   7.410 -0.2495  0.2591 -0.4602
  147SAPE   C2816183   3.401   5.340   7.428 -0.1656  0.1614  0.1113
  147SAPE   H8R16184   3.485   5.375   7.366 -1.3151  2.1110 -0.4500
  147SAPE   C2916185   3.410   5.323   7.562 -0.0278  0.2523 -0.2543
  147SAPE   H9R16186   3.505   5.352   7.608  0.2345  1.7362 -1.6638
  147SAPE  C21016187   3.304   5.278   7.657  0.7324 -0.0585  0.3318
  147SAPE  H10R16188   3.224   5.231   7.596  2.8404 -2.6051 -0.6601
  147SAPE  H10S16189   3.256   5.365   7.706 -1.8694 -1.3818  0.3065
  147SAPE  C21116190   3.358   5.166   7.751  0.2223 -0.3905  0.1586
  147SAPE  H11R16191   3.396   5.074   7.705  1.7828 -0.0918  0.8087
  147SAPE  C21216192   3.390   5.181   7.880 -0.1810 -0.4862 -0.0334
  147SAPE  H12R16193   3.435   5.088   7.917 -0.9950 -0.8713  0.0099
  147SAPE  C21316194   3.368   5.308   7.966  0.1736  1.3013  1.1845
  147SAPE  H13R16195   3.326   5.387   7.901  1.9420  1.2363 -0.0984
  147SAPE  H13S16196   3.467   5.335   8.007 -0.4463  0.7607  3.1644
  147SAPE  C21416197   3.272   5.280   8.080  0.0580  0.2000 -0.7612
  147SAPE  H14R16198   3.164   5.291   8.062  0.2720  2.0178 -1.1771
  147SAPE  C21516199   3.307   5.262   8.212 -0.1529  0.5062 -0.2374
  147SAPE  H15R16200   3.222   5.250   8.281 -0.6197 -0.1012 -0.9041
  147SAPE  C21616201   3.442   5.247   8.273  0.0227  0.4340  0.0386
  147SAPE  H16R16202   3.517   5.308   8.219  0.3933 -2.7458 -3.4213
  147SAPE  H16S16203   3.487   5.147   8.256  0.4206  0.4432  0.9475
  147SAPE  C21716204   3.439   5.275   8.419  0.1495  0.4772  0.1007
  147SAPE  H17R16205   3.543   5.270   8.456  0.9123 -0.2491 -2.0034
  147SAPE  H17S16206   3.357   5.215   8.465 -0.3620  0.9668 -0.1590
  147SAPE  C21816207   3.403   5.420   8.446  1.0492 -0.0112 -0.5530
  147SAPE  H18R16208   3.298   5.446   8.420  1.1693  0.8780 -0.1907
  147SAPE  H18S16209   3.478   5.477   8.388 -0.1329  0.2139 -1.9029
  147SAPE  C21916210   3.417   5.469   8.588 -0.3582 -0.3839 -0.1861
  147SAPE  H19R16211   3.434   5.577   8.604  0.2913 -0.7512  1.9231
  147SAPE  H19S16212   3.511   5.413   8.607  0.3970  1.2266  1.0611
  147SAPE  C22016213   3.304   5.421   8.685  0.2687 -0.1398 -0.1213
  147SAPE  H20R16214   3.206   5.459   8.648  1.2198  2.4238 -0.2333
  147SAPE  H20S16215   3.320   5.457   8.789 -0.4851 -0.9437  0.2809
  147SAPE  H20T16216   3.305   5.310   8.688  0.4040 -0.1256  0.6644
  147SAPE   C3316217   3.898   5.386   6.939  0.4855 -0.4635 -0.1361
  147SAPE   H3X16218   3.985   5.406   6.873  0.4869 -1.3117 -0.4149
  147SAPE   H3Y16219   3.846   5.299   6.892 -2.5175  0.2108  1.6336
  147SAPE   C3416220   3.944   5.358   7.082 -0.9059  0.3352 -0.2346
  147SAPE   H4X16221   3.977   5.449   7.136 -0.6433 -0.7639  1.5473
  147SAPE   H4Y16222   4.030   5.288   7.072 -1.9665 -1.0173 -0.2734
  147SAPE   C3516223   3.853   5.284   7.177  0.7091  0.2683  0.3762
  147SAPE   H5X16224   3.824   5.184   7.137 -1.1792  0.7030  0.5452
  147SAPE   H5Y16225   3.759   5.343   7.183  1.1696  0.9402  1.1203
  147SAPE   C3616226   3.908   5.280   7.319 -0.1838  0.6266  0.7525
  147SAPE   H6X16227   3.976   5.367   7.336  1.2614 -0.6671  1.8657
  147SAPE   H6Y16228   3.975   5.197   7.347 -1.6515 -1.0277 -0.4271
  147SAPE   C3716229   3.799   5.266   7.427 -0.4552  0.2457 -0.0844
  147SAPE   H7X16230   3.747   5.168   7.422  0.3340 -0.1985  0.3421
  147SAPE   H7Y16231   3.716   5.340   7.428 -1.8809 -1.2688  1.5004
  147SAPE   C3816232   3.863   5.276   7.564  0.2325 -0.2645 -0.7411
  147SAPE   H8X16233   3.892   5.381   7.587 -0.2819 -0.2128 -0.3156
  147SAPE   H8Y16234   3.960   5.223   7.558  2.1982  3.0566 -0.9925
  147SAPE   C3916235   3.782   5.207   7.673 -0.0766  0.0587 -0.1899
  147SAPE   H9X16236   3.793   5.097   7.658 -1.6891 -0.1805  0.2098
  147SAPE   H9Y16237   3.673   5.227   7.670 -0.4332 -1.8080 -1.1449
  147SAPE  C31016238   3.827   5.243   7.819 -0.0216 -0.0796  0.2534
  147SAPE  H10X16239   3.850   5.351   7.824 -0.6027 -0.0099  2.2360
  147SAPE  H10Y16240   3.921   5.187   7.836  1.1750  1.9701  0.6591
  147SAPE  C31116241   3.731   5.205   7.936  0.8542  0.2424  0.3876
  147SAPE  H11X16242   3.710   5.096   7.936 -0.1298  0.4149  1.7590
  147SAPE  H11Y16243   3.642   5.270   7.921  2.3559  2.6878  1.4572
  147SAPE  C31216244   3.783   5.233   8.075  0.0420  0.2869  0.4682
  147SAPE  H12X16245   3.709   5.186   8.143 -2.8884  1.0555 -1.9528
  147SAPE  H12Y16246   3.786   5.342   8.098  1.2027  0.6607 -1.2788
  147SAPE  C31316247   3.924   5.179   8.101 -0.6353 -0.4790  0.4141
  147SAPE  H13X16248   4.009   5.246   8.077  1.3841 -2.8602  0.4740
  147SAPE  H13Y16249   3.936   5.079   8.053 -2.1748 -0.6502  0.3615
  147SAPE  C31416250   3.949   5.149   8.256  0.2627  0.2427  0.6890
  147SAPE  H14X16251   3.863   5.087   8.289 -1.2928  2.5639  1.2137
  147SAPE  H14Y16252   3.941   5.239   8.320 -0.0224  0.5600  0.2159
  147SAPE  C31516253   4.080   5.088   8.293 -0.2380  0.1804  0.1280
  147SAPE  H15X16254   4.156   5.161   8.258  0.1689 -0.4045 -0.2212
  147SAPE  H15Y16255   4.102   4.995   8.236 -1.8747  0.6916 -1.4532
  147SAPE  C31616256   4.098   5.067   8.441  0.6002  0.6517 -0.1277
  147SAPE  H16X16257   4.084   5.163   8.496 -0.1164 -0.0885  1.0269
  147SAPE  H16Y16258   4.197   5.030   8.475 -0.8218 -1.0143  2.5086
  147SAPE  C31716259   4.000   4.965   8.498 -0.3559 -0.2490 -0.1763
  147SAPE  H17X16260   4.003   4.876   8.430 -1.4085 -0.9968  0.7274
  147SAPE  H17Y16261   3.893   4.992   8.506  0.0761  0.8965  2.8346
  147SAPE  C31816262   4.048   4.909   8.639 -0.2204 -0.4915 -0.7754
  147SAPE  H18X16263   4.145   4.855   8.640  0.4708  0.6859  0.7033
  147SAPE  H18Y16264   3.972   4.836   8.674  0.6679 -1.3590 -0.6126
  147SAPE  H18Z16265   4.059   5.002   8.700 -2.6239 -1.5646  1.4857
  148SAPE     N16266   3.020   2.740   6.511 -0.5985  0.6416  0.2673
  148SAPE   HN116267   2.985   2.646   6.481  0.6947  0.7291 -1.6822
  148SAPE   HN216268   3.085   2.783   6.443  0.3471 -2.5114 -1.0300
  148SAPE   HN316269   3.085   2.720   6.590  0.8054 -0.7931 -1.1934
  148SAPE   C1216270   2.915   2.838   6.533 -0.0795 -0.0195  0.0107
  148SAPE  H12A16271   2.881   2.879   6.436 -0.4310 -0.0616  0.1154
  148SAPE  H12B16272   2.956   2.920   6.597  3.4983 -1.0648 -0.6875
  148SAPE   C1116273   2.783   2.774   6.584  0.0443  0.5402 -0.1999
  148SAPE  H11A16274   2.714   2.860   6.599  1.0903  1.4687 -0.5158
  148SAPE  H11B16275   2.805   2.718   6.678  0.6461  2.4383  0.8589
  148SAPE     P16276   2.618   2.583   6.511 -0.3732 -0.3534 -0.1979
  148SAPE   O1316277   2.494   2.623   6.437 -0.3672  0.3064  0.1071
  148SAPE   O1416278   2.671   2.451   6.478 -0.1531 -0.4676  0.1332
  148SAPE   O1216279   2.737   2.686   6.477  0.3453  0.1216 -0.0132
  148SAPE   O1116280   2.587   2.585   6.666 -0.2346 -0.0851 -0.4497
  148SAPE    C116281   2.458   2.559   6.715  0.5527  0.4542 -0.0375
  148SAPE    HA16282   2.390   2.633   6.668  0.1934 -1.0874 -2.0863
  148SAPE    HB16283   2.425   2.458   6.683  0.4144  0.4793  0.0266
  148SAPE    C216284   2.444   2.596   6.861 -0.3893  0.2069 -0.1357
  148SAPE    HS16285   2.338   2.574   6.888 -0.4179  0.5421  0.0200
  148SAPE   O2116286   2.467   2.736   6.881  0.2684  0.2107  0.1809
  148SAPE   C2116287   2.374   2.817   6.846  0.1252 -0.6602 -0.3152
  148SAPE   O2216288   2.263   2.785   6.809  0.9588  0.0053  0.2642
  148SAPE   C2216289   2.427   2.952   6.868 -0.1288  0.4049  0.1236
  148SAPE   H2R16290   2.538   2.949   6.858 -0.1808  0.8590 -0.6771
  148SAPE   H2S16291   2.413   3.021   6.782  0.0049  1.1885  0.7189
  148SAPE    C316292   2.536   2.512   6.944  0.0509  0.0645  0.1290
  148SAPE    HX16293   2.637   2.547   6.914 -0.4001  1.3884  0.0982
  148SAPE    HY16294   2.521   2.404   6.920  0.7824  0.6261 -3.3838
  148SAPE   O3116295   2.520   2.531   7.086 -0.0309  0.8320  0.2008
  148SAPE   C3116296   2.579   2.631   7.140  0.1507  1.2082  0.8562
  148SAPE   O3216297   2.651   2.713   7.086 -0.0813  0.7054 -0.0972
  148SAPE   C3216298   2.565   2.609   7.295  0.6776 -0.0683  0.0593
  148SAPE   H2X16299   2.610   2.511   7.321  2.7929  0.9799  0.5771
  148SAPE   H2Y16300   2.455   2.592   7.303 -0.4728  5.3623  0.0892
  148SAPE   C2316301   2.369   3.026   6.991  0.0797  0.8522 -0.0199
  148SAPE   H3R16302   2.271   3.072   6.964 -0.4726  0.0111  0.4992
  148SAPE   H3S16303   2.442   3.107   7.012  1.6115 -1.1473  3.0073
  148SAPE   C2416304   2.337   2.926   7.112 -0.1034 -0.0642  0.4530
  148SAPE   H4R16305   2.429   2.865   7.126  0.1954  0.0876 -0.7282
  148SAPE   H4S16306   2.256   2.857   7.081  0.6790 -0.1533 -1.5633
  148SAPE   C2516307   2.296   2.979   7.246  0.1612  0.2003  0.0654
  148SAPE   H5R16308   2.198   2.942   7.280  0.8300 -2.4261 -0.6180
  148SAPE   C2616309   2.380   3.054   7.322 -0.4577 -0.2431  1.3199
  148SAPE   H6R16310   2.349   3.100   7.417  1.4348  1.1193  1.3368
  148SAPE   C2716311   2.526   3.092   7.286 -0.3004 -0.2327  0.5950
  148SAPE   H7R16312   2.553   3.057   7.185 -1.1306  0.6391  0.0453
  148SAPE   H7S16313   2.595   3.049   7.361  0.8777  2.0419  0.8920
  148SAPE   C2816314   2.541   3.234   7.290 -0.2518 -0.5584  0.4879
  148SAPE   H8R16315   2.501   3.293   7.206 -2.3969  0.8577  2.3898
  148SAPE   C2916316   2.601   3.309   7.383  0.2163  0.4512  0.2002
  148SAPE   H9R16317   2.605   3.417   7.363  1.7640  0.5072  0.6770
  148SAPE  C21016318   2.667   3.272   7.509  0.2590 -0.0705 -0.5479
  148SAPE  H10R16319   2.714   3.357   7.563  1.0216 -1.4631  1.0973
  148SAPE  H10S16320   2.749   3.202   7.482 -0.3770 -0.6960 -0.8629
  148SAPE  C21116321   2.573   3.203   7.610  0.4613  0.3326  0.6529
  148SAPE  H11R16322   2.489   3.150   7.564  0.8876 -0.3973  0.7118
  148SAPE  C21216323   2.600   3.188   7.741 -0.3648  0.2369 -0.9742
  148SAPE  H12R16324   2.534   3.144   7.818  2.2850 -0.8153  0.8553
  148SAPE  C21316325   2.714   3.246   7.814 -0.0915 -0.2011  0.3410
  148SAPE  H13R16326   2.665   3.329   7.869 -1.1216 -0.1705 -0.5848
  148SAPE  H13S16327   2.789   3.290   7.745  0.9047  0.4001  1.7793
  148SAPE  C21416328   2.777   3.143   7.904 -0.1579  0.0536 -0.0497
  148SAPE  H14R16329   2.847   3.085   7.843  1.5982 -0.3169  2.1866
  148SAPE  C21516330   2.782   3.121   8.040  0.0892 -0.3735 -0.0881
  148SAPE  H15R16331   2.833   3.027   8.063  0.9348  0.2102  0.4678
  148SAPE  C21616332   2.715   3.212   8.136 -0.3770 -0.4006 -0.3795
  148SAPE  H16R16333   2.657   3.153   8.209  0.3339  2.8194  3.1094
  148SAPE  H16S16334   2.659   3.288   8.077 -0.3393 -0.1139 -0.0499
  148SAPE  C21716335   2.822   3.297   8.214 -0.6818  0.0042 -0.1640
  148SAPE  H17R16336   2.775   3.379   8.272  0.7768  0.7285  0.0273
  148SAPE  H17S16337   2.886   3.344   8.136 -0.6819 -0.3099 -0.3561
  148SAPE  C21816338   2.909   3.212   8.311  0.2267 -0.4367 -0.1586
  148SAPE  H18R16339   2.999   3.174   8.258 -0.0125  1.0635 -1.7027
  148SAPE  H18S16340   2.851   3.121   8.338  1.8032 -2.2471 -2.5446
  148SAPE  C21916341   2.943   3.285   8.442  0.3231 -0.1539 -0.0166
  148SAPE  H19R16342   2.979   3.211   8.516 -2.5450  0.5128  2.2384
  148SAPE  H19S16343   2.845   3.316   8.484 -0.1164  1.3290 -1.9838
  148SAPE  C22016344   3.036   3.406   8.430 -0.3305 -0.5223 -0.0871
  148SAPE  H20R16345   3.126   3.358   8.385 -1.0313 -1.1672 -0.8421
  148SAPE  H20S16346   3.068   3.457   8.523 -0.0271  0.1466 -0.5551
  148SAPE  H20T16347   3.010   3.488   8.360  2.3411  1.4106  0.9883
  148SAPE   C3316348   2.606   2.731   7.378  0.4562 -0.1472 -0.3485
  148SAPE   H3X16349   2.552   2.824   7.353  0.1254  0.2125  1.5216
  148SAPE   H3Y16350   2.715   2.751   7.373  0.6649 -1.1838 -0.2981
  148SAPE   C3416351   2.586   2.706   7.533  0.4124  0.5241 -0.7177
  148SAPE   H4X16352   2.635   2.607   7.544  2.5180  1.7123  1.6288
  148SAPE   H4Y16353   2.479   2.698   7.558  0.0868  2.4067 -1.3726
  148SAPE   C3516354   2.638   2.819   7.634 -0.1780  0.4052  0.3134
  148SAPE   H5X16355   2.565   2.902   7.627 -0.2385  0.2176 -1.8265
  148SAPE   H5Y16356   2.730   2.859   7.588  0.7084 -0.6544  1.1105
  148SAPE   C3616357   2.650   2.786   7.784  0.0962 -0.6996 -0.3201
  148SAPE   H6X16358   2.552   2.757   7.827 -1.1903  0.9547 -2.0259
  148SAPE   H6Y16359   2.683   2.880   7.833  1.0062 -1.0476 -0.2396
  148SAPE   C3716360   2.747   2.674   7.814 -0.2003  0.0561  0.1490
  148SAPE   H7X16361   2.835   2.678   7.746  0.9485 -0.6818  1.5355
  148SAPE   H7Y16362   2.718   2.569   7.788  4.7442 -1.4894 -0.1968
  148SAPE   C3816363   2.797   2.677   7.961  0.3561  0.1929  0.1289
  148SAPE   H8X16364   2.705   2.657   8.020 -0.3270 -0.2097 -1.0499
  148SAPE   H8Y16365   2.833   2.781   7.975 -0.2088  0.4111 -0.0052
  148SAPE   C3916366   2.890   2.561   7.991 -0.2487  0.3329  0.0770
  148SAPE   H9X16367   2.981   2.565   7.927  0.2596 -0.7332  0.6979
  148SAPE   H9Y16368   2.840   2.464   7.972 -1.8281  1.2645 -0.6671
  148SAPE  C31016369   2.947   2.556   8.132 -0.0784  0.2125 -0.0784
  148SAPE  H10X16370   2.863   2.558   8.204 -1.2796 -1.1966 -1.3561
  148SAPE  H10Y16371   3.012   2.645   8.148 -0.2183  0.2818  0.0976
  148SAPE  C31116372   3.029   2.427   8.149  0.1801 -0.7379  0.0231
  148SAPE  H11X16373   3.110   2.434   8.074 -0.1853  0.5518 -0.2754
  148SAPE  H11Y16374   2.966   2.344   8.109 -0.9122  0.3701 -0.6285
  148SAPE  C31216375   3.073   2.400   8.292 -0.7028 -0.2652 -0.6935
  148SAPE  H12X16376   3.103   2.293   8.298  3.5595  0.4967 -4.0823
  148SAPE  H12Y16377   2.997   2.426   8.369  1.0891  0.7193  0.8332
  148SAPE  C31316378   3.203   2.484   8.321 -0.4162  0.5659 -0.0831
  148SAPE  H13X16379   3.180   2.591   8.338 -0.0492  0.5311  0.6977
  148SAPE  H13Y16380   3.269   2.468   8.233 -1.6587 -0.8369 -0.8045
  148SAPE  C31416381   3.285   2.431   8.444 -0.3273  0.1203  0.5553
  148SAPE  H14X16382   3.374   2.497   8.460  1.8947 -2.3944 -0.6988
  148SAPE  H14Y16383   3.336   2.341   8.404  1.8488  2.0305 -1.2438
  148SAPE  C31516384   3.214   2.416   8.580 -0.3446  0.1692  0.2902
  148SAPE  H15X16385   3.294   2.376   8.645 -0.6766 -1.3827 -0.2291
  148SAPE  H15Y16386   3.129   2.345   8.575  0.8845 -1.3800  0.5386
  148SAPE  C31616387   3.161   2.547   8.646  0.4185 -0.3025 -0.7735
  148SAPE  H16X16388   3.069   2.569   8.588  0.4092  1.4490 -0.1587
  148SAPE  H16Y16389   3.239   2.622   8.621 -1.4158  2.0181  0.1903
  148SAPE  C31716390   3.129   2.532   8.791  0.6825 -1.4716 -0.4311
  148SAPE  H17X16391   3.221   2.544   8.851  0.2243  1.2892 -0.1403
  148SAPE  H17Y16392   3.098   2.426   8.808  0.7624 -1.1673  1.8851
  148SAPE  C31816393   3.016   2.631   8.830  0.3548  0.4277 -0.1266
  148SAPE  H18X16394   2.927   2.628   8.762  0.7724  1.2602 -0.7195
  148SAPE  H18Y16395   3.058   2.733   8.838 -0.3501  0.6260  1.2157
  148SAPE  H18Z16396   2.978   2.615   8.933  1.9750  0.4134  0.4861
  149SAPE     N16397   4.000   4.160   6.484  0.3988 -0.6790  0.2146
  149SAPE   HN116398   4.077   4.222   6.518  0.2983 -0.2870 -0.2773
  149SAPE   HN216399   4.032   4.120   6.394  0.4706 -0.6741  0.2382
  149SAPE   HN316400   3.921   4.220   6.454  1.2173 -0.3209 -1.3261
  149SAPE   C1216401   3.956   4.044   6.578  0.0581  0.6495  0.1697
  149SAPE  H12A16402   3.861   4.002   6.538 -0.1851 -0.7314  2.0634
  149SAPE  H12B16403   3.918   4.094   6.670 -1.0356  4.2583 -2.0292
  149SAPE   C1116404   4.067   3.942   6.593  0.5668 -0.1471 -0.1534
  149SAPE  H11A16405   4.039   3.861   6.664 -2.5952  2.2336  1.5887
  149SAPE  H11B16406   4.149   3.997   6.644 -0.2011 -1.4987  2.7742
  149SAPE     P16407   4.248   3.908   6.422  0.4122 -0.2196  0.0888
  149SAPE   O1316408   4.283   3.816   6.306 -0.3043 -0.7106  0.0050
  149SAPE   O1416409   4.279   4.050   6.404  0.2434  0.1589  0.2907
  149SAPE   O1216410   4.100   3.891   6.467 -0.4145  0.7515  0.1925
  149SAPE   O1116411   4.333   3.862   6.552 -0.0626  0.5011  0.3351
  149SAPE    C116412   4.326   3.727   6.588  0.0484  0.1479 -0.1700
  149SAPE    HA16413   4.224   3.699   6.622  0.1150 -0.5063 -0.4865
  149SAPE    HB16414   4.348   3.655   6.506 -0.1146  0.9839 -0.9644
  149SAPE    C216415   4.428   3.689   6.702 -1.0364  0.1039  0.6119
  149SAPE    HS16416   4.390   3.595   6.749 -1.2659 -0.5542 -0.8182
  149SAPE   O2116417   4.441   3.801   6.793  0.0193 -0.6038 -0.3175
  149SAPE   C2116418   4.338   3.817   6.871 -0.1076 -0.0020  0.1247
  149SAPE   O2216419   4.248   3.739   6.879 -0.0232 -0.2918 -0.2159
  149SAPE   C2216420   4.347   3.952   6.943 -0.8906  0.1179  0.1646
  149SAPE   H2R16421   4.363   4.023   6.859 -0.8126  1.6582  1.4325
  149SAPE   H2S16422   4.267   3.970   7.018  1.1327  1.0447  2.2351
  149SAPE    C316423   4.567   3.657   6.635  0.0609  0.2787  0.7838
  149SAPE    HX16424   4.591   3.740   6.567  1.4922  0.5948  1.6338
  149SAPE    HY16425   4.541   3.564   6.581 -1.5739  0.0399  1.8759
  149SAPE   O3116426   4.674   3.625   6.721  0.2754  0.2271 -0.2601
  149SAPE   C3116427   4.752   3.711   6.772  0.6111 -0.4209  0.1102
  149SAPE   O3216428   4.759   3.831   6.745  0.2722 -0.3513  0.4042
  149SAPE   C3216429   4.835   3.636   6.883 -0.0712 -0.4486  0.1934
  149SAPE   H2X16430   4.901   3.714   6.926  0.0121  0.0409 -0.7982
  149SAPE   H2Y16431   4.904   3.568   6.829  0.1863 -0.4061  0.4680
  149SAPE   C2316432   4.481   3.947   7.026  0.2445  0.3303  0.5661
  149SAPE   H3R16433   4.562   3.911   6.959  1.0432  2.1157  0.5057
  149SAPE   H3S16434   4.480   3.868   7.105  1.8774  0.0419  0.3400
  149SAPE   C2416435   4.524   4.083   7.082  0.5072  0.4803 -0.3877
  149SAPE   H4R16436   4.536   4.167   7.010 -2.1786  0.5139 -0.8886
  149SAPE   H4S16437   4.621   4.070   7.135  0.7629  0.0190 -0.9609
  149SAPE   C2516438   4.429   4.126   7.187  0.8636 -0.3856 -0.8543
  149SAPE   H5R16439   4.346   4.184   7.143  1.8663  0.4623 -1.6708
  149SAPE   C2616440   4.423   4.079   7.315 -0.5414  0.7483 -0.4581
  149SAPE   H6R16441   4.348   4.123   7.382 -1.6119 -0.5795 -0.7395
  149SAPE   C2716442   4.519   3.984   7.386 -0.3809 -0.9122  0.2684
  149SAPE   H7R16443   4.559   4.024   7.482  0.9246 -0.5523 -0.4089
  149SAPE   H7S16444   4.609   3.966   7.324  0.5985  0.1641  1.3203
  149SAPE   C2816445   4.436   3.859   7.414  0.1300  0.3800  0.6167
  149SAPE   H8R16446   4.373   3.835   7.327  0.4495  3.5787 -0.6675
  149SAPE   C2916447   4.434   3.783   7.523  0.3275  1.1360  0.0899
  149SAPE   H9R16448   4.354   3.708   7.528  2.1882 -0.9681 -0.1555
  149SAPE  C21016449   4.505   3.794   7.661  0.6288 -0.0598  0.7947
  149SAPE  H10R16450   4.608   3.833   7.645  0.6012 -0.4811 -0.4716
  149SAPE  H10S16451   4.514   3.695   7.709  2.0692 -1.3778 -1.9765
  149SAPE  C21116452   4.431   3.902   7.742  0.2743  0.2856 -0.4435
  149SAPE  H11R16453   4.372   3.978   7.689  1.1434  0.8056 -0.6665
  149SAPE  C21216454   4.402   3.899   7.869 -0.4017 -0.0434  0.5455
  149SAPE  H12R16455   4.351   3.988   7.909  0.3887  0.7097 -0.0612
  149SAPE  C21316456   4.445   3.791   7.965  0.3156  0.2699  0.5918
  149SAPE  H13R16457   4.542   3.822   8.011  0.5896 -1.7835  1.4693
  149SAPE  H13S16458   4.464   3.695   7.912 -2.4856 -0.3989  0.6669
  149SAPE  C21416459   4.343   3.754   8.069  0.3921  0.2214  0.2305
  149SAPE  H14R16460   4.258   3.693   8.035 -0.0834 -0.1096  1.8958
  149SAPE  C21516461   4.328   3.811   8.191 -0.1434  0.4633  0.1105
  149SAPE  H15R16462   4.239   3.788   8.253 -0.7141  1.0973 -0.4525
  149SAPE  C21616463   4.425   3.914   8.253 -0.5311  0.2322 -0.4879
  149SAPE  H16R16464   4.522   3.898   8.201  0.7066 -0.1538  1.8319
  149SAPE  H16S16465   4.445   3.899   8.361  0.7887 -1.9397 -0.9757
  149SAPE  C21716466   4.371   4.055   8.225  0.1355 -0.3077 -0.1670
  149SAPE  H17R16467   4.372   4.071   8.115 -0.3156  1.8111  0.0826
  149SAPE  H17S16468   4.447   4.124   8.267 -1.0904  0.9041  0.1562
  149SAPE  C21816469   4.244   4.083   8.302 -0.0023 -0.7385 -0.0993
  149SAPE  H18R16470   4.170   4.004   8.279 -1.0890 -1.0906  3.7750
  149SAPE  H18S16471   4.209   4.187   8.285  2.5616  0.1453 -0.4333
  149SAPE  C21916472   4.266   4.073   8.458 -0.0930  0.1994  0.1364
  149SAPE  H19R16473   4.349   4.141   8.486 -0.6281  1.2953 -0.8206
  149SAPE  H19S16474   4.301   3.971   8.483  0.6435  0.4583  0.1884
  149SAPE  C22016475   4.144   4.093   8.548 -0.4844  0.4066  0.1912
  149SAPE  H20R16476   4.164   4.042   8.645  4.6934  0.9022 -0.3431
  149SAPE  H20S16477   4.055   4.038   8.513 -0.2091  0.3531 -0.4329
  149SAPE  H20T16478   4.117   4.201   8.552 -0.4100  0.4190  0.3902
  149SAPE   C3316479   4.749   3.557   6.980  0.3299  0.1048  0.1648
  149SAPE   H3X16480   4.823   3.485   7.023 -1.2379 -0.7796  1.4823
  149SAPE   H3Y16481   4.679   3.495   6.920 -1.3921  2.9458 -0.9259
  149SAPE   C3416482   4.694   3.647   7.092  0.5589  0.2880 -0.4225
  149SAPE   H4X16483   4.611   3.709   7.053 -0.6673  0.8063  2.6778
  149SAPE   H4Y16484   4.785   3.700   7.129 -1.0512  1.3490  2.2808
  149SAPE   C3516485   4.635   3.560   7.207 -0.0197 -0.2020 -0.2431
  149SAPE   H5X16486   4.615   3.630   7.290 -0.6944  1.0791 -1.4353
  149SAPE   H5Y16487   4.711   3.483   7.230  1.6751  1.9443  1.7659
  149SAPE   C3616488   4.503   3.501   7.168 -0.0656  0.3313 -0.4926
  149SAPE   H6X16489   4.501   3.450   7.069  0.2450 -1.1230  0.2170
  149SAPE   H6Y16490   4.421   3.575   7.157 -0.5403 -0.1703 -0.3808
  149SAPE   C3716491   4.465   3.384   7.262 -0.0107  0.1351  0.5578
  149SAPE   H7X16492   4.537   3.300   7.254 -0.3401 -0.2719  1.6657
  149SAPE   H7Y16493   4.365   3.348   7.228  0.1990 -0.4382  0.5396
  149SAPE   C3816494   4.438   3.434   7.405  1.0387  0.7507 -0.3791
  149SAPE   H8X16495   4.360   3.513   7.400  0.9434  0.6629 -0.2733
  149SAPE   H8Y16496   4.533   3.480   7.441  1.1221  0.7341 -0.5709
  149SAPE   C3916497   4.401   3.330   7.508  0.1682 -0.3506  0.9985
  149SAPE   H9X16498   4.456   3.234   7.506  0.0740 -0.4051  1.0030
  149SAPE   H9Y16499   4.294   3.303   7.491  0.5811 -1.4391 -0.0311
  149SAPE  C31016500   4.408   3.388   7.648 -0.2772  0.2176  0.1925
  149SAPE  H10X16501   4.393   3.497   7.638  1.6830  0.5649  0.5310
  149SAPE  H10Y16502   4.515   3.382   7.679 -0.4638 -2.4975  0.5636
  149SAPE  C31116503   4.317   3.316   7.751  0.5079 -0.7310  0.4481
  149SAPE  H11X16504   4.320   3.205   7.750  1.0788 -0.7967 -2.9986
  149SAPE  H11Y16505   4.213   3.353   7.736  0.8471  0.9830  1.9661
  149SAPE  C31216506   4.338   3.369   7.893 -0.2664 -0.5402 -0.5851
  149SAPE  H12X16507   4.341   3.480   7.891  0.2806 -0.5379 -0.0729
  149SAPE  H12Y16508   4.442   3.356   7.928  0.5680  3.5379 -1.0190
  149SAPE  C31316509   4.235   3.322   7.990  0.0351 -0.7812 -0.3828
  149SAPE  H13X16510   4.244   3.211   7.984  0.9647 -0.6979 -0.7525
  149SAPE  H13Y16511   4.138   3.356   7.948 -0.4126  0.8531  1.8196
  149SAPE  C31416512   4.243   3.362   8.138 -0.7490  0.7749  1.0409
  149SAPE  H14X16513   4.193   3.460   8.156  0.5016  1.3839  1.2939
  149SAPE  H14Y16514   4.347   3.365   8.178  0.1873  1.1015 -1.2896
  149SAPE  C31516515   4.177   3.249   8.217  0.2095  0.5289 -0.1314
  149SAPE  H15X16516   4.218   3.147   8.199  0.6446  0.2853  1.9967
  149SAPE  H15Y16517   4.071   3.242   8.184  0.6586 -0.0890 -1.5089
  149SAPE  C31616518   4.184   3.269   8.367  0.5096  0.0245 -0.0010
  149SAPE  H16X16519   4.107   3.346   8.389 -1.1951 -1.7133  0.4461
  149SAPE  H16Y16520   4.285   3.292   8.406  1.4093 -3.7316  0.2827
  149SAPE  C31716521   4.144   3.141   8.443  0.0511  0.9714  0.3668
  149SAPE  H17X16522   4.218   3.059   8.426 -2.2346 -1.0654 -0.3564
  149SAPE  H17Y16523   4.047   3.103   8.403  0.7916 -1.8021  0.9432
  149SAPE  C31816524   4.118   3.163   8.598 -0.1089  0.3805 -0.1329
  149SAPE  H18X16525   4.212   3.188   8.651 -0.5742  1.7282  0.1003
  149SAPE  H18Y16526   4.077   3.069   8.641  1.2334 -0.3333 -0.3599
  149SAPE  H18Z16527   4.045   3.246   8.611 -2.7886 -2.0770  1.7354
  150SAPE     N16528   1.329   4.969   6.473 -0.0793  0.4892 -0.0376
  150SAPE   HN116529   1.254   5.002   6.537 -0.6945  1.4594 -1.2084
  150SAPE   HN216530   1.317   4.879   6.422  1.6163  0.9933 -1.4021
  150SAPE   HN316531   1.408   4.952   6.538  0.0949  1.1216 -0.0780
  150SAPE   C1216532   1.370   5.082   6.382  0.2210  0.2617 -0.8823
  150SAPE  H12A16533   1.290   5.095   6.306 -0.0769 -0.7167 -0.7471
  150SAPE  H12B16534   1.464   5.049   6.332  0.3637 -1.8705  0.6536
  150SAPE   C1116535   1.383   5.214   6.460 -0.3950 -0.1020 -0.6898
  150SAPE  H11A16536   1.287   5.243   6.507  0.8290 -0.0345  1.9359
  150SAPE  H11B16537   1.406   5.295   6.388 -0.7708  2.3537  1.7908
  150SAPE     P16538   1.626   5.218   6.544  0.2278  0.1580 -0.0957
  150SAPE   O1316539   1.674   5.080   6.518  0.0913 -0.2392 -0.5085
  150SAPE   O1416540   1.646   5.324   6.444 -0.4813  0.2073  0.1008
  150SAPE   O1216541   1.477   5.213   6.561  0.1650  0.2792  0.0132
  150SAPE   O1116542   1.668   5.268   6.687 -0.3068 -0.7834 -0.5292
  150SAPE    C116543   1.802   5.315   6.722 -0.3101  0.1410  0.0400
  150SAPE    HA16544   1.863   5.304   6.630 -2.5071 -0.3875 -1.4234
  150SAPE    HB16545   1.800   5.424   6.743  0.3730  0.0865  0.4143
  150SAPE    C216546   1.866   5.242   6.843 -0.6080 -0.4572 -0.5981
  150SAPE    HS16547   1.973   5.273   6.841 -0.8984  0.6276 -0.1568
  150SAPE   O2116548   1.854   5.101   6.844 -0.2140  0.9338 -0.7151
  150SAPE   C2116549   1.894   5.035   6.743  0.5826  0.2549  0.1975
  150SAPE   O2216550   1.958   5.073   6.645  0.0739 -0.2658 -0.2380
  150SAPE   C2216551   1.842   4.889   6.763  0.2555 -0.7943  0.5562
  150SAPE   H2R16552   1.764   4.894   6.842  0.2807 -4.2527  0.9669
  150SAPE   H2S16553   1.782   4.860   6.675  0.7622 -1.2112  0.3482
  150SAPE    C316554   1.802   5.296   6.973 -0.1308 -0.1053  0.0909
  150SAPE    HX16555   1.695   5.273   6.955  0.4306 -4.0395  0.9008
  150SAPE    HY16556   1.802   5.407   6.963 -3.1074 -0.0964 -1.1125
  150SAPE   O3116557   1.849   5.232   7.091 -1.1263 -0.0583 -0.0734
  150SAPE   C3116558   1.778   5.123   7.120 -0.1971  0.8566  0.2972
  150SAPE   O3216559   1.673   5.086   7.071 -0.4573  0.0691 -0.0850
  150SAPE   C3216560   1.860   5.050   7.225 -0.0999  0.4712 -0.0237
  150SAPE   H2X16561   1.908   5.132   7.281 -1.1477  1.2137 -0.1779
  150SAPE   H2Y16562   1.935   4.996   7.163 -1.1266 -0.9565 -0.0919
  150SAPE   C2316563   1.961   4.795   6.786 -0.4012  0.3556 -0.0383
  150SAPE   H3R16564   2.035   4.843   6.854 -0.9777  0.7712  0.3132
  150SAPE   H3S16565   2.005   4.761   6.691 -0.6040 -1.1660  0.3919
  150SAPE   C2416566   1.923   4.673   6.876  0.5996 -0.0382  0.2987
  150SAPE   H4R16567   1.991   4.587   6.860 -1.4210 -1.8031  0.6571
  150SAPE   H4S16568   1.822   4.641   6.843  0.3720  0.1167  0.8215
  150SAPE   C2516569   1.902   4.695   7.024  0.5945 -0.0418  0.3780
  150SAPE   H5R16570   1.796   4.703   7.051  0.4335  2.2614 -0.7161
  150SAPE   C2616571   1.995   4.698   7.118 -0.2969  0.8244  0.8128
  150SAPE   H6R16572   1.971   4.724   7.222  0.8257 -0.8148  1.5301
  150SAPE   C2716573   2.147   4.667   7.112  0.3712 -0.4915 -0.8843
  150SAPE   H7R16574   2.190   4.746   7.178  0.1992  0.3094 -1.7070
  150SAPE   H7S16575   2.189   4.695   7.013 -0.7188  0.6930 -1.0371
  150SAPE   C2816576   2.180   4.526   7.165  0.7063 -0.6649 -0.5417
  150SAPE   H8R16577   2.185   4.451   7.084 -2.5258 -0.9507 -0.6258
  150SAPE   C2916578   2.177   4.485   7.286 -0.6566 -0.3076 -0.2238
  150SAPE   H9R16579   2.209   4.380   7.288 -0.3612 -0.2212 -0.3538
  150SAPE  C21016580   2.151   4.542   7.423  1.1347 -0.1511 -0.3446
  150SAPE  H10R16581   2.069   4.482   7.467  2.0622 -2.0742 -1.1270
  150SAPE  H10S16582   2.102   4.639   7.402  1.3968 -0.2442 -1.4411
  150SAPE  C21116583   2.276   4.546   7.503 -0.7277 -0.3671  0.6188
  150SAPE  H11R16584   2.369   4.575   7.452  0.1049 -2.0845  1.0722
  150SAPE  C21216585   2.286   4.510   7.629  0.2830  0.6384 -0.2335
  150SAPE  H12R16586   2.385   4.518   7.678 -0.5180 -0.6097  1.7063
  150SAPE  C21316587   2.173   4.450   7.720 -0.3652 -0.1806  0.6939
  150SAPE  H13R16588   2.212   4.418   7.819 -0.2489  2.5968  1.6578
  150SAPE  H13S16589   2.126   4.365   7.667  0.3252 -0.6558  0.8264
  150SAPE  C21416590   2.068   4.554   7.742 -0.3679 -0.6104  0.0379
  150SAPE  H14R16591   2.087   4.656   7.704  2.1144 -1.3136 -0.8086
  150SAPE  C21516592   1.953   4.532   7.808 -0.1306 -0.6926  0.0379
  150SAPE  H15R16593   1.874   4.609   7.813  0.2578 -0.2176 -0.9121
  150SAPE  C21616594   1.913   4.401   7.872  0.5965 -0.0914  0.3595
  150SAPE  H16R16595   1.996   4.327   7.873 -0.2968 -1.2300  3.6433
  150SAPE  H16S16596   1.837   4.351   7.808  0.6330  1.5567 -1.0361
  150SAPE  C21716597   1.856   4.425   8.012 -0.4531 -0.0641  0.0678
  150SAPE  H17R16598   1.845   4.319   8.042  3.5669 -0.3364  1.1322
  150SAPE  H17S16599   1.756   4.474   8.013 -0.2973  0.4859 -2.4919
  150SAPE  C21816600   1.946   4.494   8.118  0.0820  0.3146 -0.3535
  150SAPE  H18R16601   1.957   4.600   8.086 -2.0018 -0.0407 -2.5444
  150SAPE  H18S16602   2.044   4.443   8.125 -0.1983 -0.1118  0.7259
  150SAPE  C21916603   1.874   4.483   8.249  0.3910 -1.1512 -0.0720
  150SAPE  H19R16604   1.889   4.377   8.277  0.5894 -0.1694  4.1331
  150SAPE  H19S16605   1.770   4.523   8.250  1.3331  1.4896  1.6776
  150SAPE  C22016606   1.946   4.570   8.350 -0.4128 -0.2401 -0.1371
  150SAPE  H20R16607   1.949   4.679   8.328 -0.4962 -0.0247  0.8549
  150SAPE  H20S16608   2.052   4.542   8.368 -0.2536  0.5212  0.1637
  150SAPE  H20T16609   1.900   4.554   8.450  2.0713 -0.5022  1.0287
  150SAPE   C3316610   1.782   4.953   7.305  0.2917 -0.0867 -0.4566
  150SAPE   H3X16611   1.770   4.852   7.261  1.9721 -0.8533  0.7488
  150SAPE   H3Y16612   1.679   4.985   7.329  0.2949  0.0875 -0.6646
  150SAPE   C3416613   1.846   4.911   7.443  0.8639  0.7682  0.4513
  150SAPE   H4X16614   1.946   4.867   7.425  0.0498 -1.3048  0.7376
  150SAPE   H4Y16615   1.785   4.831   7.488  1.4808  0.4547  0.7378
  150SAPE   C3516616   1.844   5.022   7.549 -0.4241  0.4982 -0.0819
  150SAPE   H5X16617   1.748   5.071   7.575  0.4598  1.1663  2.1507
  150SAPE   H5Y16618   1.899   5.108   7.505  1.2167 -0.4379  0.0454
  150SAPE   C3616619   1.903   4.977   7.681  0.0473 -0.5440  0.2201
  150SAPE   H6X16620   1.937   5.061   7.745  1.8705  1.4339 -3.0938
  150SAPE   H6Y16621   1.993   4.911   7.675  1.6555  1.5048  0.6640
  150SAPE   C3716622   1.793   4.905   7.767 -0.1762 -0.3467  0.2578
  150SAPE   H7X16623   1.789   4.803   7.725  0.0940 -0.7552  1.1933
  150SAPE   H7Y16624   1.692   4.947   7.747  0.1813  0.1341 -0.5965
  150SAPE   C3816625   1.818   4.891   7.920 -0.0571  0.7921  0.2458
  150SAPE   H8X16626   1.826   4.998   7.949  5.4108  1.2239 -1.6542
  150SAPE   H8Y16627   1.917   4.844   7.937  0.4473  1.8287  0.2258
  150SAPE   C3916628   1.708   4.803   7.974  0.3027  0.5752  0.1407
  150SAPE   H9X16629   1.710   4.706   7.921  0.1054  0.3481  0.5513
  150SAPE   H9Y16630   1.614   4.856   7.948  0.0700  0.1160  0.0388
  150SAPE  C31016631   1.703   4.785   8.129 -0.3115  0.2505  0.2687
  150SAPE  H10X16632   1.703   4.883   8.182 -0.5294  0.7282 -0.5925
  150SAPE  H10Y16633   1.798   4.741   8.165 -1.1517 -1.5058  0.4386
  150SAPE  C31116634   1.580   4.712   8.183  0.6511  0.3454  0.0284
  150SAPE  H11X16635   1.591   4.611   8.137  1.0305  0.5232 -0.2752
  150SAPE  H11Y16636   1.490   4.762   8.143 -0.7252 -2.5155 -0.7454
  150SAPE  C31216637   1.575   4.714   8.335  0.1652  0.4609 -0.8049
  150SAPE  H12X16638   1.523   4.809   8.361 -2.7299 -0.9929 -0.9070
  150SAPE  H12Y16639   1.670   4.703   8.390  0.1991 -0.6671 -1.0637
  150SAPE  C31316640   1.491   4.595   8.391  0.1611  0.3247  0.1650
  150SAPE  H13X16641   1.496   4.604   8.501  2.7707  0.2016  0.1260
  150SAPE  H13Y16642   1.548   4.505   8.358 -0.5041  0.9343 -3.0247
  150SAPE  C31416643   1.350   4.584   8.332 -0.3007  0.0784  0.1198
  150SAPE  H14X16644   1.350   4.561   8.224 -0.7909  0.4222  0.0397
  150SAPE  H14Y16645   1.304   4.684   8.348  1.6262  0.8430  1.1542
  150SAPE  C31516646   1.265   4.476   8.402 -0.3204  0.0057  0.0211
  150SAPE  H15X16647   1.161   4.487   8.364 -0.5004 -2.5885 -0.4645
  150SAPE  H15Y16648   1.274   4.501   8.510  2.1719 -1.3898  0.2049
  150SAPE  C31616649   1.310   4.335   8.373 -0.9855 -0.1472  0.5313
  150SAPE  H16X16650   1.420   4.337   8.359 -0.9768 -2.1887  0.0870
  150SAPE  H16Y16651   1.254   4.300   8.284 -1.2608 -0.5637  0.8671
  150SAPE  C31716652   1.275   4.233   8.478 -0.1906  0.0122  0.5175
  150SAPE  H17X16653   1.176   4.250   8.526  0.1869 -2.1153  2.2740
  150SAPE  H17Y16654   1.348   4.264   8.556  0.5130  1.6322 -0.7531
  150SAPE  C31816655   1.300   4.085   8.456  0.5419 -0.0692 -0.1987
  150SAPE  H18X16656   1.410   4.074   8.457  0.8922  2.6206  0.3037
  150SAPE  H18Y16657   1.248   4.061   8.361 -0.7631  1.6408  0.0447
  150SAPE  H18Z16658   1.264   4.017   8.537  0.0501 -0.1299 -0.4658
  151SAPE     N16659   5.149   3.180   5.938  0.1263 -0.1699  0.3806
  151SAPE   HN116660   5.185   3.151   5.845  2.4244  2.9727  0.1289
  151SAPE   HN216661   5.061   3.128   5.957 -0.4324  0.6632  0.1223
  151SAPE   HN316662   5.129   3.281   5.920 -1.2668 -0.1514  1.7942
  151SAPE   C1216663   5.255   3.156   6.040  1.3473 -0.4889  0.9125
  151SAPE  H12A16664   5.343   3.217   6.012  1.0075 -1.3831 -2.5846
  151SAPE  H12B16665   5.283   3.049   6.034 -0.5022 -0.9110 -2.6136
  151SAPE   C1116666   5.211   3.197   6.180  0.5566 -0.3354  0.9735
  151SAPE  H11A16667   5.295   3.174   6.250  1.4965 -0.4254 -0.1530
  151SAPE  H11B16668   5.133   3.128   6.219  0.2463  0.0448  1.0273
  151SAPE     P16669   5.062   3.392   6.258  0.1285 -0.2494 -0.1253
  151SAPE   O1316670   4.995   3.457   6.142 -0.4352  0.3071 -0.0974
  151SAPE   O1416671   4.985   3.286   6.330 -0.3914  0.3280  0.2905
  151SAPE   O1216672   5.191   3.338   6.195 -0.2081  0.4461  0.6200
  151SAPE   O1116673   5.111   3.506   6.363 -0.0951 -0.3400  0.0044
  151SAPE    C116674   5.243   3.559   6.364  0.2634  0.3977 -0.3367
  151SAPE    HA16675   5.289   3.564   6.263 -0.4691  0.6008 -0.6740
  151SAPE    HB16676   5.244   3.663   6.402 -0.1142  0.0585  0.6348
  151SAPE    C216677   5.337   3.478   6.457  0.2990 -0.6482 -0.4436
  151SAPE    HS16678   5.344   3.375   6.417 -0.2429 -1.4525  1.4125
  151SAPE   O2116679   5.285   3.470   6.591  0.4899  0.6322 -0.0411
  151SAPE   C2116680   5.346   3.379   6.671  0.0325  0.4907  0.1213
  151SAPE   O2216681   5.436   3.305   6.637 -0.3547 -0.3417 -0.4530
  151SAPE   C2216682   5.281   3.381   6.808  0.1686  0.4672  0.7531
  151SAPE   H2R16683   5.174   3.358   6.790 -0.1101  1.4910  1.0426
  151SAPE   H2S16684   5.319   3.300   6.874  1.2442  0.4395  0.1181
  151SAPE    C316685   5.484   3.549   6.463  0.5928  0.9975  0.1988
  151SAPE    HX16686   5.517   3.556   6.357  0.7923  1.2072  0.2736
  151SAPE    HY16687   5.555   3.477   6.509  1.0860  1.6161  0.4212
  151SAPE   O3116688   5.498   3.679   6.530  0.0448  0.8901 -0.0446
  151SAPE   C3116689   5.553   3.683   6.654  0.7948  0.1953 -0.2592
  151SAPE   O3216690   5.601   3.583   6.712  0.3132 -0.0371 -0.1659
  151SAPE   C3216691   5.516   3.810   6.726  0.5715  0.4720  0.3355
  151SAPE   H2X16692   5.410   3.838   6.711  0.2353  0.2115  2.0268
  151SAPE   H2Y16693   5.568   3.890   6.668 -0.4084 -0.1260 -1.4519
  151SAPE   C2316694   5.299   3.515   6.888 -0.7961 -0.0303  0.3997
  151SAPE   H3R16695   5.283   3.599   6.817 -2.2666 -0.3570  0.3241
  151SAPE   H3S16696   5.402   3.526   6.928 -0.2266  0.2419 -1.0792
  151SAPE   C2416697   5.212   3.511   7.012  0.0875 -0.1161 -0.3274
  151SAPE   H4R16698   5.241   3.432   7.085 -0.1905  1.0507  1.1027
  151SAPE   H4S16699   5.105   3.496   6.985 -0.1742 -0.4011  0.8080
  151SAPE   C2516700   5.214   3.637   7.098 -0.6542  0.6642 -0.1861
  151SAPE   H5R16701   5.178   3.725   7.043 -1.0091  1.1944  0.8721
  151SAPE   C2616702   5.253   3.639   7.231  0.3253 -0.6178  0.0957
  151SAPE   H6R16703   5.261   3.737   7.281 -3.0221 -1.4177  2.5663
  151SAPE   C2716704   5.295   3.526   7.320 -0.0480 -0.0200  0.7578
  151SAPE   H7R16705   5.331   3.434   7.269  1.1259 -1.3518  3.7642
  151SAPE   H7S16706   5.209   3.483   7.375  0.9699 -0.0246  2.4027
  151SAPE   C2816707   5.413   3.569   7.407  0.0939 -0.5223 -0.2048
  151SAPE   H8R16708   5.515   3.568   7.365 -0.2427 -0.0629 -1.0481
  151SAPE   C2916709   5.384   3.631   7.523  0.3042 -0.0736  0.3548
  151SAPE   H9R16710   5.469   3.641   7.593  0.4779  0.4051  0.0750
  151SAPE  C21016711   5.249   3.665   7.578  0.1668 -0.1293  0.2943
  151SAPE  H10R16712   5.175   3.697   7.501 -0.6731 -1.1146  0.6602
  151SAPE  H10S16713   5.250   3.750   7.650  2.3260  1.9258 -1.9621
  151SAPE  C21116714   5.181   3.549   7.643 -0.0083  0.1418  0.4743
  151SAPE  H11R16715   5.134   3.478   7.574  0.7731  0.8057 -0.7662
  151SAPE  C21216716   5.178   3.534   7.777  0.2915 -0.0388  0.1354
  151SAPE  H12R16717   5.113   3.453   7.814 -1.9002  1.6583  0.2651
  151SAPE  C21316718   5.240   3.621   7.887  0.4207  0.3196  0.1351
  151SAPE  H13R16719   5.166   3.701   7.911  0.8948 -0.0241  3.1083
  151SAPE  H13S16720   5.334   3.672   7.857  1.7186 -0.8431  2.0489
  151SAPE  C21416721   5.278   3.546   8.016  0.4523  0.5524 -0.3355
  151SAPE  H14R16722   5.321   3.444   8.014 -3.8173 -1.4871 -0.0101
  151SAPE  C21516723   5.281   3.605   8.140  1.1804 -0.1825  0.2278
  151SAPE  H15R16724   5.321   3.551   8.227 -1.1141 -0.3489  1.2554
  151SAPE  C21616725   5.246   3.745   8.175  0.4121  0.6638 -0.5018
  151SAPE  H16R16726   5.152   3.748   8.234  0.1200  0.7373 -0.9664
  151SAPE  H16S16727   5.236   3.812   8.087 -1.8456  0.1058 -0.7469
  151SAPE  C21716728   5.353   3.806   8.274  0.7928  0.8325 -0.0233
  151SAPE  H17R16729   5.318   3.904   8.312  2.0349  1.0501  0.6240
  151SAPE  H17S16730   5.444   3.824   8.213  1.3357  0.6933  0.7314
  151SAPE  C21816731   5.379   3.721   8.402  0.2725  0.6357 -0.0464
  151SAPE  H18R16732   5.450   3.774   8.470  2.3893 -0.2932 -1.4301
  151SAPE  H18S16733   5.419   3.623   8.369  1.3233  1.6474 -1.9212
  151SAPE  C21916734   5.255   3.703   8.498 -0.5652  0.2987 -0.2396
  151SAPE  H19R16735   5.171   3.659   8.441 -0.3482 -1.5671  0.7772
  151SAPE  H19S16736   5.222   3.798   8.544 -3.3261 -0.3726 -0.6449
  151SAPE  C22016737   5.288   3.602   8.614  0.0999  0.0172 -0.1784
  151SAPE  H20R16738   5.324   3.511   8.561 -1.9552 -0.3814 -0.9976
  151SAPE  H20S16739   5.363   3.623   8.692 -0.8399 -1.4434  1.1879
  151SAPE  H20T16740   5.196   3.575   8.669 -0.8244  0.2754 -1.5427
  151SAPE   C3316741   5.559   3.809   6.874 -0.1891 -0.1444 -0.3999
  151SAPE   H3X16742   5.666   3.780   6.880  0.2704  0.6879 -3.0626
  151SAPE   H3Y16743   5.500   3.729   6.923  0.0782 -0.8449 -1.1863
  151SAPE   C3416744   5.530   3.947   6.933 -0.0132 -0.0044 -0.4916
  151SAPE   H4X16745   5.428   3.956   6.889  0.1833  0.8068 -0.8005
  151SAPE   H4Y16746   5.609   4.016   6.897  0.8531 -0.4241  0.5564
  151SAPE   C3516747   5.535   3.932   7.087  1.2257 -0.4435 -0.8958
  151SAPE   H5X16748   5.632   3.892   7.123  0.9572 -0.3939 -0.0963
  151SAPE   H5Y16749   5.451   3.864   7.115  0.7556  0.9952  1.4712
  151SAPE   C3616750   5.500   4.052   7.190  0.3920  0.0038  0.3774
  151SAPE   H6X16751   5.565   4.142   7.180  0.1552  0.3314  1.5877
  151SAPE   H6Y16752   5.522   4.008   7.290 -0.9742 -1.0098  0.2543
  151SAPE   C3716753   5.354   4.107   7.186 -0.0727  0.4908  0.1409
  151SAPE   H7X16754   5.287   4.029   7.228 -0.7413  0.8665 -0.2196
  151SAPE   H7Y16755   5.330   4.127   7.080 -0.1540 -0.8912 -0.1261
  151SAPE   C3816756   5.322   4.238   7.256  0.6315  0.9054  0.3667
  151SAPE   H8X16757   5.212   4.252   7.244  0.7874  0.9667 -1.1945
  151SAPE   H8Y16758   5.375   4.321   7.204 -0.5264  0.3551 -1.8371
  151SAPE   C3916759   5.366   4.256   7.401 -0.0276  0.4723 -0.8019
  151SAPE   H9X16760   5.349   4.364   7.421 -2.2010  0.1123 -0.4935
  151SAPE   H9Y16761   5.475   4.239   7.410  0.1011  1.6225 -0.0683
  151SAPE  C31016762   5.276   4.177   7.494  0.5239 -0.1416 -0.4679
  151SAPE  H10X16763   5.275   4.069   7.468 -2.8613 -0.7759  1.6690
  151SAPE  H10Y16764   5.168   4.200   7.482  0.6413  0.5676 -0.2115
  151SAPE  C31116765   5.331   4.192   7.637  0.1794  0.4947 -0.0425
  151SAPE  H11X16766   5.330   4.299   7.667 -0.1306  0.0093  1.7433
  151SAPE  H11Y16767   5.438   4.163   7.632 -0.3482 -1.4553 -1.2847
  151SAPE  C31216768   5.258   4.105   7.738 -0.8328 -0.1615  0.6713
  151SAPE  H12X16769   5.239   4.002   7.701 -0.5999 -0.0717  0.3071
  151SAPE  H12Y16770   5.160   4.158   7.743 -1.4958 -1.3290  0.4395
  151SAPE  C31316771   5.324   4.105   7.877  0.1785  0.2443 -0.2546
  151SAPE  H13X16772   5.434   4.091   7.873  0.3152  0.2912  1.8653
  151SAPE  H13Y16773   5.289   4.014   7.930  0.7883  0.1222 -0.0611
  151SAPE  C31416774   5.280   4.231   7.959 -0.8157 -0.4607 -0.1484
  151SAPE  H14X16775   5.172   4.252   7.944 -1.2126 -2.3070 -0.0626
  151SAPE  H14Y16776   5.336   4.317   7.915  0.0863 -0.8965  0.1387
  151SAPE  C31516777   5.312   4.206   8.108 -0.0540 -0.5785 -0.5562
  151SAPE  H15X16778   5.283   4.104   8.141 -0.4329  0.3089  2.1029
  151SAPE  H15Y16779   5.252   4.288   8.153  0.2159  0.9772 -2.8636
  151SAPE  C31616780   5.459   4.249   8.134  0.8034 -0.0946  0.4743
  151SAPE  H16X16781   5.469   4.344   8.078 -1.2527 -0.5128 -0.7070
  151SAPE  H16Y16782   5.526   4.170   8.094 -0.6587 -1.3941  0.5144
  151SAPE  C31716783   5.504   4.279   8.275 -0.4855 -0.2057  0.2667
  151SAPE  H17X16784   5.461   4.371   8.320  1.0814  1.2113 -0.9850
  151SAPE  H17Y16785   5.608   4.319   8.277  0.6528 -2.9507  2.4986
  151SAPE  C31816786   5.474   4.161   8.368 -0.2963  0.4690 -0.2889
  151SAPE  H18X16787   5.505   4.060   8.332  0.2205  0.5430 -0.0607
  151SAPE  H18Y16788   5.366   4.154   8.392 -0.5971  0.3321 -1.5885
  151SAPE  H18Z16789   5.521   4.177   8.468  0.3160  1.0318 -0.6604
  152SAPE     N16790   2.986   6.817   6.241  0.1608  0.5142 -0.1376
  152SAPE   HN116791   2.946   6.809   6.337  2.4914  0.3679  0.8873
  152SAPE   HN216792   3.088   6.798   6.243 -0.0963 -0.9696  0.2188
  152SAPE   HN316793   2.957   6.913   6.212 -2.0602 -0.9535 -3.3694
  152SAPE   C1216794   2.922   6.716   6.146  0.3883 -0.6520 -0.3835
  152SAPE  H12A16795   2.963   6.722   6.043 -0.3735 -2.4761 -0.8335
  152SAPE  H12B16796   2.817   6.751   6.155  1.0941  1.4793  0.1982
  152SAPE   C1116797   2.938   6.574   6.191 -0.4412  0.5334 -0.2290
  152SAPE  H11A16798   3.045   6.546   6.176 -0.2195 -0.0955  2.1254
  152SAPE  H11B16799   2.876   6.505   6.131  1.1026  1.0941 -2.6086
  152SAPE     P16800   2.841   6.421   6.390 -0.2101  0.0008  0.3687
  152SAPE   O1316801   2.697   6.421   6.347 -0.1913 -0.1436 -0.5590
  152SAPE   O1416802   2.915   6.295   6.367  0.3713 -0.2670 -0.5328
  152SAPE   O1216803   2.919   6.546   6.333 -0.3814 -0.1547  0.2022
  152SAPE   O1116804   2.865   6.463   6.540  0.1554 -0.2756  0.6768
  152SAPE    C116805   2.749   6.505   6.610  0.5517  0.0273 -0.4975
  152SAPE    HA16806   2.719   6.609   6.584  2.8182  1.1193  0.9808
  152SAPE    HB16807   2.657   6.445   6.591  1.4876 -2.0410  1.1380
  152SAPE    C216808   2.764   6.489   6.760 -0.3266 -0.1600 -0.9067
  152SAPE    HS16809   2.673   6.515   6.818 -1.2777 -0.6901 -2.1203
  152SAPE   O2116810   2.872   6.572   6.809 -0.4533 -0.6682  0.3971
  152SAPE   C2116811   2.846   6.706   6.837 -0.2783  0.2774 -0.5031
  152SAPE   O2216812   2.741   6.763   6.803  0.1757  0.3761 -0.8633
  152SAPE   C2216813   2.957   6.788   6.902 -0.4436 -0.2631 -0.0803
  152SAPE   H2R16814   3.044   6.792   6.832 -0.2329  4.2196  0.1445
  152SAPE   H2S16815   2.919   6.892   6.901 -1.2343 -0.5163 -2.2420
  152SAPE    C316816   2.790   6.343   6.793  0.0265  0.3486  0.1333
  152SAPE    HX16817   2.888   6.317   6.748 -0.2385 -2.0059  0.7644
  152SAPE    HY16818   2.714   6.283   6.737 -0.6917  0.6399  0.7765
  152SAPE   O3116819   2.780   6.307   6.932 -0.6347 -0.0470  0.1313
  152SAPE   C3116820   2.883   6.238   6.976  0.5932  0.4269  0.6888
  152SAPE   O3216821   2.977   6.198   6.906 -0.0170 -0.1307 -0.3703
  152SAPE   C3216822   2.863   6.223   7.125 -0.7164  0.9174  0.3566
  152SAPE   H2X16823   2.798   6.135   7.144  1.0223  0.0078  2.5181
  152SAPE   H2Y16824   2.814   6.313   7.168 -1.0123  0.1649  1.6392
  152SAPE   C2316825   3.010   6.737   7.037 -0.2881 -0.5282  0.7664
  152SAPE   H3R16826   3.089   6.809   7.069  0.5297 -0.2080 -1.7835
  152SAPE   H3S16827   3.067   6.646   7.007 -4.5885 -2.6004 -1.9377
  152SAPE   C2416828   2.911   6.712   7.152  0.3501  0.1673  0.7729
  152SAPE   H4R16829   2.841   6.636   7.111  0.2205  0.1570  1.0091
  152SAPE   H4S16830   2.855   6.805   7.175 -2.0842 -0.3900 -2.2675
  152SAPE   C2516831   2.986   6.645   7.266  0.6257  0.8298 -0.8966
  152SAPE   H5R16832   3.058   6.566   7.241 -0.4456 -0.4513 -0.0288
  152SAPE   C2616833   2.966   6.676   7.394 -0.0321  0.3650 -0.6340
  152SAPE   H6R16834   3.011   6.614   7.473 -0.9238 -0.6659 -0.9091
  152SAPE   C2716835   2.874   6.789   7.432  0.6684  0.0431  0.3225
  152SAPE   H7R16836   2.769   6.758   7.416  0.6792 -0.6914  1.5830
  152SAPE   H7S16837   2.880   6.887   7.379 -1.2242  0.3319  0.5682
  152SAPE   C2816838   2.876   6.825   7.578  0.7066 -0.0182  0.4843
  152SAPE   H8R16839   2.950   6.899   7.613 -0.4863  2.1490 -1.3411
  152SAPE   C2916840   2.798   6.772   7.677 -0.0588 -0.4737 -0.4159
  152SAPE   H9R16841   2.829   6.798   7.779  1.2442 -1.4795 -0.5321
  152SAPE  C21016842   2.689   6.668   7.671 -0.1628  0.0673 -0.5117
  152SAPE  H10R16843   2.609   6.709   7.605  0.8733  2.6447 -0.2963
  152SAPE  H10S16844   2.658   6.666   7.778 -0.0793  1.2458 -0.4533
  152SAPE  C21116845   2.738   6.524   7.646 -0.3909 -0.0699  0.1151
  152SAPE  H11R16846   2.829   6.498   7.702  1.0455  0.9513 -1.6417
  152SAPE  C21216847   2.673   6.432   7.573 -0.4384 -0.2097  0.5796
  152SAPE  H12R16848   2.711   6.328   7.579 -0.8331 -0.4629 -0.9046
  152SAPE  C21316849   2.542   6.446   7.494 -0.1786  0.1252  0.1020
  152SAPE  H13R16850   2.491   6.543   7.506 -0.2861  0.4596 -2.4357
  152SAPE  H13S16851   2.467   6.377   7.537 -3.3623  2.2067 -1.7131
  152SAPE  C21416852   2.574   6.418   7.349 -0.6443 -0.6004  0.2203
  152SAPE  H14R16853   2.676   6.385   7.323 -0.4765 -0.9442  1.2616
  152SAPE  C21516854   2.476   6.406   7.254 -0.3756  0.2420 -0.3037
  152SAPE  H15R16855   2.513   6.402   7.151  2.7515 -0.1545  0.7133
  152SAPE  C21616856   2.334   6.416   7.274  0.0120 -0.3664 -0.8709
  152SAPE  H16R16857   2.291   6.516   7.250 -1.9608 -1.6176 -2.9213
  152SAPE  H16S16858   2.307   6.401   7.381 -0.9509  0.6139 -0.9479
  152SAPE  C21716859   2.240   6.311   7.207  0.1782 -0.4000  0.6321
  152SAPE  H17R16860   2.131   6.332   7.212 -0.6141 -1.8239 -4.6729
  152SAPE  H17S16861   2.251   6.211   7.255  0.0666 -1.1364 -0.8349
  152SAPE  C21816862   2.261   6.319   7.055 -0.4730  0.2332 -0.0143
  152SAPE  H18R16863   2.362   6.279   7.030  0.6058  2.8153 -0.1493
  152SAPE  H18S16864   2.242   6.426   7.030 -2.3745 -0.1558 -0.3993
  152SAPE  C21916865   2.162   6.230   6.983  0.4368  0.4441  0.3291
  152SAPE  H19R16866   2.066   6.248   7.036  0.3859 -0.4313  0.5395
  152SAPE  H19S16867   2.186   6.124   7.006  2.1170  1.0615  1.7133
  152SAPE  C22016868   2.155   6.265   6.834 -0.4892 -0.1573  0.0059
  152SAPE  H20R16869   2.089   6.187   6.790 -0.7620 -0.4645  0.9280
  152SAPE  H20S16870   2.259   6.265   6.796  0.2536  2.4423  1.7922
  152SAPE  H20T16871   2.102   6.362   6.822 -0.4581  0.0539  1.4186
  152SAPE   C3316872   3.001   6.203   7.187 -0.5420  0.0761  0.1015
  152SAPE   H3X16873   3.071   6.272   7.135  0.5173  0.0578  1.4400
  152SAPE   H3Y16874   3.032   6.097   7.171 -1.6934 -0.0781 -1.3548
  152SAPE   C3416875   2.998   6.239   7.333  0.5795  0.5375  0.4949
  152SAPE   H4X16876   2.954   6.152   7.386  1.6427 -0.5027 -0.2749
  152SAPE   H4Y16877   2.940   6.334   7.342 -3.5775 -1.7256  0.0235
  152SAPE   C3516878   3.143   6.250   7.382  0.0531 -0.0394 -0.3376
  152SAPE   H5X16879   3.190   6.315   7.306 -0.9204 -1.8699 -2.6259
  152SAPE   H5Y16880   3.182   6.145   7.376 -0.7960 -0.3218 -1.0702
  152SAPE   C3616881   3.162   6.318   7.519  0.1443 -0.1308  0.0603
  152SAPE   H6X16882   3.127   6.422   7.502  0.1491 -0.5314 -2.8440
  152SAPE   H6Y16883   3.272   6.313   7.530  0.1894 -1.7969 -0.8211
  152SAPE   C3716884   3.087   6.263   7.638  0.1322 -0.0905 -0.3999
  152SAPE   H7X16885   3.139   6.168   7.661 -1.8973 -0.9308  1.0631
  152SAPE   H7Y16886   2.979   6.247   7.616 -0.3501 -0.6820  2.0737
  152SAPE   C3816887   3.108   6.354   7.756 -0.1059  0.2375 -0.1538
  152SAPE   H8X16888   3.053   6.450   7.749 -1.5306 -0.5261  0.1439
  152SAPE   H8Y16889   3.215   6.379   7.772 -0.3448  0.4873  1.1798
  152SAPE   C3916890   3.049   6.278   7.884 -0.7300 -0.4204 -0.1077
  152SAPE   H9X16891   2.954   6.226   7.857 -1.0798  0.2542 -0.1896
  152SAPE   H9Y16892   3.023   6.348   7.966 -0.2680 -0.0292 -0.2970
  152SAPE  C31016893   3.145   6.182   7.943  0.4549  0.1214 -0.3452
  152SAPE  H10X16894   3.249   6.222   7.951  0.6680 -0.5436  0.3035
  152SAPE  H10Y16895   3.150   6.099   7.870 -2.6496  0.9074 -1.6107
  152SAPE  C31116896   3.111   6.138   8.090 -0.4696  0.8142 -0.0346
  152SAPE  H11X16897   3.117   6.229   8.153 -3.1259  0.3327  1.0707
  152SAPE  H11Y16898   3.190   6.072   8.131  0.7643  1.2143 -1.6553
  152SAPE  C31216899   2.971   6.077   8.115  0.5024  0.1700  0.4233
  152SAPE  H12X16900   2.946   5.990   8.051 -1.6985  0.9647  0.1172
  152SAPE  H12Y16901   2.901   6.162   8.095  0.7185  0.3463  0.4122
  152SAPE  C31316902   2.951   6.044   8.265  0.0146 -0.5145 -0.1092
  152SAPE  H13X16903   3.020   5.960   8.290  1.8373  0.1606 -2.5025
  152SAPE  H13Y16904   2.846   6.008   8.277 -0.2011 -1.0299 -2.9251
  152SAPE  C31416905   2.978   6.168   8.362  0.3401  0.2603  0.3041
  152SAPE  H14X16906   2.929   6.258   8.320 -0.7521  0.5404  2.0890
  152SAPE  H14Y16907   3.089   6.174   8.362  0.4666 -1.4246  0.8457
  152SAPE  C31516908   2.932   6.157   8.517  0.4957 -0.0264 -0.3293
  152SAPE  H15X16909   2.943   6.254   8.570  1.1790 -0.3170  0.0808
  152SAPE  H15Y16910   2.997   6.085   8.571 -1.1074  1.2011  3.6191
  152SAPE  C31616911   2.789   6.107   8.527 -0.2301 -0.1403  1.0474
  152SAPE  H16X16912   2.774   6.009   8.477  0.9243  0.1885  0.0144
  152SAPE  H16Y16913   2.736   6.177   8.460 -0.9476 -0.8297  0.8864
  152SAPE  C31716914   2.729   6.111   8.670  0.2059  0.5754  0.1269
  152SAPE  H17X16915   2.622   6.135   8.652  0.2200  1.1318  0.7545
  152SAPE  H17Y16916   2.783   6.191   8.726  0.3599  1.5437 -1.3587
  152SAPE  C31816917   2.734   5.969   8.725  0.5290 -0.3674  0.4074
  152SAPE  H18X16918   2.691   5.964   8.828  0.7440 -2.0014  0.4354
  152SAPE  H18Y16919   2.838   5.930   8.731  0.5117 -0.2061  3.4786
  152SAPE  H18Z16920   2.666   5.910   8.660 -1.0043  0.0231  1.5838
  153SAPE     N16921   0.747   0.947   6.374 -0.1254  0.1179 -0.0714
  153SAPE   HN116922   0.701   0.870   6.426 -1.0934  0.8496  0.1790
  153SAPE   HN216923   0.826   0.979   6.433  1.8814  0.8278 -2.9322
  153SAPE   HN316924   0.687   1.031   6.365 -0.4871 -0.2599 -1.6060
  153SAPE   C1216925   0.805   0.911   6.241  0.0507 -0.5623 -0.4922
  153SAPE  H12A16926   0.846   0.812   6.269  1.3474 -0.0047 -0.3468
  153SAPE  H12B16927   0.899   0.968   6.225 -0.1083  0.5028  2.0171
  153SAPE   C1116928   0.701   0.911   6.127 -0.1206  0.4120 -0.5121
  153SAPE  H11A16929   0.759   0.861   6.046 -0.0946 -0.7065  0.1780
  153SAPE  H11B16930   0.674   1.011   6.089 -0.2914  1.5352  2.2952
  153SAPE     P16931   0.590   0.672   6.144 -0.1552  0.1321  0.0214
  153SAPE   O1316932   0.593   0.656   5.997  0.0730  0.0078  0.0829
  153SAPE   O1416933   0.701   0.611   6.223 -0.8520 -0.2753  0.1244
  153SAPE   O1216934   0.590   0.824   6.168 -0.0007  0.0793  0.4740
  153SAPE   O1116935   0.448   0.612   6.204 -0.0467 -0.2256 -0.0503
  153SAPE    C116936   0.340   0.709   6.219 -0.5235 -0.0054  0.3550
  153SAPE    HA16937   0.338   0.798   6.152 -3.0976  2.6769  3.6251
  153SAPE    HB16938   0.246   0.652   6.204 -1.0610  1.3894 -2.1343
  153SAPE    C216939   0.342   0.783   6.355  0.0371  0.2125 -0.1487
  153SAPE    HS16940   0.429   0.853   6.354  0.4292 -0.2522 -1.1846
  153SAPE   O2116941   0.361   0.682   6.456  0.6934  0.0807  0.1227
  153SAPE   C2116942   0.478   0.682   6.517  0.0495  0.1585 -0.4391
  153SAPE   O2216943   0.571   0.759   6.501 -0.2856  0.0408 -0.2236
  153SAPE   C2216944   0.481   0.566   6.610 -0.1949  0.5878 -0.0370
  153SAPE   H2R16945   0.380   0.522   6.617  0.1694 -0.5539 -1.4800
  153SAPE   H2S16946   0.539   0.481   6.569 -0.2810  2.4322 -4.6791
  153SAPE    C316947   0.212   0.871   6.379 -0.3351  0.2521 -0.1207
  153SAPE    HX16948   0.119   0.811   6.368  0.6652 -1.4773  0.4877
  153SAPE    HY16949   0.199   0.962   6.317  1.2065  0.7280  0.2192
  153SAPE   O3116950   0.220   0.916   6.520  0.2727  0.3926 -0.1590
  153SAPE   C3116951   0.110   0.964   6.574 -0.3637 -0.4820 -0.2429
  153SAPE   O3216952   0.005   0.960   6.516  0.6838  0.4185 -0.8587
  153SAPE   C3216953   0.137   1.027   6.712  0.3906 -0.4318  0.2073
  153SAPE   H2X16954   0.068   1.114   6.719  2.1638  1.0222  0.4527
  153SAPE   H2Y16955   0.239   1.072   6.714  0.0397  0.5221 -1.7336
  153SAPE   C2316956   0.534   0.604   6.749 -0.2398 -1.0884 -0.1437
  153SAPE   H3R16957   0.612   0.681   6.734  0.5918 -1.8265  0.2990
  153SAPE   H3S16958   0.591   0.524   6.800  1.5672 -1.4796 -2.5809
  153SAPE   C2416959   0.420   0.673   6.830  0.5407  0.2060  0.6457
  153SAPE   H4R16960   0.371   0.747   6.763  0.3230  1.0106  1.6548
  153SAPE   H4S16961   0.457   0.731   6.918 -1.2861 -1.5281  2.6797
  153SAPE   C2516962   0.316   0.571   6.881 -0.0985  0.2439 -0.2412
  153SAPE   H5R16963   0.262   0.505   6.811 -0.1119  0.4388 -0.4163
  153SAPE   C2616964   0.292   0.548   7.009  0.7547 -0.2422 -0.4134
  153SAPE   H6R16965   0.225   0.465   7.034 -0.5598  0.6967 -0.6443
  153SAPE   C2716966   0.348   0.620   7.134  0.9655 -0.3235  0.1089
  153SAPE   H7R16967   0.440   0.681   7.122  0.2389  1.7550  3.5790
  153SAPE   H7S16968   0.381   0.543   7.207  2.2660  1.0278  1.0141
  153SAPE   C2816969   0.232   0.698   7.203  0.1205  0.1780  0.3564
  153SAPE   H8R16970   0.178   0.769   7.139  1.8757  1.4454  0.1973
  153SAPE   C2916971   0.201   0.690   7.328  0.1189  0.7531 -0.7140
  153SAPE   H9R16972   0.120   0.748   7.375  1.5751  1.7420  0.6725
  153SAPE  C21016973   0.271   0.610   7.436  0.0253 -0.0302  0.9105
  153SAPE  H10R16974   0.270   0.667   7.532  0.0336  2.7216 -0.6187
  153SAPE  H10S16975   0.375   0.602   7.399 -0.9790  0.2264 -2.2378
  153SAPE  C21116976   0.190   0.482   7.447 -0.3701  0.7878 -0.1998
  153SAPE  H11R16977   0.150   0.441   7.353 -1.0059 -0.0732  0.4299
  153SAPE  C21216978   0.169   0.408   7.558 -0.2699  0.2950  0.3449
  153SAPE  H12R16979   0.105   0.319   7.552  1.2638 -0.7829 -1.3574
  153SAPE  C21316980   0.218   0.414   7.705 -0.4700 -0.2618  0.0957
  153SAPE  H13R16981   0.178   0.322   7.754  0.2506 -0.9215 -0.5346
  153SAPE  H13S16982   0.172   0.500   7.759  0.5291 -0.1549  0.8052
  153SAPE  C21416983   0.367   0.422   7.716  0.8072 -0.9010  0.5037
  153SAPE  H14R16984   0.414   0.487   7.640 -0.5927  0.9367  1.1213
  153SAPE  C21516985   0.454   0.367   7.796 -0.3233 -0.9424 -0.1219
  153SAPE  H15R16986   0.559   0.398   7.787 -0.4002 -0.2767  1.1047
  153SAPE  C21616987   0.403   0.279   7.914 -0.2367 -1.1758  0.2001
  153SAPE  H16R16988   0.460   0.183   7.919 -1.6065 -2.0546  5.6989
  153SAPE  H16S16989   0.295   0.254   7.907 -0.7333  0.1990  2.1845
  153SAPE  C21716990   0.416   0.361   8.041  0.1310  0.1463  0.2774
  153SAPE  H17R16991   0.335   0.437   8.049  1.4775  1.4466  2.2226
  153SAPE  H17S16992   0.509   0.421   8.050 -0.8006  1.7772 -0.4165
  153SAPE  C21816993   0.411   0.272   8.171 -0.3043  0.0187  0.4055
  153SAPE  H18R16994   0.480   0.185   8.166  0.2884  0.1091  4.1677
  153SAPE  H18S16995   0.310   0.229   8.189 -1.5960  1.7930 -1.9477
  153SAPE  C21916996   0.451   0.340   8.298 -1.3166 -0.4010 -0.0508
  153SAPE  H19R16997   0.392   0.434   8.305  0.4656  1.0110 -2.4466
  153SAPE  H19S16998   0.556   0.372   8.279 -1.4114 -0.4189 -0.6463
  153SAPE  C22016999   0.430   0.248   8.423  0.3481 -0.0389  1.2715
  153SAPE  H20R17000   0.433   0.313   8.514 -0.0983  0.3702  0.9948
  153SAPE  H20S17001   0.503   0.166   8.441 -0.6684 -0.7089  2.4622
  153SAPE  H20T17002   0.326   0.210   8.416  0.4203  0.0967 -1.1949
  153SAPE   C3317003   0.119   0.938   6.834  0.8703 -0.0112  1.0219
  153SAPE   H3X17004   0.170   0.839   6.835 -1.9941 -1.6065  2.2568
  153SAPE   H3Y17005   0.012   0.908   6.840  0.6142  0.1680 -1.4921
  153SAPE   C3417006   0.159   1.002   6.970  0.4169 -0.0100 -0.2862
  153SAPE   H4X17007   0.204   1.103   6.965  0.6787  0.0927  2.5060
  153SAPE   H4Y17008   0.246   0.941   7.000  0.8148 -0.0195 -1.4195
  153SAPE   C3517009   0.045   1.003   7.078  0.9097 -0.3671  0.0501
  153SAPE   H5X17010   0.004   0.901   7.090  2.1765 -1.2303 -2.2498
  153SAPE   H5Y17011  -0.023   1.067   7.018  1.1491 -0.9868 -0.9042
  153SAPE   C3617012   0.090   1.057   7.214 -0.6648 -0.1870 -0.0187
  153SAPE   H6X17013   0.112   1.165   7.204  1.2477 -0.4812  0.5358
  153SAPE   H6Y17014   0.182   1.005   7.250  1.7286  4.1669  0.8895
  153SAPE   C3717015  -0.036   1.047   7.303  0.6840 -0.1965 -0.2943
  153SAPE   H7X17016  -0.085   0.949   7.284 -1.0173  0.3847  0.8581
  153SAPE   H7Y17017  -0.113   1.124   7.281  2.2082  1.1943 -0.9521
  153SAPE   C3817018   0.004   1.032   7.453  0.1434  0.1152  0.1937
  153SAPE   H8X17019   0.091   1.095   7.480  1.0803 -0.2429 -1.7997
  153SAPE   H8Y17020   0.041   0.928   7.464  0.9470  0.1181 -1.9973
  153SAPE   C3917021  -0.113   1.045   7.555  0.0876 -0.4304  0.2256
  153SAPE   H9X17022  -0.195   0.970   7.553 -0.7831  0.5055 -0.3984
  153SAPE   H9Y17023  -0.163   1.144   7.559 -3.3309 -2.0497  3.4826
  153SAPE  C31017024  -0.059   1.043   7.697 -0.3394  0.2161  0.0433
  153SAPE  H10X17025   0.047   1.075   7.698 -0.0988 -0.4285 -1.4014
  153SAPE  H10Y17026  -0.060   0.937   7.731 -3.1243  0.7224  1.8259
  153SAPE  C31117027  -0.155   1.111   7.799  0.6508  0.1097 -0.2715
  153SAPE  H11X17028  -0.257   1.084   7.764  1.0143 -0.7892 -0.6957
  153SAPE  H11Y17029  -0.141   1.220   7.811 -0.8506  0.1570  1.4457
  153SAPE  C31217030  -0.140   1.050   7.941 -0.4138  0.1117 -0.6189
  153SAPE  H12X17031  -0.044   1.079   7.989  0.5078 -2.6690 -0.6476
  153SAPE  H12Y17032  -0.137   0.940   7.932 -0.2367  0.0824 -0.2055
  153SAPE  C31317033  -0.260   1.080   8.038 -0.5265 -0.6419  0.6490
  153SAPE  H13X17034  -0.339   1.005   8.014 -0.9646  1.1322 -4.5019
  153SAPE  H13Y17035  -0.307   1.173   8.000 -0.3048 -0.5347  0.6380
  153SAPE  C31417036  -0.232   1.087   8.183 -0.3897 -1.0991 -0.1351
  153SAPE  H14X17037  -0.183   0.995   8.222  1.8428  0.3831  0.7717
  153SAPE  H14Y17038  -0.315   1.099   8.256 -0.0377 -0.7394  0.2072
  153SAPE  C31517039  -0.142   1.211   8.210 -0.9572 -0.2980 -0.2559
  153SAPE  H15X17040  -0.206   1.299   8.189 -1.0762 -0.2090  0.4605
  153SAPE  H15Y17041  -0.052   1.212   8.144  1.1238  1.2362  2.3710
  153SAPE  C31617042  -0.104   1.214   8.355  0.5156 -0.0617 -0.4190
  153SAPE  H16X17043  -0.201   1.191   8.404 -0.6471 -1.2591 -3.1120
  153SAPE  H16Y17044  -0.093   1.320   8.388  0.1510 -1.0087  3.2398
  153SAPE  C31717045   0.001   1.123   8.403 -0.2674  0.7599 -0.7139
  153SAPE  H17X17046   0.100   1.150   8.362  0.8939 -2.6084 -0.3626
  153SAPE  H17Y17047  -0.006   1.019   8.368  2.3970  0.5736 -0.8947
  153SAPE  C31817048   0.012   1.131   8.554 -0.2210  0.4142 -0.1199
  153SAPE  H18X17049   0.028   1.235   8.591 -0.3818  0.6368 -0.6546
  153SAPE  H18Y17050   0.106   1.083   8.588 -0.0451  1.0851  0.3821
  153SAPE  H18Z17051  -0.073   1.080   8.604  0.0574  1.6341  1.6924
  154SAPE     N17052   2.580   6.331   6.116 -0.0090 -0.4069 -0.5419
  154SAPE   HN117053   2.615   6.340   6.214 -1.7335 -3.0879  0.4465
  154SAPE   HN217054   2.561   6.426   6.080 -1.4004 -1.1126 -1.7776
  154SAPE   HN317055   2.503   6.262   6.105 -2.5716  1.2616  4.1816
  154SAPE   C1217056   2.681   6.270   6.023  0.2623  0.0756  0.4408
  154SAPE  H12A17057   2.768   6.337   6.005 -0.0637  0.7260  1.1997
  154SAPE  H12B17058   2.625   6.265   5.928 -2.1092 -1.5333  1.8069
  154SAPE   C1117059   2.735   6.135   6.069  0.5357 -0.7017 -0.3812
  154SAPE  H11A17060   2.791   6.150   6.164 -3.3692 -2.0734  2.3597
  154SAPE  H11B17061   2.808   6.107   5.990  1.5363  0.6243  0.0238
  154SAPE     P17062   2.639   5.901   6.101  0.4428 -0.0529  0.4208
  154SAPE   O1317063   2.516   5.845   6.151  0.3104 -0.3626  0.5713
  154SAPE   O1417064   2.682   5.860   5.964  0.6065 -0.2590  0.6545
  154SAPE   O1217065   2.623   6.057   6.093 -0.4552 -0.4099  0.2039
  154SAPE   O1117066   2.754   5.878   6.212  0.7995 -0.8054  0.3309
  154SAPE    C117067   2.721   5.930   6.337 -0.1889  0.2948  0.3713
  154SAPE    HA17068   2.703   6.040   6.335 -1.9627  0.0531  1.0842
  154SAPE    HB17069   2.641   5.871   6.388  2.5417 -2.2838  1.9556
  154SAPE    C217070   2.854   5.919   6.422 -0.3290  0.1884  0.6401
  154SAPE    HS17071   2.931   5.980   6.369 -1.2822  1.4695  0.6871
  154SAPE   O2117072   2.887   5.782   6.435  0.1236  1.0768  0.5150
  154SAPE   C2117073   3.015   5.757   6.452 -0.0774  0.0293 -0.5833
  154SAPE   O2217074   3.103   5.839   6.462 -0.2981  0.2773 -0.1010
  154SAPE   C2217075   3.027   5.609   6.490 -0.8785  0.1083 -0.3038
  154SAPE   H2R17076   2.946   5.586   6.563 -0.2595  0.9445  0.6776
  154SAPE   H2S17077   3.013   5.546   6.400  1.8825  0.4033 -1.0158
  154SAPE    C317078   2.854   6.002   6.559 -0.3487  0.0651  0.7647
  154SAPE    HX17079   2.823   6.108   6.546  1.3683  0.4681 -0.2178
  154SAPE    HY17080   2.962   6.009   6.581  0.2522 -0.2157 -1.8446
  154SAPE   O3117081   2.787   5.936   6.662  0.7730 -0.1995 -0.3559
  154SAPE   C3117082   2.659   5.971   6.672 -0.9240  0.9029  0.2888
  154SAPE   O3217083   2.603   6.051   6.595 -0.2466 -0.3893  0.0179
  154SAPE   C3217084   2.595   5.913   6.796  0.5924 -0.3627  0.3009
  154SAPE   H2X17085   2.643   5.818   6.826 -0.0644 -0.9118 -0.3453
  154SAPE   H2Y17086   2.493   5.901   6.754  0.9804  0.6705 -0.9994
  154SAPE   C2317087   3.158   5.573   6.572  0.7185  0.0480 -0.0623
  154SAPE   H3R17088   3.232   5.620   6.504 -1.3108  1.7827 -1.1724
  154SAPE   H3S17089   3.158   5.462   6.585  0.1447  0.0331 -0.1576
  154SAPE   C2417090   3.147   5.636   6.720 -0.5909 -0.7686 -0.7269
  154SAPE   H4R17091   3.124   5.745   6.719 -0.9789 -0.8437 -0.2546
  154SAPE   H4S17092   3.251   5.639   6.758 -0.4277 -1.2645 -1.1311
  154SAPE   C2517093   3.055   5.577   6.818  0.9981 -0.8999 -0.4274
  154SAPE   H5R17094   3.001   5.485   6.791  2.8651 -2.4102  0.7534
  154SAPE   C2617095   3.017   5.636   6.932 -0.1004 -0.0545 -0.2787
  154SAPE   H6R17096   2.949   5.579   6.996 -0.2376 -0.4257 -0.7508
  154SAPE   C2717097   3.056   5.776   6.984 -0.5089  0.7520 -0.2578
  154SAPE   H7R17098   3.127   5.823   6.912 -1.2958  1.2509 -0.7217
  154SAPE   H7S17099   3.111   5.762   7.080 -1.1499 -1.5888 -0.1532
  154SAPE   C2817100   2.925   5.852   7.006  0.1677  0.4192  0.2106
  154SAPE   H8R17101   2.876   5.897   6.918 -0.8854 -0.5321  0.2899
  154SAPE   C2917102   2.855   5.842   7.117 -0.0723  0.0086 -0.0794
  154SAPE   H9R17103   2.761   5.898   7.133 -1.1782 -1.6325 -0.5540
  154SAPE  C21017104   2.889   5.771   7.246 -0.0175  0.1846 -0.4549
  154SAPE  H10R17105   2.944   5.679   7.220 -3.4206 -2.3165  0.4350
  154SAPE  H10S17106   2.795   5.753   7.303 -0.2570  0.2390 -0.8275
  154SAPE  C21117107   2.968   5.848   7.351  0.0985  0.6280 -0.0277
  154SAPE  H11R17108   3.012   5.945   7.322  0.9805 -0.0938 -1.1745
  154SAPE  C21217109   3.014   5.806   7.471  0.5618 -0.2178  0.2486
  154SAPE  H12R17110   3.070   5.877   7.533 -0.1501 -0.2908  0.9974
  154SAPE  C21317111   2.980   5.679   7.545  0.2964  0.1322  0.0505
  154SAPE  H13R17112   2.931   5.598   7.487  3.0960 -0.8594 -1.1137
  154SAPE  H13S17113   2.915   5.705   7.631  1.0316 -2.6063  1.5549
  154SAPE  C21417114   3.103   5.621   7.609  0.5591  0.4086 -1.1357
  154SAPE  H14R17115   3.140   5.527   7.565 -2.8101 -0.9867 -1.2929
  154SAPE  C21517116   3.166   5.655   7.717  0.1521 -0.0425 -0.1404
  154SAPE  H15R17117   3.257   5.605   7.752 -0.5723 -0.2213  1.5842
  154SAPE  C21617118   3.139   5.775   7.808  0.0796  0.4473 -0.8899
  154SAPE  H16R17119   3.058   5.843   7.776 -1.4931 -1.2134 -0.5756
  154SAPE  H16S17120   3.224   5.847   7.804  0.3728  0.0768 -1.5413
  154SAPE  C21717121   3.100   5.740   7.959  0.5894  0.7964  0.0547
  154SAPE  H17R17122   3.006   5.683   7.974 -0.1315  1.9398 -0.0227
  154SAPE  H17S17123   3.090   5.838   8.010 -0.7281  0.7923 -0.1821
  154SAPE  C21817124   3.222   5.658   8.017 -0.3720 -0.2009  0.4124
  154SAPE  H18R17125   3.314   5.690   7.965 -0.9165  0.2694 -0.2722
  154SAPE  H18S17126   3.215   5.550   7.992  1.2329 -0.8526  2.4947
  154SAPE  C21917127   3.224   5.661   8.166  0.3946  0.8256  0.0304
  154SAPE  H19R17128   3.257   5.757   8.212 -2.6979  1.6020  0.8641
  154SAPE  H19S17129   3.304   5.587   8.190 -0.4399  0.0936  0.6324
  154SAPE  C22017130   3.099   5.613   8.239  0.1604  0.5658  0.3736
  154SAPE  H20R17131   3.083   5.511   8.198  1.5016 -0.2242  1.7124
  154SAPE  H20S17132   3.008   5.676   8.232 -3.1539 -3.6114  1.8554
  154SAPE  H20T17133   3.106   5.594   8.349 -2.7557  0.9906  0.7111
  154SAPE   C3317134   2.586   6.008   6.917 -0.1683 -0.8986 -0.0303
  154SAPE   H3X17135   2.554   6.109   6.884  1.9424 -0.1348  0.1356
  154SAPE   H3Y17136   2.689   6.036   6.946  0.7559 -1.0427 -2.8448
  154SAPE   C3417137   2.503   5.960   7.036  0.0634  0.3775  0.4741
  154SAPE   H4X17138   2.531   5.853   7.043 -0.1149  0.3497  0.8195
  154SAPE   H4Y17139   2.396   5.955   7.003 -0.6571  0.7324  2.5969
  154SAPE   C3517140   2.522   6.031   7.173 -0.1782 -0.1103 -0.3693
  154SAPE   H5X17141   2.519   6.142   7.163  1.0045  0.0365  0.6828
  154SAPE   H5Y17142   2.618   5.991   7.213 -1.9377 -2.7731  1.5625
  154SAPE   C3617143   2.426   5.973   7.282  0.4341  0.4738  0.1794
  154SAPE   H6X17144   2.429   5.862   7.279 -2.2591  0.1565  3.4033
  154SAPE   H6Y17145   2.330   6.020   7.250 -0.2585  0.9266  2.7156
  154SAPE   C3717146   2.448   6.007   7.424 -0.1041 -0.4481  0.3761
  154SAPE   H7X17147   2.351   6.018   7.476  0.3080 -0.1346  1.0940
  154SAPE   H7Y17148   2.493   6.109   7.425 -1.4272  0.2303 -1.9679
  154SAPE   C3817149   2.536   5.910   7.508  0.0729 -0.0737 -0.1971
  154SAPE   H8X17150   2.630   5.904   7.449  2.1377 -1.3840  3.0000
  154SAPE   H8Y17151   2.488   5.810   7.506  0.2889 -0.1869 -2.2181
  154SAPE   C3917152   2.562   5.952   7.654 -0.1210 -0.5370  0.5360
  154SAPE   H9X17153   2.474   5.928   7.717 -1.2545 -0.8111 -1.0976
  154SAPE   H9Y17154   2.595   6.058   7.659  0.3587 -0.3248 -3.6211
  154SAPE  C31017155   2.690   5.877   7.707  0.1113  0.2392 -0.0015
  154SAPE  H10X17156   2.768   5.889   7.628 -1.0823 -1.1704 -1.4768
  154SAPE  H10Y17157   2.677   5.767   7.715 -0.9573  0.3764  0.2806
  154SAPE  C31117158   2.733   5.937   7.842  0.8036  0.2360  0.5312
  154SAPE  H11X17159   2.730   6.047   7.827  0.8350 -0.0603 -2.2605
  154SAPE  H11Y17160   2.832   5.894   7.870  0.1796 -2.2227 -0.7518
  154SAPE  C31217161   2.637   5.907   7.959 -0.1490 -0.2432  0.2187
  154SAPE  H12X17162   2.535   5.921   7.917  0.1565  0.0328 -0.4445
  154SAPE  H12Y17163   2.647   5.978   8.044 -1.4113 -0.2960  0.4252
  154SAPE  C31317164   2.665   5.764   8.017 -0.1394 -0.1993 -0.6690
  154SAPE  H13X17165   2.760   5.789   8.069 -1.4989  1.5964  1.1603
  154SAPE  H13Y17166   2.680   5.694   7.933  0.0182  1.9940 -2.5736
  154SAPE  C31417167   2.552   5.708   8.109  0.3897  0.1319  0.4024
  154SAPE  H14X17168   2.571   5.599   8.108  0.0006  0.0657 -0.4878
  154SAPE  H14Y17169   2.452   5.726   8.064  0.9554 -0.5870 -1.2031
  154SAPE  C31517170   2.567   5.750   8.252 -0.6328 -0.3615 -0.4047
  154SAPE  H15X17171   2.670   5.748   8.292 -0.2034  0.0736 -1.4507
  154SAPE  H15Y17172   2.505   5.671   8.301  0.8403 -0.8842  0.6857
  154SAPE  C31617173   2.524   5.900   8.287 -0.1498 -0.1087 -0.1563
  154SAPE  H16X17174   2.602   5.970   8.249 -1.4112  2.1628  1.2401
  154SAPE  H16Y17175   2.520   5.903   8.398 -3.3990 -1.2636 -0.1274
  154SAPE  C31717176   2.389   5.949   8.247  0.0682  0.2219 -0.3376
  154SAPE  H17X17177   2.322   5.863   8.266  1.6630 -0.5339  2.4859
  154SAPE  H17Y17178   2.394   5.964   8.137 -2.2185 -1.6006 -0.7595
  154SAPE  C31817179   2.348   6.078   8.323  0.2289  0.8181  0.1685
  154SAPE  H18X17180   2.257   6.115   8.270  1.6681  1.4355 -1.9899
  154SAPE  H18Y17181   2.434   6.148   8.315  0.9477 -0.1860 -1.2237
  154SAPE  H18Z17182   2.319   6.049   8.426 -1.6310 -0.8943 -0.7743
  155SAPE     N17183   4.866   5.654   5.967  0.5265 -0.3519 -0.5605
  155SAPE   HN117184   4.768   5.662   5.934 -0.0164 -2.9085  0.2293
  155SAPE   HN217185   4.938   5.672   5.893  2.2554  0.4431  1.2190
  155SAPE   HN317186   4.878   5.553   5.989  1.6265 -0.1393 -0.1115
  155SAPE   C1217187   4.882   5.725   6.101 -0.1806 -0.1774 -0.4612
  155SAPE  H12A17188   4.982   5.695   6.139  1.0202  1.4839 -2.1578
  155SAPE  H12B17189   4.813   5.678   6.175  1.5403  0.4117  1.6151
  155SAPE   C1117190   4.873   5.879   6.094  0.5220  0.7184  0.0943
  155SAPE  H11A17191   4.945   5.907   6.015  1.0829 -1.8944 -0.3946
  155SAPE  H11B17192   4.915   5.911   6.192 -0.3757 -1.7593  1.3975
  155SAPE     P17193   4.638   5.993   6.168 -0.3791 -0.1199 -0.1342
  155SAPE   O1317194   4.651   6.138   6.139 -0.8718  0.2808 -0.1789
  155SAPE   O1417195   4.506   5.936   6.157  0.4683 -0.0502 -0.4534
  155SAPE   O1217196   4.735   5.920   6.069  0.1563  0.5629  0.1380
  155SAPE   O1117197   4.698   5.953   6.310  0.1553  0.5380  0.1595
  155SAPE    C117198   4.633   5.843   6.382 -0.1854  0.1217  0.6274
  155SAPE    HA17199   4.584   5.773   6.311 -2.3338 -0.9655  3.0207
  155SAPE    HB17200   4.713   5.789   6.437  0.1156 -0.4617 -0.3419
  155SAPE    C217201   4.522   5.878   6.488 -0.5490  0.3240  0.0015
  155SAPE    HS17202   4.443   5.934   6.432 -0.5093 -0.0132 -0.3872
  155SAPE   O2117203   4.574   5.960   6.596  0.2548  0.1518 -0.2525
  155SAPE   C2117204   4.503   6.061   6.640  0.6687  0.3368 -0.5955
  155SAPE   O2217205   4.393   6.090   6.598 -0.0056  0.5990 -0.0010
  155SAPE   C2217206   4.577   6.142   6.750  0.5388  0.5628  0.3539
  155SAPE   H2R17207   4.682   6.105   6.751  0.3460  0.0013  0.4489
  155SAPE   H2S17208   4.577   6.242   6.702  0.1050 -0.1197 -1.1241
  155SAPE    C317209   4.450   5.747   6.539  0.0277 -0.0619 -1.1012
  155SAPE    HX17210   4.523   5.676   6.583 -0.7939  0.0116  0.4429
  155SAPE    HY17211   4.405   5.696   6.451 -0.8386 -1.0086 -0.1395
  155SAPE   O3117212   4.346   5.780   6.636 -0.1814  0.6324  0.0757
  155SAPE   C3117213   4.234   5.818   6.584  0.4924  0.4487  0.9601
  155SAPE   O3217214   4.209   5.830   6.465 -0.6911 -0.1020 -0.0367
  155SAPE   C3217215   4.125   5.842   6.692 -0.4163 -0.5464  0.2801
  155SAPE   H2X17216   4.035   5.786   6.657 -1.4980  0.8246  0.7823
  155SAPE   H2Y17217   4.100   5.950   6.692  0.3549 -0.3209  2.6877
  155SAPE   C2317218   4.503   6.135   6.883  0.1150 -0.1347  0.0061
  155SAPE   H3R17219   4.397   6.169   6.878  0.2814  0.6865  1.4727
  155SAPE   H3S17220   4.552   6.206   6.953  3.6423 -0.5628 -1.7886
  155SAPE   C2417221   4.509   5.998   6.944 -0.7669  1.3189 -0.5602
  155SAPE   H4R17222   4.459   5.926   6.875  1.0503  1.1601 -1.7715
  155SAPE   H4S17223   4.445   5.996   7.034  0.3419 -2.0958  0.3045
  155SAPE   C2517224   4.652   5.942   6.972 -1.1903 -0.5173  0.0607
  155SAPE   H5R17225   4.728   5.966   6.896  0.5093  0.3151  1.9524
  155SAPE   C2617226   4.695   5.895   7.088 -0.2028  0.0961  0.3382
  155SAPE   H6R17227   4.798   5.855   7.092 -0.4460 -0.6310 -0.4288
  155SAPE   C2717228   4.616   5.860   7.209  0.2477 -0.3558  0.1740
  155SAPE   H7R17229   4.669   5.778   7.262 -0.1770 -0.1034  1.0218
  155SAPE   H7S17230   4.523   5.807   7.178  1.1453 -0.8506 -1.7572
  155SAPE   C2817231   4.579   5.980   7.293  0.5212  0.7820 -0.9051
  155SAPE   H8R17232   4.536   6.065   7.239  2.5112  2.5559  0.1394
  155SAPE   C2917233   4.580   5.993   7.426 -0.1300 -0.6092 -0.3866
  155SAPE   H9R17234   4.550   6.093   7.460  0.0325 -0.4851 -0.6154
  155SAPE  C21017235   4.623   5.889   7.527 -0.1103 -0.6937  0.0784
  155SAPE  H10R17236   4.690   5.821   7.472 -1.5035 -2.1973  0.1585
  155SAPE  H10S17237   4.532   5.832   7.556 -1.5420  0.7337 -1.4140
  155SAPE  C21117238   4.692   5.961   7.640  0.2441 -0.1774  0.5199
  155SAPE  H11R17239   4.787   6.004   7.604 -0.7230  1.0179 -0.6942
  155SAPE  C21217240   4.664   5.949   7.771  0.3538 -0.1114  0.8309
  155SAPE  H12R17241   4.725   6.011   7.838  1.0129  0.0925  0.0591
  155SAPE  C21317242   4.556   5.871   7.831 -0.3865 -0.0287  0.4497
  155SAPE  H13R17243   4.565   5.770   7.787 -1.0612  1.2906 -3.0477
  155SAPE  H13S17244   4.460   5.918   7.800 -0.0753 -0.0190 -0.5262
  155SAPE  C21417245   4.560   5.867   7.981  0.1977 -0.3056  0.4194
  155SAPE  H14R17246   4.582   5.765   8.018  0.7696 -0.2839  0.1464
  155SAPE  C21517247   4.543   5.970   8.071 -0.0340  0.0021  0.6109
  155SAPE  H15R17248   4.542   5.953   8.180 -1.0393 -0.6306  0.5082
  155SAPE  C21617249   4.518   6.116   8.047 -0.0864 -0.2345 -1.3237
  155SAPE  H16R17250   4.412   6.149   8.061  0.9593  2.4241  1.5083
  155SAPE  H16S17251   4.546   6.134   7.941 -1.0915  0.8909 -1.4185
  155SAPE  C21717252   4.586   6.192   8.158 -0.1153 -0.6586  0.2864
  155SAPE  H17R17253   4.548   6.164   8.258 -1.2550 -0.1711  0.0033
  155SAPE  H17S17254   4.568   6.302   8.157  2.1119 -0.2336  0.4963
  155SAPE  C21817255   4.738   6.175   8.174  0.5576 -0.6530  0.0194
  155SAPE  H18R17256   4.788   6.201   8.078 -1.2638  1.9416 -0.3276
  155SAPE  H18S17257   4.755   6.067   8.194  0.6091 -0.7505 -0.5564
  155SAPE  C21917258   4.803   6.277   8.276  0.4028  0.1223  0.0547
  155SAPE  H19R17259   4.741   6.369   8.279 -0.6397 -0.5743  2.3936
  155SAPE  H19S17260   4.910   6.287   8.252  0.1251  1.0788 -0.8531
  155SAPE  C22017261   4.796   6.212   8.414  0.1409 -0.1997  0.6168
  155SAPE  H20R17262   4.832   6.287   8.488  0.2455  0.2762  0.0953
  155SAPE  H20S17263   4.854   6.118   8.404 -2.0595 -1.5182 -0.6659
  155SAPE  H20T17264   4.693   6.179   8.442 -0.3206  0.6823  0.0313
  155SAPE   C3317265   4.155   5.787   6.832 -0.1005 -0.4930  0.2693
  155SAPE   H3X17266   4.254   5.815   6.873 -0.3950  3.3610 -1.2481
  155SAPE   H3Y17267   4.164   5.676   6.831  1.4362 -0.3983 -1.4244
  155SAPE   C3417268   4.030   5.824   6.919 -0.7809  0.1112  0.3686
  155SAPE   H4X17269   3.938   5.790   6.867  0.3735  0.3053 -1.9112
  155SAPE   H4Y17270   4.038   5.934   6.920  3.5727  0.0142  2.9067
  155SAPE   C3517271   4.038   5.778   7.061 -0.2026 -0.3021 -0.3758
  155SAPE   H5X17272   4.141   5.804   7.095  0.2896  0.7528 -2.5069
  155SAPE   H5Y17273   4.032   5.667   7.064 -1.0293 -0.2386  1.0774
  155SAPE   C3617274   3.943   5.832   7.163  0.1223  0.4166 -0.5045
  155SAPE   H6X17275   3.845   5.783   7.147 -0.1893  0.6788  0.5492
  155SAPE   H6Y17276   3.934   5.943   7.152 -2.6745  0.4799  1.4202
  155SAPE   C3717277   3.991   5.806   7.303 -0.1974  0.0492  0.3430
  155SAPE   H7X17278   3.912   5.856   7.364  1.1831  2.4101  0.3338
  155SAPE   H7Y17279   4.089   5.850   7.330 -0.4521  0.1789  1.1042
  155SAPE   C3817280   3.999   5.662   7.349  0.4806 -0.5220 -0.3068
  155SAPE   H8X17281   4.060   5.597   7.283  0.9300  0.7615 -1.2017
  155SAPE   H8Y17282   3.900   5.615   7.365 -0.0508  0.5920 -0.2523
  155SAPE   C3917283   4.082   5.641   7.489  0.5060 -0.4332  0.7851
  155SAPE   H9X17284   4.191   5.650   7.470  0.2054 -1.5084 -1.9234
  155SAPE   H9Y17285   4.050   5.535   7.503 -2.4974  0.2239 -0.2765
  155SAPE  C31017286   4.036   5.717   7.609 -0.3168  0.0537  0.2891
  155SAPE  H10X17287   3.926   5.717   7.618 -0.2200 -0.4201  1.8392
  155SAPE  H10Y17288   4.078   5.819   7.597  0.2244 -0.2515 -0.4918
  155SAPE  C31117289   4.090   5.640   7.728  0.5574  0.1043 -0.3918
  155SAPE  H11X17290   4.196   5.617   7.705  0.9805  2.1481 -0.7424
  155SAPE  H11Y17291   4.034   5.544   7.732 -0.5186  0.6498 -1.7369
  155SAPE  C31217292   4.059   5.709   7.868 -0.0587  0.4608 -0.6585
  155SAPE  H12X17293   3.953   5.739   7.876 -0.1470 -0.1560  0.8353
  155SAPE  H12Y17294   4.122   5.800   7.877 -0.1692  0.3478  2.2609
  155SAPE  C31317295   4.097   5.616   7.981 -0.3095  0.5179  0.1823
  155SAPE  H13X17296   4.206   5.595   7.978 -0.6132 -1.0865 -0.2162
  155SAPE  H13Y17297   4.048   5.518   7.966  2.5215 -0.7125 -1.7761
  155SAPE  C31417298   4.056   5.682   8.118  0.2932 -0.4340  0.5853
  155SAPE  H14X17299   3.948   5.702   8.110  0.2268 -0.9068  0.2098
  155SAPE  H14Y17300   4.114   5.775   8.140  0.3551  0.0363 -1.4211
  155SAPE  C31517301   4.057   5.593   8.247  0.5692  0.7699  0.8930
  155SAPE  H15X17302   4.159   5.575   8.288 -0.2119  1.4715  3.3079
  155SAPE  H15Y17303   4.013   5.496   8.217  1.0073  0.8767 -0.1588
  155SAPE  C31617304   3.970   5.651   8.367 -0.9654 -0.3125 -0.1740
  155SAPE  H16X17305   3.931   5.754   8.349 -1.7078 -0.3331  1.2024
  155SAPE  H16Y17306   4.035   5.655   8.457  1.1682 -3.0652 -1.4519
  155SAPE  C31717307   3.859   5.558   8.409  0.5984  0.7842 -0.4548
  155SAPE  H17X17308   3.910   5.463   8.435 -2.3150 -0.8431 -0.2735
  155SAPE  H17Y17309   3.790   5.532   8.326 -0.1536 -2.4644  1.0508
  155SAPE  C31817310   3.783   5.587   8.538  0.1870  0.2638 -0.0927
  155SAPE  H18X17311   3.829   5.552   8.633  0.6564  0.6114 -0.1939
  155SAPE  H18Y17312   3.687   5.530   8.527 -0.0945  0.6106  0.5213
  155SAPE  H18Z17313   3.751   5.693   8.527 -0.9349 -0.2107 -1.8777
  156SAPE     N17314   3.376   6.302   6.495 -0.0623 -0.1284  0.4769
  156SAPE   HN117315   3.449   6.228   6.495 -1.2886 -1.3760  0.3100
  156SAPE   HN217316   3.412   6.397   6.518 -2.6928  0.9718  0.3997
  156SAPE   HN317317   3.304   6.279   6.566 -1.3579  1.4588 -0.2480
  156SAPE   C1217318   3.310   6.308   6.361 -0.3396 -0.8481 -0.0242
  156SAPE  H12A17319   3.246   6.218   6.353 -1.6677  0.1393 -0.7701
  156SAPE  H12B17320   3.394   6.302   6.289  0.4267  1.0440  0.6491
  156SAPE   C1117321   3.252   6.448   6.335 -0.1087  0.5904  0.3546
  156SAPE  H11A17322   3.158   6.463   6.391  0.3126 -0.0847  1.2610
  156SAPE  H11B17323   3.224   6.437   6.228  0.3283  0.1432  0.2819
  156SAPE     P17324   3.363   6.675   6.274 -0.3446 -0.2454  0.1198
  156SAPE   O1317325   3.487   6.651   6.195 -0.1576 -0.3488  0.1731
  156SAPE   O1417326   3.238   6.714   6.207 -0.1075  0.1500 -0.1807
  156SAPE   O1217327   3.343   6.551   6.368  0.7873  0.3465 -0.3425
  156SAPE   O1117328   3.405   6.787   6.376 -0.2702 -0.1378  0.5312
  156SAPE    C117329   3.448   6.750   6.509  0.1424 -0.0690  0.8657
  156SAPE    HA17330   3.383   6.672   6.554  0.4555 -0.1061  1.2594
  156SAPE    HB17331   3.546   6.699   6.503 -0.9432 -2.1791 -3.0700
  156SAPE    C217332   3.444   6.875   6.597  0.3812 -0.1478  0.9026
  156SAPE    HS17333   3.485   6.963   6.542  0.6780 -0.9933 -0.2541
  156SAPE   O2117334   3.526   6.846   6.710 -0.3252  0.6891  0.2479
  156SAPE   C2117335   3.658   6.828   6.694  0.0385 -0.1358  0.0886
  156SAPE   O2217336   3.716   6.841   6.590  0.4792  0.3143  0.7656
  156SAPE   C2217337   3.713   6.806   6.832  0.1785  0.0760 -0.5158
  156SAPE   H2R17338   3.650   6.858   6.907  0.6287 -0.4976  0.2802
  156SAPE   H2S17339   3.706   6.697   6.854  2.7132 -0.1581 -0.4824
  156SAPE    C317340   3.297   6.930   6.637  0.4431  0.8747  0.4402
  156SAPE    HX17341   3.231   6.847   6.670 -0.9980  2.7856  2.6725
  156SAPE    HY17342   3.262   6.961   6.536  1.7271  0.6680 -0.0832
  156SAPE   O3117343   3.294   7.047   6.713 -0.2052 -0.0019  0.4915
  156SAPE   C3117344   3.292   7.028   6.846 -1.0226 -0.3470  0.6761
  156SAPE   O3217345   3.286   6.924   6.900 -0.5414 -0.1191  0.0883
  156SAPE   C3217346   3.300   7.164   6.918  0.7983  0.5766  0.7473
  156SAPE   H2X17347   3.320   7.130   7.022  0.2605  0.0937  0.6966
  156SAPE   H2Y17348   3.193   7.191   6.911  0.1601 -1.9181 -4.1076
  156SAPE   C2317349   3.864   6.849   6.865  0.0710  0.3327  0.0203
  156SAPE   H3R17350   3.871   6.954   6.829 -1.1001  0.8850  1.3210
  156SAPE   H3S17351   3.933   6.792   6.799 -1.1928  1.5578 -2.5082
  156SAPE   C2417352   3.890   6.848   7.012  0.0754  0.2887  0.2922
  156SAPE   H4R17353   3.875   6.748   7.058  1.9549  0.3796  1.2152
  156SAPE   H4S17354   3.800   6.903   7.046 -0.8407 -0.4740 -0.8412
  156SAPE   C2517355   4.019   6.904   7.062 -0.2707  0.2814  0.3077
  156SAPE   H5R17356   4.079   6.945   6.980 -1.0336 -1.3531 -1.1375
  156SAPE   C2617357   4.075   6.896   7.183  0.8768 -0.1594 -0.7413
  156SAPE   H6R17358   4.178   6.931   7.203  0.1604  2.3305 -1.0058
  156SAPE   C2717359   4.004   6.837   7.300  0.2767 -0.2311  0.4707
  156SAPE   H7R17360   4.068   6.757   7.343 -0.0587 -0.9108 -0.2693
  156SAPE   H7S17361   3.919   6.781   7.255 -0.1449  2.0158 -1.7697
  156SAPE   C2817362   3.946   6.931   7.401 -0.0071 -0.0920 -0.3682
  156SAPE   H8R17363   3.893   7.017   7.358 -1.1285 -1.1894 -1.2477
  156SAPE   C2917364   3.936   6.905   7.530 -0.4186  0.2887 -0.3270
  156SAPE   H9R17365   3.898   6.986   7.593 -0.3678  0.7389 -0.8648
  156SAPE  C21017366   3.969   6.783   7.616  0.0877 -0.2283 -0.0690
  156SAPE  H10R17367   3.971   6.684   7.566 -0.2812 -1.8104  2.8303
  156SAPE  H10S17368   3.905   6.777   7.706 -2.4447  1.8169 -1.5943
  156SAPE  C21117369   4.115   6.792   7.659 -0.3474  0.4283 -0.4666
  156SAPE  H11R17370   4.186   6.828   7.582  0.2607  0.8541  0.2759
  156SAPE  C21217371   4.166   6.787   7.786  0.0031  0.0453 -0.1595
  156SAPE  H12R17372   4.273   6.802   7.807  0.4572 -2.6967 -0.1603
  156SAPE  C21317373   4.086   6.759   7.912 -0.5862  0.0432  0.1504
  156SAPE  H13R17374   3.990   6.707   7.891 -2.5004  4.0259 -2.0510
  156SAPE  H13S17375   4.052   6.857   7.951 -0.2076  0.8539 -1.4443
  156SAPE  C21417376   4.157   6.686   8.018 -0.0314 -0.7143 -0.4014
  156SAPE  H14R17377   4.239   6.623   7.981  0.2625 -0.4721 -0.1653
  156SAPE  C21517378   4.121   6.684   8.151 -0.3684 -0.6145 -0.3064
  156SAPE  H15R17379   4.178   6.622   8.221 -1.2261 -0.4182  0.5932
  156SAPE  C21617380   4.004   6.753   8.216  0.1926  0.3582 -0.3055
  156SAPE  H16R17381   3.940   6.799   8.138 -0.6214 -0.1265  0.0620
  156SAPE  H16S17382   4.028   6.842   8.278 -2.6617  0.5910  0.5898
  156SAPE  C21717383   3.918   6.646   8.282  0.3120  0.2173 -0.0075
  156SAPE  H17R17384   3.889   6.559   8.219  2.2875 -0.3381 -0.2322
  156SAPE  H17S17385   3.820   6.686   8.314  1.4309  1.3978  2.2334
  156SAPE  C21817386   3.981   6.583   8.412  0.6849  0.0857  0.1936
  156SAPE  H18R17387   4.067   6.513   8.400  0.7821 -0.3322  2.6497
  156SAPE  H18S17388   3.894   6.533   8.460 -1.0372  0.1187 -2.6759
  156SAPE  C21917389   4.032   6.678   8.524 -1.1131  0.4853  0.2919
  156SAPE  H19R17390   4.098   6.757   8.482  2.0811 -0.0515  3.7810
  156SAPE  H19S17391   4.106   6.624   8.587  0.2789 -0.0197 -1.6816
  156SAPE  C22017392   3.923   6.739   8.616  0.5716 -0.0919 -0.3662
  156SAPE  H20R17393   3.969   6.786   8.705  0.5469  0.6794 -0.7435
  156SAPE  H20S17394   3.854   6.657   8.645  0.0204 -0.2042 -1.8993
  156SAPE  H20T17395   3.853   6.807   8.562 -0.3806  0.5015  1.5049
  156SAPE   C3317396   3.395   7.268   6.861 -0.3038  0.3194  0.3633
  156SAPE   H3X17397   3.379   7.364   6.915  1.2345 -0.6246  2.6682
  156SAPE   H3Y17398   3.363   7.285   6.756 -2.4128 -1.6337  0.6076
  156SAPE   C3417399   3.544   7.227   6.874 -0.3690 -0.2368  0.3177
  156SAPE   H4X17400   3.595   7.252   6.779  0.8408  1.0384  1.2615
  156SAPE   H4Y17401   3.549   7.116   6.876 -3.9230 -0.6656 -2.7822
  156SAPE   C3517402   3.618   7.278   6.998 -0.3373 -0.5289  0.0951
  156SAPE   H5X17403   3.613   7.389   6.987 -1.8200 -0.6330 -0.5601
  156SAPE   H5Y17404   3.722   7.241   6.993 -0.4692 -0.8213 -0.7532
  156SAPE   C3617405   3.557   7.257   7.132 -0.0677  0.1061  0.2755
  156SAPE   H6X17406   3.448   7.280   7.129 -0.1702 -0.4561 -1.1592
  156SAPE   H6Y17407   3.603   7.322   7.209 -0.2093  1.3851 -0.6919
  156SAPE   C3717408   3.584   7.119   7.200  0.6256 -0.9996  0.5658
  156SAPE   H7X17409   3.694   7.120   7.208  0.6817  2.8769  0.7894
  156SAPE   H7Y17410   3.565   7.031   7.134  0.3763 -0.4553 -0.1025
  156SAPE   C3817411   3.502   7.108   7.331 -0.1288 -0.9021  0.0906
  156SAPE   H8X17412   3.424   7.032   7.306  0.0681 -0.2691 -2.8580
  156SAPE   H8Y17413   3.460   7.209   7.351  0.2378 -0.8854  0.7884
  156SAPE   C3917414   3.588   7.060   7.443  0.6987  0.1562  0.2397
  156SAPE   H9X17415   3.684   7.116   7.437  1.4270 -0.8696  1.6775
  156SAPE   H9Y17416   3.607   6.956   7.410 -0.1079  0.3039 -0.7391
  156SAPE  C31017417   3.525   7.071   7.583 -0.2259 -0.5233 -0.4196
  156SAPE  H10X17418   3.438   7.002   7.579 -1.4060  0.6230  2.5121
  156SAPE  H10Y17419   3.491   7.177   7.593  1.9159  0.4019 -2.0545
  156SAPE  C31117420   3.622   7.040   7.706 -0.3869 -0.4143  0.4187
  156SAPE  H11X17421   3.694   7.125   7.705 -0.4668 -0.3324  1.0816
  156SAPE  H11Y17422   3.674   6.944   7.685  1.7223  1.0159 -1.3863
  156SAPE  C31217423   3.555   7.042   7.834  0.0615 -0.4720 -1.0401
  156SAPE  H12X17424   3.467   6.974   7.832  1.1321 -1.9267 -0.9062
  156SAPE  H12Y17425   3.524   7.143   7.868 -1.0724 -0.7955 -1.0769
  156SAPE  C31317426   3.636   6.982   7.947  0.0322 -0.2818  0.1829
  156SAPE  H13X17427   3.736   7.032   7.943  1.2411 -2.4502  1.4241
  156SAPE  H13Y17428   3.669   6.877   7.929 -0.6986 -0.6086  0.7107
  156SAPE  C31417429   3.580   7.005   8.091 -0.3638 -0.9017 -0.0521
  156SAPE  H14X17430   3.477   6.965   8.097 -0.5250 -0.8915 -2.0780
  156SAPE  H14Y17431   3.570   7.114   8.114  0.4286 -0.9127  0.3958
  156SAPE  C31517432   3.682   6.954   8.192  0.5404 -0.0511  0.5072
  156SAPE  H15X17433   3.782   6.997   8.171  0.8235 -0.0429  1.8333
  156SAPE  H15Y17434   3.683   6.844   8.181 -0.5454 -0.0603  0.3274
  156SAPE  C31617435   3.645   6.997   8.330 -0.6208  0.5942 -0.3391
  156SAPE  H16X17436   3.626   7.107   8.332 -1.6610  0.4145  0.0015
  156SAPE  H16Y17437   3.735   6.986   8.395 -0.9539 -1.0457 -0.1331
  156SAPE  C31717438   3.531   6.919   8.393 -1.2252  0.5426  0.2576
  156SAPE  H17X17439   3.560   6.813   8.407  0.8569  1.1690  0.9749
  156SAPE  H17Y17440   3.432   6.933   8.344 -2.6008  1.7385  3.1469
  156SAPE  C31817441   3.500   6.973   8.531 -0.0616  0.0129  0.9485
  156SAPE  H18X17442   3.465   7.076   8.514  0.0490  0.0666  1.0419
  156SAPE  H18Y17443   3.586   6.980   8.602  0.1840  0.3666  0.6179
  156SAPE  H18Z17444   3.418   6.909   8.570 -1.1750  0.9752  0.2315
  157SAPE     N17445   0.460   2.299   6.397  0.0626 -0.0597  0.5985
  157SAPE   HN117446   0.543   2.323   6.456  2.0874 -2.7205 -0.9738
  157SAPE   HN217447   0.436   2.389   6.351 -1.5425  1.4956  4.0824
  157SAPE   HN317448   0.378   2.270   6.454 -2.2970  1.1932 -1.9102
  157SAPE   C1217449   0.508   2.207   6.297 -0.4838  0.7249  0.0907
  157SAPE  H12A17450   0.554   2.263   6.214  0.9784 -1.0370 -0.3659
  157SAPE  H12B17451   0.419   2.152   6.260  0.9997 -1.8699  0.1130
  157SAPE   C1117452   0.598   2.096   6.352  0.9122 -0.4138  0.6714
  157SAPE  H11A17453   0.558   2.060   6.449  1.8494  2.4256  2.2170
  157SAPE  H11B17454   0.696   2.134   6.388  1.4461 -2.0492  1.0533
  157SAPE     P17455   0.740   1.938   6.201 -0.1613  0.2458 -0.1864
  157SAPE   O1317456   0.713   1.833   6.102 -0.3055 -0.2610 -0.0015
  157SAPE   O1417457   0.824   2.049   6.157  0.0479  0.3742  0.0933
  157SAPE   O1217458   0.607   1.981   6.265  0.1560  0.2606  0.0888
  157SAPE   O1117459   0.815   1.874   6.317 -0.5169  0.0389  0.0130
  157SAPE    C117460   0.748   1.772   6.398  0.2619 -0.3928 -0.6095
  157SAPE    HA17461   0.670   1.814   6.465  0.6764 -1.4662  0.6047
  157SAPE    HB17462   0.689   1.691   6.349 -0.5317 -1.6941  2.2327
  157SAPE    C217463   0.845   1.708   6.503 -0.0580  0.3470 -0.2202
  157SAPE    HS17464   0.786   1.676   6.591  1.8460  0.1902  1.0568
  157SAPE   O2117465   0.944   1.798   6.540 -0.0917 -0.6957 -0.8009
  157SAPE   C2117466   0.904   1.915   6.599  0.3006 -0.5082  0.3338
  157SAPE   O2217467   0.791   1.944   6.641 -0.8954 -0.2878  0.8682
  157SAPE   C2217468   1.030   2.005   6.615 -0.0124 -0.4632 -0.4287
  157SAPE   H2R17469   1.122   1.944   6.611 -0.8670 -1.8694  0.4977
  157SAPE   H2S17470   1.035   2.078   6.531  0.8387  0.1103  0.1021
  157SAPE    C317471   0.906   1.566   6.462 -0.8258 -0.7120  0.3772
  157SAPE    HX17472   0.966   1.588   6.371 -1.7575 -0.6607 -0.2386
  157SAPE    HY17473   0.819   1.508   6.426 -0.0172 -1.6429 -0.1424
  157SAPE   O3117474   0.982   1.512   6.574  0.0892 -0.2125 -0.4981
  157SAPE   C3117475   0.905   1.463   6.668 -0.0955 -0.1847 -0.0326
  157SAPE   O3217476   0.782   1.454   6.658 -0.1971 -0.3213  0.4089
  157SAPE   C3217477   0.992   1.400   6.778 -0.1857 -0.2744 -0.4372
  157SAPE   H2X17478   1.079   1.465   6.800  0.9378 -1.9698  0.4094
  157SAPE   H2Y17479   1.037   1.310   6.730  1.5799  1.2571 -1.8365
  157SAPE   C2317480   1.036   2.094   6.739 -0.2842  0.2718  0.7692
  157SAPE   H3R17481   0.949   2.162   6.754  0.2695  1.0100  0.7346
  157SAPE   H3S17482   1.122   2.164   6.733 -1.1292  1.2945  0.1207
  157SAPE   C2417483   1.045   2.025   6.880 -0.4930 -0.6767 -0.5207
  157SAPE   H4R17484   1.095   2.096   6.950 -0.3725 -1.8757  0.6577
  157SAPE   H4S17485   1.123   1.949   6.855  0.3379 -0.3661  0.9786
  157SAPE   C2517486   0.922   1.960   6.931 -0.2748  0.2152  0.0600
  157SAPE   H5R17487   0.879   1.878   6.871  0.1353  0.1529 -0.1537
  157SAPE   C2617488   0.840   1.995   7.032 -0.1885  0.3712 -0.3996
  157SAPE   H6R17489   0.753   1.929   7.046 -0.0416 -0.3962 -2.6963
  157SAPE   C2717490   0.860   2.105   7.132 -0.5857 -0.0187 -0.5417
  157SAPE   H7R17491   0.937   2.173   7.090 -0.7501  1.4601  1.4171
  157SAPE   H7S17492   0.904   2.062   7.225  0.0370  1.2040 -0.2534
  157SAPE   C2817493   0.729   2.179   7.166 -0.3116  0.6011 -0.2251
  157SAPE   H8R17494   0.699   2.268   7.109  1.5426 -0.0704 -2.3885
  157SAPE   C2917495   0.637   2.137   7.257  0.4372  0.1411  0.1888
  157SAPE   H9R17496   0.544   2.193   7.274  0.6780  0.0484  1.9383
  157SAPE  C21017497   0.650   2.013   7.340 -0.5760 -0.1864 -1.2721
  157SAPE  H10R17498   0.714   1.932   7.297  1.4181  0.3137  0.5886
  157SAPE  H10S17499   0.548   1.970   7.354 -0.5290  0.4384  1.5345
  157SAPE  C21117500   0.709   2.051   7.476  0.6743  0.0186 -0.3119
  157SAPE  H11R17501   0.818   2.065   7.482  0.3571  3.7146 -0.6942
  157SAPE  C21217502   0.641   2.059   7.595  0.3779  0.5165  0.3788
  157SAPE  H12R17503   0.691   2.094   7.686  1.2967  0.9200 -0.2669
  157SAPE  C21317504   0.490   2.031   7.612 -0.0514  0.1498  0.0580
  157SAPE  H13R17505   0.471   1.993   7.715 -1.0828 -1.8507 -0.8334
  157SAPE  H13S17506   0.452   1.958   7.538  2.4761 -0.6255 -0.5757
  157SAPE  C21417507   0.407   2.153   7.587 -0.3453  0.3579  0.2286
  157SAPE  H14R17508   0.419   2.187   7.483 -1.5811  0.6568  0.1717
  157SAPE  C21517509   0.314   2.217   7.659 -0.0089 -0.0581  0.0784
  157SAPE  H15R17510   0.266   2.302   7.607  3.4639  1.7625 -0.4252
  157SAPE  C21617511   0.258   2.181   7.793  0.4271  0.4881  0.7546
  157SAPE  H16R17512   0.299   2.083   7.826  2.8228  0.9491 -0.6599
  157SAPE  H16S17513   0.147   2.179   7.783  0.3667 -2.0149  1.2481
  157SAPE  C21717514   0.297   2.275   7.906 -0.2059 -0.1959 -0.0598
  157SAPE  H17R17515   0.242   2.241   7.997  0.5669  3.1882  1.8350
  157SAPE  H17S17516   0.251   2.374   7.885 -1.6968 -0.9588 -0.5356
  157SAPE  C21817517   0.445   2.279   7.937  0.6806 -0.0887  0.1314
  157SAPE  H18R17518   0.477   2.371   7.883  1.2701 -1.2444 -1.5669
  157SAPE  H18S17519   0.505   2.197   7.893 -1.0850 -0.5569 -1.5412
  157SAPE  C21917520   0.481   2.285   8.089  0.7901 -0.2359 -0.4608
  157SAPE  H19R17521   0.591   2.270   8.086  0.9037  0.3486  0.3832
  157SAPE  H19S17522   0.438   2.189   8.123  1.1781 -0.6797 -1.2015
  157SAPE  C22017523   0.434   2.420   8.155  0.2406  0.4306  0.1107
  157SAPE  H20R17524   0.323   2.419   8.158  0.1275  0.6102 -1.9737
  157SAPE  H20S17525   0.464   2.506   8.091 -0.5356  0.4756 -0.2094
  157SAPE  H20T17526   0.482   2.423   8.255  1.3517 -0.3715 -0.3751
  157SAPE   C3317527   0.913   1.365   6.902 -0.5643  0.2212  0.1844
  157SAPE   H3X17528   0.973   1.320   6.983 -1.4268  0.5004  0.9937
  157SAPE   H3Y17529   0.837   1.286   6.884 -0.4841  0.3720 -0.8822
  157SAPE   C3417530   0.845   1.495   6.961  0.4786  0.7855 -0.0511
  157SAPE   H4X17531   0.761   1.520   6.892  1.1312  2.1704 -0.3811
  157SAPE   H4Y17532   0.925   1.573   6.965 -0.1603  1.4785 -0.4059
  157SAPE   C3517533   0.787   1.478   7.100 -0.3105  0.0019 -0.3782
  157SAPE   H5X17534   0.870   1.458   7.170  0.0792  0.5656 -0.6789
  157SAPE   H5Y17535   0.714   1.394   7.098  0.3525 -0.6137  0.4705
  157SAPE   C3617536   0.702   1.606   7.140 -0.4418  0.0744  0.2394
  157SAPE   H6X17537   0.640   1.632   7.052  1.0619  1.0186 -0.5942
  157SAPE   H6Y17538   0.778   1.687   7.155  2.7972 -2.7499  0.3748
  157SAPE   C3717539   0.606   1.587   7.262 -0.4056 -0.5355  0.5147
  157SAPE   H7X17540   0.556   1.488   7.260 -0.8540 -0.3384  1.3992
  157SAPE   H7Y17541   0.521   1.659   7.255  0.4962  0.4430 -0.8642
  157SAPE   C3817542   0.670   1.608   7.396 -0.5003  0.2942  0.0506
  157SAPE   H8X17543   0.720   1.706   7.406  0.0676 -0.0566  0.7339
  157SAPE   H8Y17544   0.744   1.526   7.409 -0.8502 -0.4142 -1.9468
  157SAPE   C3917545   0.569   1.597   7.505 -0.6085  0.0493 -0.2949
  157SAPE   H9X17546   0.525   1.496   7.522 -2.2432  0.7650 -0.0729
  157SAPE   H9Y17547   0.482   1.660   7.477 -0.8616 -0.2862 -0.2693
  157SAPE  C31017548   0.609   1.651   7.643 -0.0370 -0.1373 -0.5137
  157SAPE  H10X17549   0.644   1.756   7.630 -0.3244  0.1009  0.5320
  157SAPE  H10Y17550   0.686   1.589   7.692  1.1921  0.7812 -1.2071
  157SAPE  C31117551   0.491   1.662   7.741  0.3424 -0.3881 -0.2061
  157SAPE  H11X17552   0.436   1.565   7.739 -1.1911  0.4186  1.1326
  157SAPE  H11Y17553   0.414   1.729   7.698 -0.0166  0.5850  1.8471
  157SAPE  C31217554   0.525   1.719   7.884 -0.0349 -0.0380  0.3597
  157SAPE  H12X17555   0.552   1.825   7.868  1.0504 -0.5445 -1.4493
  157SAPE  H12Y17556   0.599   1.660   7.942  2.3415  2.5580  0.1221
  157SAPE  C31317557   0.393   1.728   7.961 -0.2776 -0.4276 -0.1387
  157SAPE  H13X17558   0.354   1.624   7.966 -0.1335 -0.5604 -1.4971
  157SAPE  H13Y17559   0.311   1.778   7.904 -0.3042 -0.2147  0.0826
  157SAPE  C31417560   0.405   1.791   8.104 -0.7322  0.2938  0.0899
  157SAPE  H14X17561   0.465   1.885   8.102  0.5225 -0.3995  1.9754
  157SAPE  H14Y17562   0.458   1.721   8.172 -2.6283 -2.5905 -1.2043
  157SAPE  C31517563   0.274   1.835   8.185  0.0389 -0.1329  0.5870
  157SAPE  H15X17564   0.307   1.846   8.290  0.5575  0.5698  0.3589
  157SAPE  H15Y17565   0.210   1.749   8.156  0.8637 -0.9378  1.1154
  157SAPE  C31617566   0.201   1.955   8.113  0.0892 -0.5818 -0.7233
  157SAPE  H16X17567   0.203   1.935   8.004 -4.1942 -0.8271 -0.9316
  157SAPE  H16Y17568   0.254   2.047   8.147  0.5358 -1.3295  0.6737
  157SAPE  C31717569   0.061   1.976   8.164 -0.3790  0.0483 -0.7996
  157SAPE  H17X17570   0.064   1.978   8.275 -1.8585  2.9946 -0.7030
  157SAPE  H17Y17571  -0.004   1.888   8.145 -1.0254  0.1069  0.9606
  157SAPE  C31817572  -0.012   2.104   8.117 -0.4466 -0.1480 -0.1282
  157SAPE  H18X17573  -0.109   2.112   8.170 -0.8686 -1.2800 -0.6995
  157SAPE  H18Y17574  -0.031   2.105   8.008 -1.8250  0.6129  0.0992
  157SAPE  H18Z17575   0.056   2.188   8.140  1.6041 -1.7387 -0.0255
  158SAPE     N17576   1.367   0.182   5.922  0.5088  0.0167  0.4645
  158SAPE   HN117577   1.320   0.149   5.836 -1.9282  2.1400  0.8424
  158SAPE   HN217578   1.289   0.213   5.983 -0.4415 -1.9052  0.2837
  158SAPE   HN317579   1.428   0.264   5.905  0.8519  0.0335  1.6756
  158SAPE   C1217580   1.444   0.069   5.983 -0.1976 -0.2766 -0.3273
  158SAPE  H12A17581   1.530   0.041   5.918 -1.8859 -3.6676 -1.3388
  158SAPE  H12B17582   1.364  -0.008   5.987 -0.3802 -0.1253 -0.9617
  158SAPE   C1117583   1.504   0.116   6.119  0.4883 -0.1243  0.1689
  158SAPE  H11A17584   1.513   0.014   6.162  0.7904 -0.4149 -0.5824
  158SAPE  H11B17585   1.430   0.162   6.188  1.3175 -1.5759  2.1109
  158SAPE     P17586   1.651   0.331   6.094 -0.2118  0.1165 -0.2772
  158SAPE   O1317587   1.796   0.356   6.064  0.5647 -0.4131  0.6140
  158SAPE   O1417588   1.551   0.379   5.998  0.3527  0.0784  0.0952
  158SAPE   O1217589   1.636   0.177   6.116  0.4435  0.1928  0.1761
  158SAPE   O1117590   1.615   0.375   6.239  0.4100  0.1025  0.0872
  158SAPE    C117591   1.696   0.312   6.345 -0.5630 -0.0826 -0.2869
  158SAPE    HA17592   1.677   0.203   6.362  1.8076 -0.5372 -0.1487
  158SAPE    HB17593   1.805   0.317   6.324 -0.5101 -0.6538 -0.1705
  158SAPE    C217594   1.667   0.385   6.480  0.3780  0.1756  0.3391
  158SAPE    HS17595   1.735   0.352   6.562 -0.4826 -1.8692  0.2941
  158SAPE   O2117596   1.533   0.367   6.523 -0.0832  0.6186  0.0698
  158SAPE   C2117597   1.521   0.263   6.607  0.1250  0.5142 -0.1624
  158SAPE   O2217598   1.606   0.177   6.629  0.0582  0.5314 -0.2832
  158SAPE   C2217599   1.388   0.270   6.680  0.5754 -0.6520 -0.6124
  158SAPE   H2R17600   1.413   0.289   6.787 -1.8176 -0.1751 -0.0939
  158SAPE   H2S17601   1.329   0.353   6.638  0.6902 -0.1648  0.1819
  158SAPE    C317602   1.692   0.532   6.448 -0.5966 -0.1215 -0.4781
  158SAPE    HX17603   1.612   0.558   6.376 -0.2121  0.2221 -0.7827
  158SAPE    HY17604   1.789   0.526   6.394  1.4283  0.5525  2.7990
  158SAPE   O3117605   1.684   0.621   6.558 -0.1127  1.3773  0.1628
  158SAPE   C3117606   1.789   0.682   6.598 -0.0703 -0.1825  0.1732
  158SAPE   O3217607   1.903   0.651   6.574  0.4130 -0.0010  0.6396
  158SAPE   C3217608   1.747   0.787   6.701  0.0992 -0.0136  0.4655
  158SAPE   H2X17609   1.638   0.799   6.715  0.3523 -0.4604  3.3082
  158SAPE   H2Y17610   1.805   0.882   6.688  0.6708 -0.4801 -0.5240
  158SAPE   C2317611   1.305   0.139   6.660  0.3759  0.0708 -0.1204
  158SAPE   H3R17612   1.321   0.098   6.558  2.1639  2.1032 -0.7261
  158SAPE   H3S17613   1.200   0.172   6.671  0.9706  1.9728  0.2206
  158SAPE   C2417614   1.343   0.030   6.761 -0.3712  0.0054  0.5963
  158SAPE   H4R17615   1.450   0.003   6.745 -0.8966 -1.8174 -0.0715
  158SAPE   H4S17616   1.294  -0.065   6.733  1.0587 -0.6134  0.0934
  158SAPE   C2517617   1.299   0.055   6.903  0.4945 -0.3194 -0.4214
  158SAPE   H5R17618   1.195   0.044   6.934  0.2588 -0.3733 -1.1961
  158SAPE   C2617619   1.384   0.088   7.003 -0.4476 -0.5805 -0.1989
  158SAPE   H6R17620   1.343   0.093   7.105  0.3847  1.5651  0.0969
  158SAPE   C2717621   1.536   0.103   6.990 -0.6672 -0.7468 -0.6366
  158SAPE   H7R17622   1.566   0.186   6.923  0.0772  0.8052  1.5027
  158SAPE   H7S17623   1.576   0.012   6.939  2.4359  0.2865 -0.2482
  158SAPE   C2817624   1.610   0.131   7.119  0.2000  1.1779 -0.1027
  158SAPE   H8R17625   1.558   0.127   7.215  1.8380 -4.5392  0.9247
  158SAPE   C2917626   1.744   0.149   7.128 -0.4111  0.6132  0.8142
  158SAPE   H9R17627   1.785   0.164   7.229 -2.6362  1.1039  1.6934
  158SAPE  C21017628   1.838   0.159   7.008  0.0862 -0.6777 -0.5233
  158SAPE  H10R17629   1.809   0.097   6.920  2.0140 -1.6517 -0.5190
  158SAPE  H10S17630   1.927   0.104   7.045 -0.7371 -1.1091  0.8988
  158SAPE  C21117631   1.870   0.300   6.966  0.7254 -0.0099  0.0674
  158SAPE  H11R17632   1.802   0.335   6.887  3.2029  1.2306 -1.6272
  158SAPE  C21217633   1.961   0.387   7.017  0.0576 -0.0332 -0.4734
  158SAPE  H12R17634   1.966   0.490   6.977 -3.3537  0.5947  0.4703
  158SAPE  C21317635   2.048   0.358   7.139  0.3517 -0.5511  0.1128
  158SAPE  H13R17636   2.146   0.396   7.106  0.3899 -1.3312 -0.7156
  158SAPE  H13S17637   2.048   0.250   7.165  1.6574 -0.2513  1.5161
  158SAPE  C21417638   1.982   0.432   7.254 -0.9241 -0.1748 -0.0597
  158SAPE  H14R17639   1.942   0.531   7.227  0.5007  0.2880 -0.5444
  158SAPE  C21517640   1.950   0.385   7.376 -0.0839 -0.4531 -0.1562
  158SAPE  H15R17641   1.896   0.445   7.451  0.4979 -1.6437  1.2663
  158SAPE  C21617642   1.982   0.249   7.429  0.3827  0.3679 -0.5540
  158SAPE  H16R17643   2.046   0.190   7.359 -0.6465  1.6180 -2.6575
  158SAPE  H16S17644   1.895   0.182   7.445 -0.1069  0.4765 -2.5119
  158SAPE  C21717645   2.055   0.251   7.564 -0.0211  0.6148  0.4155
  158SAPE  H17R17646   2.148   0.312   7.570  0.0278  0.4078  4.0744
  158SAPE  H17S17647   2.094   0.147   7.571 -0.5335  0.3348 -0.6327
  158SAPE  C21817648   1.965   0.282   7.681 -0.4727  0.0169  0.2245
  158SAPE  H18R17649   1.898   0.368   7.658  0.8099  1.6584  2.2492
  158SAPE  H18S17650   2.033   0.307   7.766 -1.4671 -0.8451  1.3182
  158SAPE  C21917651   1.883   0.160   7.718  0.1934 -0.6589 -0.2682
  158SAPE  H19R17652   1.947   0.076   7.755  1.1590 -0.2364 -0.9228
  158SAPE  H19S17653   1.833   0.112   7.631 -1.1409  0.6792 -0.2726
  158SAPE  C22017654   1.776   0.210   7.822 -0.2866  0.0214 -0.0565
  158SAPE  H20R17655   1.826   0.239   7.917 -1.2162  0.6906  0.2462
  158SAPE  H20S17656   1.707   0.129   7.851 -2.3224  1.6656 -0.0850
  158SAPE  H20T17657   1.719   0.298   7.785 -1.0130 -0.9062 -1.1949
  158SAPE   C3317658   1.805   0.765   6.851  0.5577 -0.4732 -0.0907
  158SAPE   H3X17659   1.778   0.855   6.911  0.2293  0.7044 -1.9181
  158SAPE   H3Y17660   1.916   0.762   6.855  0.6106  1.4251  2.3379
  158SAPE   C3417661   1.739   0.635   6.914 -0.6006 -0.3844  0.4553
  158SAPE   H4X17662   1.766   0.633   7.022  3.0587 -1.7405 -0.3421
  158SAPE   H4Y17663   1.772   0.547   6.856  0.8108 -0.0274  0.6660
  158SAPE   C3517664   1.584   0.626   6.920 -0.9297 -0.4246  0.3033
  158SAPE   H5X17665   1.550   0.625   6.815  2.8088  2.1944 -1.1789
  158SAPE   H5Y17666   1.547   0.719   6.968  1.2032  0.0514  1.1325
  158SAPE   C3617667   1.523   0.504   6.980 -0.0073 -0.2568  0.5070
  158SAPE   H6X17668   1.562   0.496   7.083 -1.1483 -1.8090  0.8551
  158SAPE   H6Y17669   1.568   0.414   6.932 -0.6069  0.9787 -2.6760
  158SAPE   C3717670   1.370   0.497   6.974  0.5747 -0.3490  0.5395
  158SAPE   H7X17671   1.341   0.522   6.870 -0.3782 -1.3528  0.5444
  158SAPE   H7Y17672   1.329   0.397   7.002 -0.9127  0.7321  2.4577
  158SAPE   C3817673   1.295   0.599   7.064  0.7541  0.0664  0.1411
  158SAPE   H8X17674   1.186   0.605   7.044  1.0195  1.2947 -1.0624
  158SAPE   H8Y17675   1.327   0.703   7.043  0.3884  0.6513  2.2212
  158SAPE   C3917676   1.311   0.585   7.217 -0.5336 -0.0424 -0.0642
  158SAPE   H9X17677   1.422   0.580   7.215 -0.5910 -2.7413 -0.4079
  158SAPE   H9Y17678   1.278   0.482   7.240 -1.3380 -0.0223 -1.0340
  158SAPE  C31017679   1.258   0.695   7.310 -0.1242 -0.3410 -0.4732
  158SAPE  H10X17680   1.148   0.689   7.304 -0.3390  1.6552  0.7513
  158SAPE  H10Y17681   1.289   0.795   7.274  2.8566 -0.7125  0.7708
  158SAPE  C31117682   1.286   0.669   7.460  0.8676  0.2210 -0.2812
  158SAPE  H11X17683   1.279   0.766   7.515 -2.3213 -0.0980  0.0369
  158SAPE  H11Y17684   1.392   0.638   7.470  1.7344  2.5978 -1.2924
  158SAPE  C31217685   1.178   0.588   7.514 -0.0942  0.1261 -0.4712
  158SAPE  H12X17686   1.172   0.488   7.466  1.8131 -1.3242  2.0638
  158SAPE  H12Y17687   1.082   0.644   7.510  0.7739  1.6043 -1.2835
  158SAPE  C31317688   1.200   0.577   7.668  0.3974  0.5785  0.1667
  158SAPE  H13X17689   1.123   0.510   7.709  2.9582 -2.3883  0.4743
  158SAPE  H13Y17690   1.188   0.677   7.716 -1.6302  0.7428 -0.5963
  158SAPE  C31417691   1.329   0.517   7.711  0.3249 -0.5432 -0.1283
  158SAPE  H14X17692   1.415   0.585   7.697  0.5222 -1.1379 -2.2181
  158SAPE  H14Y17693   1.353   0.423   7.656  0.8840 -0.4991  0.0296
  158SAPE  C31517694   1.332   0.465   7.851  0.1853  0.1015 -0.0045
  158SAPE  H15X17695   1.252   0.388   7.862  2.0162 -2.0124 -0.7413
  158SAPE  H15Y17696   1.307   0.549   7.919 -2.6841  0.6400 -1.5504
  158SAPE  C31617697   1.462   0.390   7.899 -0.3893  0.5137  0.9612
  158SAPE  H16X17698   1.545   0.461   7.877 -2.4003  2.3586 -1.3210
  158SAPE  H16Y17699   1.484   0.303   7.834  1.2294 -0.1245  2.3082
  158SAPE  C31717700   1.463   0.362   8.050 -0.2301 -0.1253 -0.3601
  158SAPE  H17X17701   1.356   0.363   8.081  0.5110  2.9263  2.8604
  158SAPE  H17Y17702   1.516   0.444   8.105 -0.1551 -0.7916  0.5871
  158SAPE  C31817703   1.530   0.235   8.081  0.4036 -0.7080 -0.3411
  158SAPE  H18X17704   1.490   0.145   8.029  1.0595 -0.8622 -0.5821
  158SAPE  H18Y17705   1.528   0.217   8.191  1.0768 -0.5381 -0.2965
  158SAPE  H18Z17706   1.634   0.264   8.058  0.2493  2.1385  1.9879
  159SAPE     N17707   0.199   2.618   6.243 -0.1381  0.2852  0.0865
  159SAPE   HN117708   0.239   2.541   6.185  1.9063 -0.5846  2.4284
  159SAPE   HN217709   0.231   2.710   6.208 -0.0018 -0.4946 -1.9534
  159SAPE   HN317710   0.238   2.610   6.339 -0.2414  3.1291  0.4422
  159SAPE   C1217711   0.055   2.582   6.253 -0.0664 -0.0623 -0.2227
  159SAPE  H12A17712   0.050   2.480   6.297  0.5247 -0.0178 -0.0431
  159SAPE  H12B17713   0.012   2.594   6.151 -1.0757 -0.6997  0.1179
  159SAPE   C1117714  -0.025   2.679   6.334 -0.0338 -0.3826  0.6824
  159SAPE  H11A17715  -0.002   2.673   6.443  1.9946 -0.2733  0.3071
  159SAPE  H11B17716  -0.133   2.656   6.336 -0.1522  0.1657  0.9383
  159SAPE     P17717  -0.107   2.903   6.215 -0.2489  0.2570  0.3691
  159SAPE   O1317718  -0.049   3.027   6.161 -0.5289  0.0718  0.4141
  159SAPE   O1417719  -0.188   2.823   6.119 -0.0754 -0.3196  0.3556
  159SAPE   O1217720   0.004   2.813   6.286 -0.0885 -0.7114 -0.2077
  159SAPE   O1117721  -0.201   2.945   6.335  0.3683 -0.1668  0.6501
  159SAPE    C117722  -0.149   3.036   6.438  0.5991  0.8403  0.3472
  159SAPE    HA17723  -0.039   3.030   6.456  0.6293 -0.8631 -0.2418
  159SAPE    HB17724  -0.153   3.139   6.397 -0.9344  0.6008 -0.1711
  159SAPE    C217725  -0.230   3.039   6.571  0.1590  0.7930  0.9674
  159SAPE    HS17726  -0.225   3.142   6.611  0.2156  1.7224 -1.3243
  159SAPE   O2117727  -0.189   2.938   6.668  0.1510  0.2236  0.3525
  159SAPE   C2117728  -0.066   2.949   6.717  0.2636  0.0550 -0.5474
  159SAPE   O2217729   0.009   3.045   6.691 -0.4078 -0.7026 -1.0407
  159SAPE   C2217730  -0.036   2.837   6.814 -0.4194 -0.1367  0.0231
  159SAPE   H2R17731  -0.132   2.810   6.864 -0.7990  1.5207  0.2264
  159SAPE   H2S17732  -0.011   2.747   6.753 -1.7639 -0.5677  0.0791
  159SAPE    C317733  -0.376   2.996   6.548 -0.8179 -0.4543  0.3638
  159SAPE    HX17734  -0.392   2.887   6.533 -0.4263 -0.2634 -1.7252
  159SAPE    HY17735  -0.408   3.035   6.450 -1.5035 -1.1738  0.2927
  159SAPE   O3117736  -0.457   3.030   6.663 -0.2603  0.0873 -0.1520
  159SAPE   C3117737  -0.585   3.058   6.629  0.8754 -0.2457 -0.5919
  159SAPE   O3217738  -0.634   3.026   6.524  0.6121 -0.3338  0.1654
  159SAPE   C3217739  -0.648   3.143   6.740  0.0149 -1.2322  0.2981
  159SAPE   H2X17740  -0.615   3.249   6.738  0.3987 -1.2828 -3.0901
  159SAPE   H2Y17741  -0.603   3.104   6.833 -0.2739  0.9151  1.3945
  159SAPE   C2317742   0.067   2.868   6.918 -0.5012 -0.2337  0.1299
  159SAPE   H3R17743   0.042   2.970   6.953 -1.2064 -0.9116  1.7069
  159SAPE   H3S17744   0.163   2.869   6.862 -0.5201  0.7049  0.0962
  159SAPE   C2417745   0.076   2.768   7.034  0.4209 -0.1818 -0.4774
  159SAPE   H4R17746   0.078   2.663   6.998 -1.5443 -0.5865  0.4527
  159SAPE   H4S17747  -0.024   2.777   7.081  0.4783  1.3749 -0.5848
  159SAPE   C2517748   0.192   2.808   7.125  0.1013  0.1680 -0.4669
  159SAPE   H5R17749   0.289   2.814   7.074 -0.6572  1.8255 -1.8159
  159SAPE   C2617750   0.192   2.848   7.254 -0.4480 -0.0390  0.0796
  159SAPE   H6R17751   0.286   2.880   7.302 -1.3478  1.2880  0.9950
  159SAPE   C2717752   0.074   2.851   7.343 -0.4221  0.1590  0.2863
  159SAPE   H7R17753   0.116   2.796   7.429  2.5939  0.4713 -0.8423
  159SAPE   H7S17754  -0.013   2.794   7.304 -1.1559  0.5156  1.3778
  159SAPE   C2817755   0.040   2.989   7.377  0.2443  0.0275  0.3802
  159SAPE   H8R17756   0.075   3.063   7.304  0.1445  0.3580  0.6615
  159SAPE   C2917757  -0.053   3.027   7.468 -0.5981 -0.8930 -0.7240
  159SAPE   H9R17758  -0.063   3.132   7.500 -0.9972 -0.8278 -1.0616
  159SAPE  C21017759  -0.131   2.933   7.557  0.9834 -0.3622 -0.3528
  159SAPE  H10R17760  -0.117   2.829   7.523 -0.0442 -0.0495 -1.8395
  159SAPE  H10S17761  -0.235   2.971   7.541  1.3506  0.4659 -0.8620
  159SAPE  C21117762  -0.085   2.952   7.696  0.1536  0.2785  0.6224
  159SAPE  H11R17763   0.021   2.982   7.703  0.1366  0.6731 -0.5888
  159SAPE  C21217764  -0.165   2.962   7.807  0.6681  0.0844  0.8981
  159SAPE  H12R17765  -0.122   2.998   7.901  0.2133  0.4991  0.9553
  159SAPE  C21317766  -0.314   2.954   7.811  0.3897 -0.1863  0.9221
  159SAPE  H13R17767  -0.347   2.922   7.710  0.5266 -0.1641  0.8689
  159SAPE  H13S17768  -0.359   3.056   7.812  0.5307 -0.0467 -1.2036
  159SAPE  C21417769  -0.362   2.867   7.928 -0.1206 -0.3299  0.5237
  159SAPE  H14R17770  -0.397   2.766   7.901  0.8909 -1.3274  2.7194
  159SAPE  C21517771  -0.384   2.907   8.052 -0.0148  0.0909 -0.9391
  159SAPE  H15R17772  -0.414   2.848   8.140  2.6492  0.4350  0.2796
  159SAPE  C21617773  -0.365   3.046   8.112  0.1103 -1.0398  0.0889
  159SAPE  H16R17774  -0.459   3.076   8.162  0.6779  1.4993 -0.2457
  159SAPE  H16S17775  -0.356   3.124   8.033  0.1562 -0.2471  0.8737
  159SAPE  C21717776  -0.256   3.085   8.215  0.1787 -0.2662 -0.3379
  159SAPE  H17R17777  -0.160   3.079   8.159 -0.0469  1.5480 -0.9823
  159SAPE  H17S17778  -0.244   3.005   8.290  0.6323 -0.6281 -0.7825
  159SAPE  C21817779  -0.293   3.214   8.284 -0.0922  0.2192  0.0539
  159SAPE  H18R17780  -0.218   3.216   8.365 -1.2104 -2.2062  1.2764
  159SAPE  H18S17781  -0.392   3.201   8.333 -0.1707 -1.5962 -0.4864
  159SAPE  C21917782  -0.289   3.336   8.190  0.0963 -0.7238 -0.5517
  159SAPE  H19R17783  -0.309   3.423   8.256  4.3767 -0.7044  1.0244
  159SAPE  H19S17784  -0.372   3.347   8.117 -1.1344  0.8644  1.0087
  159SAPE  C22017785  -0.150   3.361   8.125  0.2651  0.2931  0.8552
  159SAPE  H20R17786  -0.068   3.358   8.201  1.3874 -0.9875 -0.3418
  159SAPE  H20S17787  -0.157   3.454   8.065  2.1864 -0.7313 -1.1082
  159SAPE  H20T17788  -0.136   3.282   8.049  0.3506  1.0001  0.1231
  159SAPE   C3317789  -0.799   3.131   6.751  0.3142 -0.0378  0.5772
  159SAPE   H3X17790  -0.841   3.036   6.711 -1.3530  1.3497 -1.1526
  159SAPE   H3Y17791  -0.848   3.210   6.690  0.6628  0.2776  0.7058
  159SAPE   C3417792  -0.849   3.144   6.897  0.1006 -0.4552  0.2324
  159SAPE   H4X17793  -0.861   3.252   6.917 -1.8709 -0.3669 -1.1316
  159SAPE   H4Y17794  -0.762   3.117   6.961 -0.0739 -0.0392  0.6540
  159SAPE   C3517795  -0.961   3.049   6.933  0.5875  0.2903  0.9301
  159SAPE   H5X17796  -0.955   2.953   6.879 -0.3899  0.9852 -0.4545
  159SAPE   H5Y17797  -1.058   3.097   6.909 -0.5041 -1.2947  2.0131
  159SAPE   C3617798  -0.962   3.010   7.082  0.6772  0.4450  0.0040
  159SAPE   H6X17799  -0.860   2.979   7.115  0.0301  0.2929  2.0058
  159SAPE   H6Y17800  -1.030   2.925   7.104 -3.1368  3.3252  0.1913
  159SAPE   C3717801  -1.004   3.130   7.166 -0.6268 -0.9045  1.1055
  159SAPE   H7X17802  -1.098   3.168   7.119 -0.3114 -2.3049 -0.7742
  159SAPE   H7Y17803  -0.919   3.201   7.178 -0.8198 -0.6929  1.2229
  159SAPE   C3817804  -1.024   3.089   7.306 -0.3885 -0.7452 -0.4286
  159SAPE   H8X17805  -0.957   3.009   7.344  0.5635  0.3772  0.3457
  159SAPE   H8Y17806  -1.120   3.034   7.304 -0.9529 -0.0311  2.5270
  159SAPE   C3917807  -1.018   3.211   7.408 -0.1295  0.7057 -0.6905
  159SAPE   H9X17808  -1.086   3.290   7.371 -1.0870  0.6285  0.8261
  159SAPE   H9Y17809  -0.915   3.253   7.412  0.9261 -1.7921  1.8165
  159SAPE  C31017810  -1.068   3.171   7.545 -0.2317 -0.2652  0.1473
  159SAPE  H10X17811  -0.986   3.104   7.577 -0.4710 -1.3641 -1.4234
  159SAPE  H10Y17812  -1.163   3.113   7.541 -1.4499  1.6261 -0.2887
  159SAPE  C31117813  -1.090   3.294   7.639  0.0696  0.7425  0.2876
  159SAPE  H11X17814  -1.174   3.352   7.594 -1.5243 -1.6108  0.0694
  159SAPE  H11Y17815  -0.993   3.348   7.634  0.9983 -0.9662 -2.3807
  159SAPE  C31217816  -1.134   3.256   7.776 -0.4337  0.1800 -0.7171
  159SAPE  H12X17817  -1.056   3.210   7.840 -0.8251  0.4826 -0.0133
  159SAPE  H12Y17818  -1.221   3.188   7.790 -1.2898  1.2443 -0.6951
  159SAPE  C31317819  -1.156   3.393   7.853 -0.2701  0.1534 -0.4118
  159SAPE  H13X17820  -1.250   3.443   7.822  1.0745  0.6884 -4.2143
  159SAPE  H13Y17821  -1.077   3.466   7.827  0.3428 -0.1576  0.5340
  159SAPE  C31417822  -1.166   3.369   8.008 -0.3417  0.2508 -0.1834
  159SAPE  H14X17823  -1.183   3.462   8.066 -0.9715 -0.9891  1.7379
  159SAPE  H14Y17824  -1.067   3.339   8.049 -0.0944  1.5696  0.2242
  159SAPE  C31517825  -1.280   3.279   8.055  0.4878 -0.2783 -0.9437
  159SAPE  H15X17826  -1.263   3.169   8.057 -1.5144 -0.6299  0.3490
  159SAPE  H15Y17827  -1.362   3.300   7.982  2.2219  1.8721 -2.4122
  159SAPE  C31617828  -1.331   3.327   8.189 -0.0673  0.5251  0.4521
  159SAPE  H16X17829  -1.424   3.278   8.224  0.5039 -0.2992  0.8571
  159SAPE  H16Y17830  -1.349   3.436   8.200 -1.5436  0.0869  3.1892
  159SAPE  C31717831  -1.238   3.291   8.303 -0.3202  0.4106  0.2288
  159SAPE  H17X17832  -1.180   3.201   8.276  0.6665  0.8692  0.7590
  159SAPE  H17Y17833  -1.304   3.264   8.388 -0.5541  1.1238  0.2832
  159SAPE  C31817834  -1.150   3.408   8.347  0.2066  0.2813  0.4686
  159SAPE  H18X17835  -1.061   3.417   8.280  0.3530 -0.6636  0.5222
  159SAPE  H18Y17836  -1.114   3.377   8.447 -0.9353 -0.1289  0.7733
  159SAPE  H18Z17837  -1.202   3.506   8.347 -2.3653 -0.8869 -2.9187
  160SAPE     N17838   1.388   0.534   6.214 -0.0732 -0.8843 -0.1068
  160SAPE   HN117839   1.329   0.506   6.134  0.0730  1.1430 -0.9939
  160SAPE   HN217840   1.441   0.617   6.181  2.9288 -2.0698  1.3810
  160SAPE   HN317841   1.457   0.463   6.243  0.0869 -0.8383 -0.3775
  160SAPE   C1217842   1.307   0.567   6.341 -0.1031  1.0081 -0.1043
  160SAPE  H12A17843   1.381   0.600   6.418  1.1532 -0.1426 -0.7756
  160SAPE  H12B17844   1.276   0.470   6.387  1.8653  1.0864  1.5194
  160SAPE   C1117845   1.186   0.660   6.314 -0.3693  0.3586  0.1800
  160SAPE  H11A17846   1.113   0.667   6.398  0.2140 -2.4873  1.0206
  160SAPE  H11B17847   1.129   0.608   6.234  1.6737 -1.2600 -0.2946
  160SAPE     P17848   1.275   0.890   6.361 -0.0331 -0.4843  0.1569
  160SAPE   O1317849   1.390   0.947   6.291  0.3658 -0.0491  0.2181
  160SAPE   O1417850   1.167   0.976   6.406 -0.2088 -0.5555  0.1640
  160SAPE   O1217851   1.214   0.787   6.263  0.2052  0.5717 -0.0195
  160SAPE   O1117852   1.324   0.810   6.484 -0.4132 -0.2415 -0.2041
  160SAPE    C117853   1.422   0.860   6.567  0.1841 -0.0850 -0.1917
  160SAPE    HA17854   1.472   0.771   6.611  0.1945  1.0928  2.3483
  160SAPE    HB17855   1.497   0.926   6.519 -1.5511 -0.1357 -3.2720
  160SAPE    C217856   1.355   0.930   6.689  0.0864 -0.2596  0.1403
  160SAPE    HS17857   1.297   1.018   6.657 -0.1973 -1.1445 -1.9397
  160SAPE   O2117858   1.457   0.959   6.789 -0.0989  0.2081  0.0447
  160SAPE   C2117859   1.431   1.064   6.867  0.6018  0.2651  0.1531
  160SAPE   O2217860   1.327   1.129   6.864  0.1411  0.5289  1.2117
  160SAPE   C2217861   1.535   1.073   6.983  0.3325 -0.6390  0.1174
  160SAPE   H2R17862   1.619   1.005   6.961 -1.2821 -2.8692  0.5157
  160SAPE   H2S17863   1.573   1.177   6.988 -1.3614  0.0158  0.0838
  160SAPE    C317864   1.240   0.835   6.750  0.8146 -0.4554  0.3534
  160SAPE    HX17865   1.291   0.737   6.765  1.0621 -0.1182  1.8519
  160SAPE    HY17866   1.176   0.812   6.662 -0.1042  1.1949  0.5407
  160SAPE   O3117867   1.182   0.867   6.878  0.2734 -0.4768  0.5236
  160SAPE   C3117868   1.094   0.973   6.883 -0.3687  0.3818 -0.0966
  160SAPE   O3217869   1.044   1.027   6.788  0.0361 -0.4367 -0.1386
  160SAPE   C3217870   1.079   1.010   7.029  0.2283 -0.4322  0.4726
  160SAPE   H2X17871   1.133   1.107   7.043  0.6248 -0.5818 -0.0202
  160SAPE   H2Y17872   1.132   0.935   7.092  1.4987 -0.2904 -0.3825
  160SAPE   C2317873   1.473   1.027   7.119  0.7925  0.6921 -0.5553
  160SAPE   H3R17874   1.408   0.938   7.108  1.0741  0.1762  1.5563
  160SAPE   H3S17875   1.412   1.108   7.164 -1.2383  0.7999 -3.2465
  160SAPE   C2417876   1.584   0.970   7.216 -0.7814 -0.4479  0.3919
  160SAPE   H4R17877   1.651   1.058   7.223 -2.0085  0.6929 -1.2481
  160SAPE   H4S17878   1.642   0.888   7.168 -0.9357 -0.4185  0.1507
  160SAPE   C2517879   1.527   0.932   7.350  0.1273 -0.9809 -0.0416
  160SAPE   H5R17880   1.451   1.005   7.381  1.3795  0.9565 -1.3348
  160SAPE   C2617881   1.567   0.827   7.424 -0.2212 -0.3632  0.2004
  160SAPE   H6R17882   1.523   0.820   7.525 -0.0177 -1.7032  0.2047
  160SAPE   C2717883   1.673   0.733   7.395 -0.1544  0.0179 -0.7668
  160SAPE   H7R17884   1.768   0.790   7.387 -0.5569  0.5617 -2.0815
  160SAPE   H7S17885   1.652   0.682   7.298 -1.9434 -0.3545 -0.2171
  160SAPE   C2817886   1.675   0.616   7.495 -0.4272 -0.7495 -0.7659
  160SAPE   H8R17887   1.661   0.522   7.440  0.3902 -1.3978  0.1129
  160SAPE   C2917888   1.696   0.631   7.628 -0.4124  1.1817 -0.8849
  160SAPE   H9R17889   1.693   0.542   7.692 -1.0618  2.0218  0.2940
  160SAPE  C21017890   1.728   0.752   7.709 -0.2012  0.1401 -0.3015
  160SAPE  H10R17891   1.633   0.798   7.743 -0.2069  1.6235 -2.1310
  160SAPE  H10S17892   1.785   0.819   7.640  0.8288 -0.3196  0.0828
  160SAPE  C21117893   1.815   0.720   7.827  0.2543  0.2032 -0.2360
  160SAPE  H11R17894   1.919   0.704   7.796  0.3987  0.6528  0.0247
  160SAPE  C21217895   1.775   0.726   7.956  0.0792 -0.0076 -0.0189
  160SAPE  H12R17896   1.853   0.689   8.024  1.4963  1.9416 -0.4784
  160SAPE  C21317897   1.638   0.758   8.012 -0.7940  0.0469  0.0813
  160SAPE  H13R17898   1.564   0.687   7.969  1.7282 -2.0845 -1.0532
  160SAPE  H13S17899   1.617   0.848   7.951  1.1856 -1.0194 -2.3476
  160SAPE  C21417900   1.618   0.803   8.155  0.9224  0.3863  0.3508
  160SAPE  H14R17901   1.709   0.836   8.207  0.6771  1.7620 -0.0435
  160SAPE  C21517902   1.499   0.793   8.215  0.0254 -0.0234 -0.2634
  160SAPE  H15R17903   1.491   0.827   8.320 -0.0335 -1.8586  0.3525
  160SAPE  C21617904   1.370   0.734   8.156 -0.6714  0.0500  0.3411
  160SAPE  H16R17905   1.355   0.628   8.183 -2.8795  0.5050  1.1110
  160SAPE  H16S17906   1.370   0.736   8.044 -0.7799  1.3884  0.3480
  160SAPE  C21717907   1.246   0.818   8.194  0.9118 -0.0136  0.5820
  160SAPE  H17R17908   1.157   0.764   8.155  1.1154 -0.1708  0.3336
  160SAPE  H17S17909   1.243   0.923   8.159  0.2595  0.1948  1.2253
  160SAPE  C21817910   1.224   0.821   8.343  0.9277  0.1833  0.6963
  160SAPE  H18R17911   1.288   0.902   8.384 -1.1345  1.5223  1.4557
  160SAPE  H18S17912   1.251   0.719   8.378  1.7646 -0.0716 -0.6462
  160SAPE  C21917913   1.078   0.844   8.377  0.4373  0.7441 -0.3393
  160SAPE  H19R17914   1.075   0.837   8.488  0.6666  0.7403 -0.3322
  160SAPE  H19S17915   1.017   0.761   8.337  1.5027 -0.5278  0.5909
  160SAPE  C22017916   1.016   0.977   8.323 -0.5073  0.1066  0.6533
  160SAPE  H20R17917   0.905   0.981   8.335 -0.5370 -1.3943  1.0551
  160SAPE  H20S17918   1.033   0.991   8.215 -0.4086  0.0789  0.6653
  160SAPE  H20T17919   1.065   1.057   8.383 -0.8670 -0.1734  1.3306
  160SAPE   C3317920   0.937   1.007   7.090 -0.2017  0.1677  0.5264
  160SAPE   H3X17921   0.881   0.921   7.047 -0.1757  0.3887  0.0480
  160SAPE   H3Y17922   0.888   1.096   7.044  0.3652  0.2878  0.1550
  160SAPE   C3417923   0.922   1.004   7.242  0.6790  0.6787  0.4726
  160SAPE   H4X17924   0.930   0.899   7.276  0.9820  1.7667  4.1728
  160SAPE   H4Y17925   0.823   1.048   7.268 -0.0877  0.0679 -1.2214
  160SAPE   C3517926   1.032   1.083   7.315  0.2475  0.0834 -0.4060
  160SAPE   H5X17927   1.024   1.184   7.269  1.3057 -0.2487 -1.3694
  160SAPE   H5Y17928   1.125   1.024   7.297 -1.2371 -2.6953  0.3673
  160SAPE   C3617929   1.038   1.094   7.469  0.2386  0.6708 -0.5347
  160SAPE   H6X17930   0.986   1.186   7.503 -1.0221  0.0987 -0.8455
  160SAPE   H6Y17931   1.142   1.126   7.489  0.6431  0.2217 -1.8129
  160SAPE   C3717932   1.006   0.971   7.547 -0.6209  0.3365 -0.3597
  160SAPE   H7X17933   1.080   0.900   7.505  1.0583  1.3862  0.7005
  160SAPE   H7Y17934   0.901   0.937   7.532 -0.2083 -1.0300 -0.2675
  160SAPE   C3817935   1.028   0.990   7.700 -1.0596 -0.4668  0.6052
  160SAPE   H8X17936   1.130   1.032   7.714  0.1392 -2.6563 -1.0464
  160SAPE   H8Y17937   1.027   0.895   7.757  1.0193  0.3338  2.1100
  160SAPE   C3917938   0.929   1.071   7.779  0.7568 -0.3731 -0.2666
  160SAPE   H9X17939   0.829   1.029   7.752  2.1121 -2.2324 -2.8630
  160SAPE   H9Y17940   0.932   1.180   7.758 -1.5579 -0.3640 -0.8525
  160SAPE  C31017941   0.958   1.050   7.933 -0.2579 -0.5800 -1.1708
  160SAPE  H10X17942   1.048   1.104   7.967 -0.7262  0.1637 -1.0833
  160SAPE  H10Y17943   0.976   0.943   7.955  2.4568  0.2926  1.3752
  160SAPE  C31117944   0.840   1.103   8.010  0.1910  0.3236 -0.4942
  160SAPE  H11X17945   0.847   1.058   8.111 -1.0954  2.1499  0.4829
  160SAPE  H11Y17946   0.746   1.078   7.957  0.5550  3.3750 -2.8477
  160SAPE  C31217947   0.852   1.248   8.044 -0.7487 -1.1406  0.1510
  160SAPE  H12X17948   0.879   1.297   7.948  2.6959 -0.5768  1.2639
  160SAPE  H12Y17949   0.955   1.268   8.080 -1.2595  2.2454  0.0501
  160SAPE  C31317950   0.747   1.311   8.138  0.4350  0.4209 -0.4314
  160SAPE  H13X17951   0.771   1.414   8.172 -2.1752  1.4459 -1.4606
  160SAPE  H13Y17952   0.758   1.246   8.228 -1.2410  1.5626  0.6521
  160SAPE  C31417953   0.608   1.314   8.078 -0.3718  0.4811 -0.1794
  160SAPE  H14X17954   0.571   1.210   8.069 -1.1834  0.4618  2.4377
  160SAPE  H14Y17955   0.619   1.351   7.974  1.6911 -3.5971 -1.6329
  160SAPE  C31517956   0.511   1.408   8.151  0.1393 -0.3382  0.1474
  160SAPE  H15X17957   0.421   1.392   8.087  1.2003 -0.7245 -1.2879
  160SAPE  H15Y17958   0.539   1.515   8.138 -1.3921 -0.0158 -0.8267
  160SAPE  C31617959   0.475   1.376   8.303  0.5150  0.0038  0.3625
  160SAPE  H16X17960   0.565   1.367   8.368  1.2411  0.9989 -0.4659
  160SAPE  H16Y17961   0.423   1.278   8.301  0.2952  0.1148 -1.8959
  160SAPE  C31717962   0.376   1.479   8.361 -0.0080 -0.5979  0.5046
  160SAPE  H17X17963   0.293   1.494   8.289 -1.2455  0.6617  2.1158
  160SAPE  H17Y17964   0.417   1.582   8.366  1.9221 -1.3502  1.5719
  160SAPE  C31817965   0.324   1.454   8.500  0.0570  0.2704 -0.3778
  160SAPE  H18X17966   0.276   1.356   8.519 -0.8048  0.3001 -2.1687
  160SAPE  H18Y17967   0.236   1.521   8.509  0.3455  0.5827  0.1693
  160SAPE  H18Z17968   0.396   1.477   8.581  1.0112 -4.5839  0.4688
  161SOPE     N17969   4.838   6.323  10.748  0.4065 -0.0561  0.1820
  161SOPE   HN117970   4.926   6.378  10.745  0.2361  0.2348  0.4797
  161SOPE   HN217971   4.756   6.382  10.772 -1.3310 -1.8425 -1.0286
  161SOPE   HN317972   4.841   6.246  10.819  0.4531 -0.3762 -0.1631
  161SOPE   C1217973   4.814   6.253  10.614  0.4748  0.7816 -0.6580
  161SOPE  H12A17974   4.704   6.253  10.600  0.4190  2.8168 -0.4616
  161SOPE  H12B17975   4.856   6.150  10.621  0.7688  0.8214 -1.7027
  161SOPE   C1117976   4.897   6.336  10.519 -0.6660  0.3090  0.0595
  161SOPE  H11A17977   4.855   6.438  10.522 -0.6711  0.2926  0.8833
  161SOPE  H11B17978   4.879   6.309  10.413  0.3964 -0.4703  0.0606
  161SOPE     P17979   5.157   6.278  10.486  0.0984  0.3187 -0.2090
  161SOPE   O1317980   5.157   6.138  10.539  0.4870 -0.0522  0.9341
  161SOPE   O1417981   5.274   6.358  10.506 -0.3385  0.1318  0.2701
  161SOPE   O1217982   5.034   6.348  10.553  0.4029 -0.6187 -0.6929
  161SOPE   O1117983   5.116   6.285  10.334 -0.1656  0.2691  0.8033
  161SOPE    C117984   5.116   6.399  10.251  0.6713 -0.1247 -0.5007
  161SOPE    HA17985   5.133   6.493  10.306 -0.1236  0.1550 -0.7188
  161SOPE    HB17986   5.017   6.410  10.201  0.3081  0.3392  0.3052
  161SOPE    C217987   5.225   6.395  10.143  0.2034  0.5766 -0.1015
  161SOPE    HS17988   5.184   6.439  10.049 -1.0924 -1.2567 -0.4425
  161SOPE   O2117989   5.262   6.261  10.108 -0.9942 -0.5127 -0.4571
  161SOPE   C2117990   5.166   6.193  10.050  0.1981  0.2713  0.3729
  161SOPE   O2217991   5.064   6.235  10.007  0.9523 -0.3962  0.7094
  161SOPE   C2217992   5.205   6.048  10.048 -0.0615 -0.1561 -1.1852
  161SOPE   H2R17993   5.176   5.998  10.142 -0.5928  1.0029 -0.7140
  161SOPE   H2S17994   5.316   6.053  10.041 -0.1592  2.4812 -2.3133
  161SOPE    C317995   5.346   6.484  10.183  0.0120  0.0722 -0.5079
  161SOPE    HX17996   5.388   6.440  10.276 -2.2271  1.4829  1.2807
  161SOPE    HY17997   5.309   6.587  10.205  2.4401  1.2388 -1.4726
  161SOPE   O3117998   5.441   6.488  10.075 -0.4010  0.0112 -0.2698
  161SOPE   C3117999   5.546   6.405  10.082  0.3640  0.4212 -0.1510
  161SOPE   O3218000   5.559   6.313  10.163  0.5649  0.1887  0.3284
  161SOPE   C3218001   5.656   6.453   9.991  0.3448  0.4538 -0.2902
  161SOPE   H2X18002   5.745   6.486  10.049  2.8956  0.6803 -3.9731
  161SOPE   H2Y18003   5.624   6.543   9.935  1.6929  0.9487 -0.3051
  161SOPE   C2318004   5.155   5.955   9.936 -0.1079  0.2514  0.9609
  161SOPE   H3R18005   5.045   5.945   9.954 -0.6782  1.7786 -1.3360
  161SOPE   H3S18006   5.205   5.858   9.956  0.7309 -0.0974 -2.3563
  161SOPE   C2418007   5.192   6.014   9.797 -0.4078  0.0850  0.1748
  161SOPE   H4R18008   5.124   6.101   9.787  0.3250  0.7107  0.5785
  161SOPE   H4S18009   5.293   6.059   9.799  0.4048 -1.6209 -0.3860
  161SOPE   C2518010   5.174   5.918   9.674 -0.2266 -0.4269  0.1076
  161SOPE   H5R18011   5.264   5.854   9.664 -0.2349 -0.1128 -2.8739
  161SOPE   H5S18012   5.084   5.853   9.679 -0.1120 -0.7812 -1.8829
  161SOPE   C2618013   5.170   6.002   9.548  0.5315  1.0260 -0.4212
  161SOPE   H6R18014   5.085   6.073   9.558 -1.0392 -0.8733  0.4769
  161SOPE   H6S18015   5.263   6.058   9.526  0.0664  1.3946 -1.4921
  161SOPE   C2718016   5.160   5.915   9.421  0.0929 -0.1526 -0.8267
  161SOPE   H7R18017   5.227   5.827   9.430 -0.8232 -0.8064 -0.1553
  161SOPE   H7S18018   5.054   5.890   9.400 -0.5528  1.3234  0.4406
  161SOPE   C2818019   5.202   5.990   9.293 -0.3676 -0.5674 -1.1732
  161SOPE   H8R18020   5.309   6.014   9.303 -0.2554 -1.9032  1.7682
  161SOPE   H8S18021   5.206   5.922   9.204  2.7653 -1.4145 -0.5010
  161SOPE   C2918022   5.117   6.111   9.255 -0.2020 -0.2208  0.0957
  161SOPE   H9118023   5.032   6.134   9.320 -0.8578  2.1191 -1.4811
  161SOPE  C21018024   5.126   6.175   9.136  0.5796  0.1776  0.0712
  161SOPE  H10118025   5.054   6.255   9.116  1.3880  1.0781  0.6904
  161SOPE  C21118026   5.216   6.144   9.023 -1.0596  0.8160 -0.2771
  161SOPE  H11R18027   5.258   6.042   9.034  0.1744  1.4757  1.5038
  161SOPE  H11S18028   5.301   6.215   9.015 -0.2099 -0.3824 -3.8895
  161SOPE  C21218029   5.140   6.134   8.886 -0.0034  0.4893  0.3391
  161SOPE  H12R18030   5.109   6.238   8.860  0.7540  1.6235  3.5359
  161SOPE  H12S18031   5.054   6.066   8.905  0.5704 -0.0306  1.1375
  161SOPE  C21318032   5.232   6.070   8.775  0.7787  0.1570  0.1725
  161SOPE  H13R18033   5.263   5.969   8.809 -0.0284 -0.5661 -1.1657
  161SOPE  H13S18034   5.324   6.125   8.748  1.6875 -2.2756 -2.1273
  161SOPE  C21418035   5.150   6.054   8.645 -0.1738  0.1204 -0.1739
  161SOPE  H14R18036   5.121   6.159   8.621 -1.6797  0.2286  1.8093
  161SOPE  H14S18037   5.060   5.992   8.663  1.3104 -1.9925  0.3822
  161SOPE  C21518038   5.237   6.000   8.522  0.2887  0.4770 -0.6089
  161SOPE  H15R18039   5.256   5.891   8.525 -0.6582  0.3139 -0.0337
  161SOPE  H15S18040   5.339   6.042   8.520  1.0856 -1.2774 -3.5908
  161SOPE  C21618041   5.162   6.012   8.388 -0.7388 -0.3162  0.1510
  161SOPE  H16R18042   5.111   6.111   8.386 -0.4341 -0.1481  0.6936
  161SOPE  H16S18043   5.080   5.937   8.386  1.5223 -2.9756  0.7521
  161SOPE  C21718044   5.245   5.993   8.262 -0.2280  0.0974  0.4328
  161SOPE  H17R18045   5.171   5.972   8.182  2.5690 -0.3762 -2.2029
  161SOPE  H17S18046   5.303   5.900   8.280 -1.4544 -0.4776  1.6869
  161SOPE  C21818047   5.341   6.108   8.236  0.4348 -0.1668  0.2131
  161SOPE  H18R18048   5.413   6.082   8.156  1.1929  0.9132  0.5190
  161SOPE  H18S18049   5.395   6.127   8.331  0.1384 -0.0819  0.3674
  161SOPE  H18T18050   5.289   6.200   8.202  1.0398 -0.2687 -1.0253
  161SOPE   C3318051   5.688   6.343   9.880  0.5517  0.2575 -0.5740
  161SOPE   H3X18052   5.708   6.242   9.921  1.4611  0.1876 -1.1393
  161SOPE   H3Y18053   5.779   6.371   9.822  0.8536 -1.0671 -0.7646
  161SOPE   C3418054   5.572   6.330   9.777  0.3715  0.4058 -0.3675
  161SOPE   H4X18055   5.543   6.432   9.744 -0.4038 -0.1189 -1.3694
  161SOPE   H4Y18056   5.482   6.284   9.823  0.6450  1.4261  1.2530
  161SOPE   C3518057   5.626   6.242   9.662  0.9576  0.5906  0.6131
  161SOPE   H5X18058   5.616   6.135   9.690 -2.4282  0.5781 -0.1890
  161SOPE   H5Y18059   5.733   6.264   9.643  1.4650 -0.0753  2.5205
  161SOPE   C3618060   5.545   6.262   9.529 -0.2047 -0.0956  0.5408
  161SOPE   H6X18061   5.558   6.354   9.469 -1.4383 -3.0103 -4.8157
  161SOPE   H6Y18062   5.437   6.275   9.550 -0.2108  0.7567  0.0437
  161SOPE   C3718063   5.555   6.148   9.422 -1.2678 -0.0663  0.5721
  161SOPE   H7X18064   5.473   6.156   9.347 -1.1338  1.5104  0.5709
  161SOPE   H7Y18065   5.525   6.054   9.473  0.0814 -0.7532  0.1750
  161SOPE   C3818066   5.691   6.140   9.358  0.0124  0.4309  0.0645
  161SOPE   H8X18067   5.780   6.144   9.425  1.4221 -0.5295 -1.6443
  161SOPE   H8Y18068   5.694   6.233   9.297 -0.5593  2.4333  2.8836
  161SOPE   C3918069   5.715   6.013   9.268 -0.0446 -0.2981 -0.1191
  161SOPE   H9X18070   5.624   5.994   9.207 -0.7206 -1.5253  1.1907
  161SOPE   H9Y18071   5.733   5.927   9.336  1.0809  0.4208  0.5203
  161SOPE  C31018072   5.840   6.032   9.179  0.1370  0.3219  0.2592
  161SOPE  H10X18073   5.927   6.074   9.234  2.0870  0.3010 -2.5979
  161SOPE  H10Y18074   5.821   6.112   9.104  1.4415  1.4263  1.0610
  161SOPE  C31118075   5.872   5.900   9.112  0.3253 -0.1407  0.2160
  161SOPE  H11X18076   5.777   5.874   9.060  0.5488 -3.5876  1.2453
  161SOPE  H11Y18077   5.881   5.819   9.187 -0.2143 -1.3822 -1.0034
  161SOPE  C31218078   5.997   5.904   9.028 -0.5528  0.1476  0.3431
  161SOPE  H12X18079   6.019   5.797   9.010  0.8545  0.8918 -3.2095
  161SOPE  H12Y18080   6.088   5.949   9.074  0.0132  1.4966 -1.9665
  161SOPE  C31318081   5.970   5.982   8.897 -0.0471  0.2801  0.3755
  161SOPE  H13X18082   5.959   6.089   8.924 -2.7674 -0.4652  2.7609
  161SOPE  H13Y18083   5.871   5.944   8.866  1.3699 -2.7519 -0.8838
  161SOPE  C31418084   6.072   5.963   8.779 -0.5815 -0.5849  0.6600
  161SOPE  H14X18085   6.080   5.857   8.747  0.9826 -0.5982  1.0085
  161SOPE  H14Y18086   6.172   6.005   8.802 -0.1329 -0.8468 -0.6858
  161SOPE  C31518087   6.021   6.029   8.648 -0.6362  0.3275 -0.4150
  161SOPE  H15X18088   5.984   6.132   8.671 -1.7177 -0.5404  2.0100
  161SOPE  H15Y18089   5.933   5.969   8.616 -1.6611  0.3949  2.0628
  161SOPE  C31618090   6.135   6.049   8.537  0.1611 -0.0469  0.4169
  161SOPE  H16X18091   6.227   6.090   8.586  1.0803 -0.2308 -1.1132
  161SOPE  H16Y18092   6.099   6.132   8.472  1.9555 -1.4355 -2.5394
  161SOPE  C31718093   6.160   5.925   8.450  1.1148 -0.2198 -0.4300
  161SOPE  H17X18094   6.233   5.956   8.371  1.0021  1.0451 -0.0508
  161SOPE  H17Y18095   6.068   5.888   8.400  1.3544 -1.3232 -0.0792
  161SOPE  C31818096   6.209   5.802   8.519  0.5120  0.2663  0.3652
  161SOPE  H18X18097   6.131   5.749   8.578  1.4369  0.1697  1.5347
  161SOPE  H18Y18098   6.293   5.835   8.582  0.4187  0.5135  0.3614
  161SOPE  H18Z18099   6.248   5.738   8.437 -0.5069 -0.7275  0.6251
  162SOPE     N18100   2.411   4.119  10.933  0.0774  0.2861  0.5128
  162SOPE   HN118101   2.473   4.065  10.997 -0.0118  0.3750  0.6730
  162SOPE   HN218102   2.439   4.219  10.928  1.0668  0.0833  1.6392
  162SOPE   HN318103   2.313   4.128  10.966 -0.4164  4.0077 -1.4198
  162SOPE   C1218104   2.403   4.069  10.788  0.4655 -0.6315  0.2312
  162SOPE  H12A18105   2.361   3.966  10.792  1.1029 -0.8613  2.0471
  162SOPE  H12B18106   2.509   4.057  10.758  0.1940  1.4406 -1.8140
  162SOPE   C1118107   2.321   4.162  10.702 -0.5778  0.0696  0.6304
  162SOPE  H11A18108   2.230   4.195  10.758 -1.2881  0.7414 -0.8698
  162SOPE  H11B18109   2.281   4.104  10.617  0.8077  0.4798 -0.3315
  162SOPE     P18110   2.391   4.411  10.724  0.6180 -0.0223 -0.2146
  162SOPE   O1318111   2.419   4.379  10.863  0.0962 -0.0371 -0.0273
  162SOPE   O1418112   2.272   4.491  10.693 -0.2626 -0.2885 -0.1856
  162SOPE   O1218113   2.393   4.270  10.651 -0.2235 -0.1401  0.3942
  162SOPE   O1118114   2.521   4.476  10.660  0.3763 -0.5240  0.1960
  162SOPE    C118115   2.640   4.405  10.664  0.0325  0.2242 -0.5650
  162SOPE    HA18116   2.626   4.296  10.648 -0.8580  0.1747  0.4342
  162SOPE    HB18117   2.686   4.405  10.765  0.4935  1.2373 -0.7672
  162SOPE    C218118   2.753   4.460  10.566  0.3321 -0.1226  0.0158
  162SOPE    HS18119   2.761   4.564  10.605 -1.1670 -0.1342  0.4050
  162SOPE   O2118120   2.700   4.468  10.438 -0.1496 -0.8056  0.5221
  162SOPE   C2118121   2.763   4.549  10.349  0.3677 -0.3565  0.1442
  162SOPE   O2218122   2.830   4.645  10.381 -0.1614 -0.6916 -0.2070
  162SOPE   C2218123   2.738   4.490  10.212 -0.0277 -0.2790  0.2740
  162SOPE   H2R18124   2.634   4.507  10.178  0.9522  0.6430 -2.5320
  162SOPE   H2S18125   2.772   4.385  10.208 -0.8405 -0.5689  0.7728
  162SOPE    C318126   2.874   4.374  10.563  0.0936  1.0007 -0.5806
  162SOPE    HX18127   2.827   4.279  10.531  0.1492  0.9808 -0.6022
  162SOPE    HY18128   2.927   4.351  10.658 -1.2435 -1.2827 -0.3282
  162SOPE   O3118129   2.965   4.401  10.459 -0.8650 -0.2899  0.6335
  162SOPE   C3118130   3.068   4.485  10.487  0.0809 -0.9798 -0.6331
  162SOPE   O3218131   3.103   4.528  10.595 -0.8025  0.1201 -0.0593
  162SOPE   C3218132   3.129   4.528  10.364  0.9565 -0.0012 -0.1058
  162SOPE   H2X18133   3.107   4.636  10.354 -1.0155 -0.3877 -0.2214
  162SOPE   H2Y18134   3.079   4.492  10.272  0.5722 -0.3987  0.2586
  162SOPE   C2318135   2.825   4.565  10.107 -0.2632  1.0133  0.6272
  162SOPE   H3R18136   2.934   4.545  10.107  0.1183  2.8794 -0.0192
  162SOPE   H3S18137   2.813   4.674  10.128 -1.6651  0.8855  0.6007
  162SOPE   C2418138   2.772   4.537   9.965  0.3878  0.2084 -0.0799
  162SOPE   H4R18139   2.753   4.428   9.957  0.0271  0.3623 -1.9453
  162SOPE   H4S18140   2.665   4.567   9.960 -0.5865 -3.0290 -2.0389
  162SOPE   C2518141   2.860   4.577   9.846  0.2028  0.5143 -0.2798
  162SOPE   H5R18142   2.889   4.684   9.847  1.2251  0.2890 -2.1152
  162SOPE   H5S18143   2.952   4.521   9.871 -0.5600 -0.6864 -0.0379
  162SOPE   C2618144   2.824   4.518   9.707 -0.2724  0.1956 -0.9552
  162SOPE   H6R18145   2.918   4.514   9.647  0.4573 -0.3781  0.1937
  162SOPE   H6S18146   2.779   4.417   9.717  0.8073 -0.2596 -0.5707
  162SOPE   C2718147   2.721   4.611   9.633  0.2916 -0.0414  0.3435
  162SOPE   H7R18148   2.621   4.602   9.680 -0.0580  1.8395  0.0332
  162SOPE   H7S18149   2.760   4.714   9.645  1.9655 -0.8740  2.9467
  162SOPE   C2818150   2.724   4.577   9.485  0.1854  0.5730  0.2900
  162SOPE   H8R18151   2.826   4.570   9.440 -1.0714 -4.1748 -2.4763
  162SOPE   H8S18152   2.671   4.479   9.482 -0.1794  0.7618  0.5325
  162SOPE   C2918153   2.637   4.678   9.416  0.3366 -0.5081 -0.1284
  162SOPE   H9118154   2.581   4.752   9.474 -0.6909  0.3217 -2.0913
  162SOPE  C21018155   2.631   4.690   9.277 -0.1772 -0.3143 -0.0228
  162SOPE  H10118156   2.573   4.775   9.237  2.4127  1.0141 -1.2286
  162SOPE  C21118157   2.703   4.601   9.175  0.0833  0.2998 -0.1747
  162SOPE  H11R18158   2.629   4.569   9.099 -0.2714  0.6113  0.0350
  162SOPE  H11S18159   2.727   4.509   9.233 -3.8970 -0.9467 -0.2280
  162SOPE  C21218160   2.819   4.660   9.102 -0.2020 -0.2580  0.0892
  162SOPE  H12R18161   2.909   4.671   9.166 -1.3405  3.3128  1.3121
  162SOPE  H12S18162   2.786   4.759   9.063  0.1362 -0.5888 -1.0714
  162SOPE  C21318163   2.856   4.580   8.976 -0.3680 -0.1844  0.3861
  162SOPE  H13R18164   2.844   4.470   8.988  0.3182 -0.3801 -0.5556
  162SOPE  H13S18165   2.966   4.595   8.964 -0.2652 -1.7126 -1.0433
  162SOPE  C21418166   2.796   4.618   8.837  0.8777  0.6231  0.9051
  162SOPE  H14R18167   2.838   4.554   8.757 -2.6302 -1.3270  0.4482
  162SOPE  H14S18168   2.813   4.727   8.819 -1.2533  0.8322 -0.1269
  162SOPE  C21518169   2.645   4.579   8.820  0.2560 -0.2267 -0.0393
  162SOPE  H15R18170   2.582   4.633   8.894 -0.7420  0.6819 -1.4905
  162SOPE  H15S18171   2.635   4.468   8.826  1.6142 -0.3735 -0.1879
  162SOPE  C21618172   2.574   4.626   8.688 -0.2010 -0.0088 -0.5659
  162SOPE  H16R18173   2.620   4.564   8.608  1.2901 -2.1400  1.7758
  162SOPE  H16S18174   2.601   4.733   8.670 -0.8719  0.7263  2.3244
  162SOPE  C21718175   2.422   4.612   8.695  0.0319 -0.3588  1.0002
  162SOPE  H17R18176   2.374   4.669   8.777 -3.6288 -2.8977  0.9016
  162SOPE  H17S18177   2.393   4.507   8.717  0.2801 -0.6207  0.1260
  162SOPE  C21818178   2.361   4.672   8.573  0.0420  0.1288  0.4935
  162SOPE  H18R18179   2.251   4.677   8.585 -0.1067  0.9235 -0.9085
  162SOPE  H18S18180   2.386   4.613   8.482 -0.1140  1.2771 -0.3286
  162SOPE  H18T18181   2.403   4.775   8.559  1.4319 -0.3228  1.1906
  162SOPE   C3318182   3.284   4.515  10.364 -0.3969  0.7410 -0.5252
  162SOPE   H3X18183   3.298   4.404  10.367 -3.1232  0.3277  0.2282
  162SOPE   H3Y18184   3.319   4.550  10.464 -2.4772  0.7935  0.2372
  162SOPE   C3418185   3.348   4.595  10.254 -0.2317 -0.5743 -0.4237
  162SOPE   H4X18186   3.458   4.582  10.260 -0.2754 -1.0672 -0.6456
  162SOPE   H4Y18187   3.317   4.702  10.258 -1.5587 -0.9753  1.3275
  162SOPE   C3518188   3.311   4.540  10.116 -0.6279 -0.1857  0.2235
  162SOPE   H5X18189   3.202   4.519  10.113 -0.0534 -3.6728 -0.6156
  162SOPE   H5Y18190   3.373   4.449  10.101  1.5380  1.2154  0.1933
  162SOPE   C3618191   3.354   4.640  10.001  0.1903 -0.2428  0.6680
  162SOPE   H6X18192   3.465   4.648  10.005  0.2230 -0.9588  2.6871
  162SOPE   H6Y18193   3.322   4.743  10.024 -0.8445 -0.5444  0.6054
  162SOPE   C3718194   3.292   4.614   9.868 -0.3474  0.1589  0.9501
  162SOPE   H7X18195   3.182   4.601   9.882 -1.0948  2.5959 -1.6717
  162SOPE   H7Y18196   3.340   4.521   9.831 -0.7254  0.4245 -0.2573
  162SOPE   C3818197   3.320   4.726   9.767 -0.0654  0.1359 -0.2337
  162SOPE   H8X18198   3.430   4.732   9.753  0.0470 -1.4065 -0.1660
  162SOPE   H8Y18199   3.285   4.829   9.791 -0.3602 -0.3625  1.6194
  162SOPE   C3918200   3.260   4.703   9.628  1.0483  0.6701 -0.4391
  162SOPE   H9X18201   3.150   4.718   9.632  0.8078 -0.9793  0.2254
  162SOPE   H9Y18202   3.284   4.599   9.597  1.2178  0.6421 -0.2128
  162SOPE  C31018203   3.311   4.800   9.521  0.0039  0.1975 -0.4033
  162SOPE  H10X18204   3.421   4.817   9.527  0.2741 -0.8189 -1.8374
  162SOPE  H10Y18205   3.273   4.904   9.530  0.9105  0.6348 -1.4845
  162SOPE  C31118206   3.282   4.739   9.376 -0.5178  0.2079 -0.1336
  162SOPE  H11X18207   3.188   4.680   9.368 -0.0169 -0.5174 -0.8181
  162SOPE  H11Y18208   3.363   4.664   9.368 -0.0443  0.6260  0.6027
  162SOPE  C31218209   3.302   4.841   9.271  0.0753  0.3244  0.6168
  162SOPE  H12X18210   3.404   4.886   9.278  0.7170 -1.3005  3.5166
  162SOPE  H12Y18211   3.222   4.913   9.299 -1.5842 -0.5608 -1.6232
  162SOPE  C31318212   3.267   4.795   9.125  0.5947 -0.2562  0.4664
  162SOPE  H13X18213   3.169   4.745   9.135  0.5915  0.0363  2.2408
  162SOPE  H13Y18214   3.344   4.721   9.095  1.1542  0.8915 -1.0770
  162SOPE  C31418215   3.250   4.915   9.025  0.2378  0.3292 -0.2778
  162SOPE  H14X18216   3.345   4.936   8.971  0.6748  0.6252  0.5879
  162SOPE  H14Y18217   3.205   5.001   9.080 -1.8416 -1.1134  0.3981
  162SOPE  C31518218   3.163   4.886   8.902  0.5001  0.5480  0.7434
  162SOPE  H15X18219   3.055   4.882   8.929  0.2806 -0.4288 -0.2078
  162SOPE  H15Y18220   3.189   4.786   8.862  1.6022  0.9303  0.4632
  162SOPE  C31618221   3.173   4.980   8.775 -0.2565 -0.2225 -0.3814
  162SOPE  H16X18222   3.263   4.957   8.714  0.2677  1.2147 -0.1850
  162SOPE  H16Y18223   3.186   5.081   8.818  1.8334 -0.4893 -0.2666
  162SOPE  C31718224   3.068   4.959   8.665  0.0363 -0.1637 -0.1379
  162SOPE  H17X18225   2.968   4.966   8.712 -0.6422 -0.4598 -1.5068
  162SOPE  H17Y18226   3.088   4.859   8.621  1.2755  0.2421 -0.5439
  162SOPE  C31818227   3.069   5.057   8.552  0.2622 -0.0396  0.2878
  162SOPE  H18X18228   3.042   5.153   8.601 -0.9269  0.3215 -1.0107
  162SOPE  H18Y18229   2.987   5.036   8.480  1.0534  0.2669 -0.7274
  162SOPE  H18Z18230   3.172   5.051   8.509  0.7241 -1.3942  1.5241
  163SOPE     N18231   0.342   0.767  10.872 -0.0042  0.6611  0.8186
  163SOPE   HN118232   0.346   0.666  10.897  0.2800  0.9494  2.0491
  163SOPE   HN218233   0.277   0.805  10.944  1.0992  0.2660  2.0728
  163SOPE   HN318234   0.307   0.780  10.776  1.5592  1.1795  0.2775
  163SOPE   C1218235   0.473   0.831  10.889 -0.7941 -0.4079  0.4270
  163SOPE  H12A18236   0.542   0.805  10.806 -0.9913 -0.4097  0.2630
  163SOPE  H12B18237   0.521   0.803  10.985  0.7316 -0.2896 -0.2616
  163SOPE   C1118238   0.452   0.984  10.888 -0.0531  0.3449 -0.0896
  163SOPE  H11A18239   0.549   1.030  10.856 -0.5268  1.2162 -0.3007
  163SOPE  H11B18240   0.425   1.011  10.992 -0.7586 -0.1934 -0.1279
  163SOPE     P18241   0.315   1.173  10.788 -0.1083  0.2865 -0.4428
  163SOPE   O1318242   0.360   1.244  10.913 -0.2759 -0.0470 -0.3161
  163SOPE   O1418243   0.174   1.195  10.751  0.4057 -0.1386 -0.1783
  163SOPE   O1218244   0.346   1.023  10.793 -0.0128  0.2972  0.0155
  163SOPE   O1118245   0.408   1.219  10.669 -0.7746 -0.0345  0.3401
  163SOPE    C118246   0.393   1.152  10.545  0.9136  0.4615 -0.4100
  163SOPE    HA18247   0.376   1.222  10.460 -0.7945 -1.9973 -2.2718
  163SOPE    HB18248   0.301   1.088  10.546  1.0630  0.2486 -0.1091
  163SOPE    C218249   0.516   1.064  10.515  0.4061 -0.4523 -0.6746
  163SOPE    HS18250   0.582   1.047  10.602  0.7802  2.1646 -0.3842
  163SOPE   O2118251   0.593   1.136  10.419  0.1072 -0.7683 -0.5996
  163SOPE   C2118252   0.710   1.080  10.395  0.2451 -0.3348 -0.2023
  163SOPE   O2218253   0.755   0.984  10.444  0.1300  0.7834 -0.6929
  163SOPE   C2218254   0.788   1.171  10.309 -0.1164 -0.4819  0.7390
  163SOPE   H2R18255   0.813   1.263  10.366 -2.9447  0.4008  0.7311
  163SOPE   H2S18256   0.728   1.207  10.223 -0.2758  1.4255  1.5892
  163SOPE    C318257   0.461   0.929  10.451 -0.1595 -0.1744  0.3389
  163SOPE    HX18258   0.430   0.856  10.529 -1.0279 -0.7463 -0.5223
  163SOPE    HY18259   0.538   0.874  10.393  0.7402  0.2637  1.0938
  163SOPE   O3118260   0.345   0.950  10.369  0.5077 -0.2089 -0.2226
  163SOPE   C3118261   0.356   1.003  10.247  0.2062 -0.3497  0.2438
  163SOPE   O3218262   0.463   1.022  10.192  0.1487  0.4993  0.2839
  163SOPE   C3218263   0.218   1.033  10.188  0.0448 -0.5280 -0.1994
  163SOPE   H2X18264   0.189   1.140  10.183 -1.6936 -0.8845  1.1303
  163SOPE   H2Y18265   0.144   0.992  10.260  2.7455  0.8174  3.6348
  163SOPE   C2318266   0.912   1.095  10.241  0.4612 -0.4281  0.8746
  163SOPE   H3R18267   0.882   1.003  10.188  1.7186 -2.6010  3.6718
  163SOPE   H3S18268   0.972   1.062  10.328 -0.3803 -0.7824  1.3345
  163SOPE   C2418269   0.986   1.200  10.158 -0.7298  0.0145  0.7651
  163SOPE   H4R18270   0.906   1.244  10.095 -0.0492  0.7878  0.4243
  163SOPE   H4S18271   1.031   1.275  10.226  1.3433 -0.0390 -0.4643
  163SOPE   C2518272   1.094   1.126  10.076 -1.4025 -0.1807  0.1524
  163SOPE   H5R18273   1.158   1.205  10.030 -1.3863  0.0978  0.6495
  163SOPE   H5S18274   1.169   1.081  10.144 -0.2600  1.4682  0.0342
  163SOPE   C2618275   1.057   1.021   9.977 -0.7838 -0.3177 -1.2965
  163SOPE   H6R18276   1.005   0.933  10.020  2.2778 -1.9875 -0.7300
  163SOPE   H6S18277   0.995   1.075   9.901 -0.3336  1.2551 -0.5882
  163SOPE   C2718278   1.185   0.953   9.912  0.0215  0.6426 -1.4689
  163SOPE   H7R18279   1.236   0.900   9.995  0.3053 -0.2910 -2.2273
  163SOPE   H7S18280   1.153   0.869   9.847  1.6580 -0.7044 -0.5794
  163SOPE   C2818281   1.289   1.032   9.830  0.4756 -0.1119  0.7718
  163SOPE   H8R18282   1.341   1.103   9.899  0.1321 -1.4103  2.4379
  163SOPE   H8S18283   1.362   0.955   9.795  0.4060  0.2294 -0.1596
  163SOPE   C2918284   1.219   1.100   9.709 -0.5969 -0.4907 -0.7190
  163SOPE   H9118285   1.210   1.209   9.719  1.0602 -0.4141  0.3506
  163SOPE  C21018286   1.165   1.043   9.602  0.0073  0.0240  0.1409
  163SOPE  H10118287   1.111   1.106   9.530 -0.7457 -1.5185 -0.7077
  163SOPE  C21118288   1.163   0.897   9.568  0.7230  0.0296  0.7586
  163SOPE  H11R18289   1.067   0.840   9.575 -0.4618  1.9602  0.9801
  163SOPE  H11S18290   1.232   0.851   9.642 -1.9450 -0.1322  3.3301
  163SOPE  C21218291   1.233   0.881   9.432 -0.0844  0.2775 -1.1063
  163SOPE  H12R18292   1.247   0.771   9.418  0.5875  0.3622 -1.1386
  163SOPE  H12S18293   1.332   0.932   9.437 -1.3128  2.6557  2.5117
  163SOPE  C21318294   1.155   0.946   9.321  0.5104  0.0052  0.8019
  163SOPE  H13R18295   1.181   1.054   9.331  3.9899 -0.8053  2.0281
  163SOPE  H13S18296   1.046   0.927   9.333  0.3613 -0.8737 -1.4567
  163SOPE  C21418297   1.204   0.915   9.181  0.2742  0.5965 -0.4672
  163SOPE  H14R18298   1.144   0.836   9.132 -0.7443  0.3380  1.1159
  163SOPE  H14S18299   1.308   0.878   9.196 -0.5393 -1.0281  1.6788
  163SOPE  C21518300   1.202   1.030   9.078 -0.0582  0.0820 -0.0129
  163SOPE  H15R18301   1.261   1.119   9.109 -1.1643  2.5860 -4.3323
  163SOPE  H15S18302   1.100   1.072   9.065  0.8318  2.2940 -0.3581
  163SOPE  C21618303   1.270   1.006   8.948  0.4168 -0.0660 -0.3455
  163SOPE  H16R18304   1.371   0.966   8.972 -0.2482 -0.3091  2.3639
  163SOPE  H16S18305   1.291   1.099   8.892 -2.3383  1.9080  1.6244
  163SOPE  C21718306   1.211   0.910   8.840  0.0844 -0.2082 -0.8676
  163SOPE  H17R18307   1.114   0.951   8.806  0.1345  0.7464  0.0862
  163SOPE  H17S18308   1.197   0.809   8.885 -3.0328  0.5628  0.1867
  163SOPE  C21818309   1.299   0.910   8.716 -0.2700 -0.3329  0.2449
  163SOPE  H18R18310   1.315   1.014   8.681 -0.2953 -0.3687  0.1258
  163SOPE  H18S18311   1.256   0.842   8.638  1.3354 -3.2497  1.7291
  163SOPE  H18T18312   1.399   0.866   8.732 -1.1665 -2.1513  1.1347
  163SOPE   C3318313   0.209   0.972  10.047  0.2585  0.1904  0.4861
  163SOPE   H3X18314   0.245   0.867  10.054 -0.5196  0.0200  2.6398
  163SOPE   H3Y18315   0.274   1.025   9.975 -0.3279  0.1940 -0.0498
  163SOPE   C3418316   0.069   0.974   9.988 -0.1968 -0.1231  0.0188
  163SOPE   H4X18317   0.049   1.083   9.976  0.7572 -0.0576 -1.2111
  163SOPE   H4Y18318   0.000   0.930  10.064  1.2384 -0.2202  1.3037
  163SOPE   C3518319   0.045   0.908   9.852 -0.1488 -0.1867  0.5533
  163SOPE   H5X18320  -0.062   0.877   9.863 -0.4213  0.2985 -0.6217
  163SOPE   H5Y18321   0.111   0.820   9.837 -0.4073 -0.0059 -2.0107
  163SOPE   C3618322   0.058   1.004   9.730 -0.5719 -0.2116 -0.0477
  163SOPE   H6X18323   0.164   1.036   9.722 -0.5698 -0.0278  0.6090
  163SOPE   H6Y18324  -0.021   1.082   9.737 -0.7594 -0.5582  3.0705
  163SOPE   C3718325   0.030   0.919   9.612  0.3025 -0.3046  0.4632
  163SOPE   H7X18326  -0.077   0.899   9.591  1.0476  0.1095 -6.0436
  163SOPE   H7Y18327   0.090   0.825   9.618  0.8595 -0.0021 -0.1388
  163SOPE   C3818328   0.066   1.000   9.486 -0.0365 -0.8980  0.3260
  163SOPE   H8X18329   0.176   1.008   9.476 -0.2766  2.3211 -1.0574
  163SOPE   H8Y18330   0.024   1.101   9.501 -0.8335 -0.6910 -2.6506
  163SOPE   C3918331  -0.006   0.954   9.361  0.5808  0.4572 -0.3951
  163SOPE   H9X18332   0.018   1.028   9.282 -0.9566  2.7958  1.2021
  163SOPE   H9Y18333  -0.114   0.958   9.385  0.5530  0.9424 -0.5844
  163SOPE  C31018334   0.019   0.814   9.311 -0.4555  0.3755 -0.3309
  163SOPE  H10X18335  -0.024   0.737   9.379  0.0703 -1.0232 -1.5382
  163SOPE  H10Y18336   0.129   0.795   9.315 -0.1694  1.7796 -0.8527
  163SOPE  C31118337  -0.025   0.789   9.170 -0.4311 -0.4980  0.1664
  163SOPE  H11X18338  -0.135   0.797   9.157 -0.3616  1.1884  0.4200
  163SOPE  H11Y18339  -0.001   0.682   9.148  0.3895 -0.0364 -1.3254
  163SOPE  C31218340   0.057   0.864   9.061  0.0264  0.2157 -0.7964
  163SOPE  H12X18341   0.161   0.861   9.100 -0.9796 -1.5215  2.0851
  163SOPE  H12Y18342   0.024   0.969   9.048  0.8670  0.5647 -0.1631
  163SOPE  C31318343   0.047   0.802   8.917 -0.5305  0.7200 -0.5831
  163SOPE  H13X18344   0.060   0.694   8.939  1.8946  1.2432  0.9629
  163SOPE  H13Y18345   0.139   0.830   8.860  0.7324 -0.3180  0.8477
  163SOPE  C31418346  -0.092   0.828   8.847 -0.5805 -0.3623 -0.6766
  163SOPE  H14X18347  -0.126   0.931   8.874 -0.4266 -0.6404  0.6670
  163SOPE  H14Y18348  -0.156   0.768   8.917  1.7558  1.3288  3.2247
  163SOPE  C31518349  -0.105   0.803   8.696 -0.2306  0.0759 -0.6442
  163SOPE  H15X18350  -0.058   0.704   8.679 -0.8809 -0.7262  1.8806
  163SOPE  H15Y18351  -0.040   0.876   8.642 -1.5010  0.2187 -2.0558
  163SOPE  C31618352  -0.247   0.807   8.652 -0.1597 -0.0698  0.4295
  163SOPE  H16X18353  -0.298   0.897   8.691  0.0458 -0.8344  2.5738
  163SOPE  H16Y18354  -0.308   0.728   8.701  1.4242  1.1968  4.8722
  163SOPE  C31718355  -0.259   0.812   8.497 -0.5877 -0.3049 -0.3204
  163SOPE  H17X18356  -0.238   0.710   8.458  1.0450  0.4930 -1.6847
  163SOPE  H17Y18357  -0.174   0.871   8.456 -0.3738  1.2461  2.1331
  163SOPE  C31818358  -0.394   0.862   8.435  0.2574  0.3324  0.1067
  163SOPE  H18X18359  -0.421   0.957   8.485 -1.8036  0.1433 -0.5673
  163SOPE  H18Y18360  -0.473   0.785   8.451  0.0200 -0.0325 -2.4825
  163SOPE  H18Z18361  -0.380   0.887   8.328 -1.5311 -1.3100 -0.5755
  164SOPE     N18362   4.504   4.730  10.748  0.3844  0.7868 -0.0273
  164SOPE   HN118363   4.575   4.654  10.747 -0.2351  0.1079 -3.1729
  164SOPE   HN218364   4.471   4.738  10.650 -0.6217  1.4820  0.3542
  164SOPE   HN318365   4.542   4.819  10.786  4.0052  0.9565 -3.3660
  164SOPE   C1218366   4.384   4.692  10.829 -0.1547  0.1788 -0.9095
  164SOPE  H12A18367   4.417   4.654  10.929  3.9342  1.1668 -1.6976
  164SOPE  H12B18368   4.344   4.601  10.779  3.1703 -1.4419 -0.9249
  164SOPE   C1118369   4.275   4.805  10.828 -0.5306  0.6435 -0.9019
  164SOPE  H11A18370   4.313   4.888  10.892  0.7715 -2.3333  2.5737
  164SOPE  H11B18371   4.179   4.773  10.873 -1.8504  2.7247 -2.0720
  164SOPE     P18372   4.213   5.008  10.669  0.2223 -0.1451 -0.0300
  164SOPE   O1318373   4.308   5.088  10.591  0.2824  0.1291 -0.2105
  164SOPE   O1418374   4.173   5.069  10.801  0.2096  0.4049  0.3202
  164SOPE   O1218375   4.259   4.852  10.696  0.1608 -0.1974  0.3446
  164SOPE   O1118376   4.087   4.989  10.582 -0.0372  0.1720  1.1913
  164SOPE    C118377   4.057   4.886  10.488  0.0973 -0.7584  0.0718
  164SOPE    HA18378   3.963   4.834  10.516 -0.9196  0.1645 -1.5047
  164SOPE    HB18379   4.142   4.815  10.485  0.3742 -0.4610  0.6449
  164SOPE    C218380   4.040   4.928  10.337  0.5490 -0.2599  1.2691
  164SOPE    HS18381   4.140   4.922  10.288 -0.3647  0.9393 -0.8300
  164SOPE   O2118382   4.005   5.070  10.330 -0.3939  0.2331  0.4392
  164SOPE   C2118383   4.059   5.136  10.225  0.0950 -0.3021  0.0435
  164SOPE   O2218384   4.139   5.086  10.148 -0.0066  0.2519 -0.1428
  164SOPE   C2218385   3.988   5.264  10.206 -0.1317 -0.7280 -0.1271
  164SOPE   H2R18386   3.979   5.324  10.299  2.9926  0.1892 -0.3148
  164SOPE   H2S18387   3.889   5.234  10.164 -0.1593  0.1365 -0.7286
  164SOPE    C318388   3.952   4.835  10.256  0.0135 -0.5974 -0.1050
  164SOPE    HX18389   3.855   4.852  10.308 -0.7374  2.1681 -2.1415
  164SOPE    HY18390   3.966   4.725  10.266  1.3661 -0.3868  0.5625
  164SOPE   O3118391   3.941   4.874  10.117 -0.6009  0.1400  0.5904
  164SOPE   C3118392   4.048   4.830  10.045  0.3417  0.3205 -0.4547
  164SOPE   O3218393   4.145   4.774  10.092  0.4670  0.5304  0.5739
  164SOPE   C3218394   4.033   4.855   9.897  0.1426  0.0516  0.0433
  164SOPE   H2X18395   4.003   4.756   9.855  2.2742 -0.2686 -0.8406
  164SOPE   H2Y18396   4.127   4.875   9.843 -0.3093 -2.2978 -1.7941
  164SOPE   C2318397   4.066   5.346  10.103 -0.4801 -0.2647  0.0572
  164SOPE   H3R18398   4.103   5.288  10.015  1.5195  0.4863  0.3459
  164SOPE   H3S18399   4.149   5.400  10.154 -1.1214  0.7063  0.0882
  164SOPE   C2418400   3.974   5.448  10.042  0.2273 -0.0879 -0.3318
  164SOPE   H4R18401   3.889   5.388  10.002 -0.6061  0.8451  0.0001
  164SOPE   H4S18402   3.943   5.517  10.123  1.3450 -1.3896  1.2655
  164SOPE   C2518403   4.044   5.527   9.931 -0.4640 -0.3536 -0.2851
  164SOPE   H5R18404   4.100   5.613   9.973 -0.0662 -1.2835  1.1916
  164SOPE   H5S18405   4.129   5.467   9.893  1.3737  0.8996  1.6037
  164SOPE   C2618406   3.943   5.573   9.818  0.9750  0.6236  0.4905
  164SOPE   H6R18407   3.901   5.478   9.778  0.6424  1.0697 -0.2450
  164SOPE   H6S18408   3.866   5.636   9.866 -0.5060 -2.0786  1.9287
  164SOPE   C2718409   4.008   5.655   9.705  0.6147  0.1024  0.0201
  164SOPE   H7R18410   4.069   5.737   9.749  0.2408  0.1269  0.5119
  164SOPE   H7S18411   4.074   5.586   9.649  0.3572 -0.1114 -0.0206
  164SOPE   C2818412   3.903   5.725   9.614  0.0155  0.7228  0.2753
  164SOPE   H8R18413   3.970   5.772   9.538  2.4394 -0.5266  1.5266
  164SOPE   H8S18414   3.835   5.652   9.565  1.2009  0.2073 -0.6619
  164SOPE   C2918415   3.811   5.820   9.680  0.6945  0.3418  0.7197
  164SOPE   H9118416   3.858   5.857   9.772  2.4990 -1.3636  0.5451
  164SOPE  C21018417   3.687   5.855   9.646 -0.0941 -0.1546 -0.4585
  164SOPE  H10118418   3.636   5.905   9.729  1.1064 -0.4638  0.4993
  164SOPE  C21118419   3.598   5.805   9.535  0.8081 -0.1143 -0.0666
  164SOPE  H11R18420   3.530   5.725   9.568  0.4250  0.7560  1.3349
  164SOPE  H11S18421   3.663   5.754   9.461  3.0976  0.3619  1.4888
  164SOPE  C21218422   3.524   5.924   9.462 -0.7568  0.1040  0.9614
  164SOPE  H12R18423   3.452   5.973   9.531  2.6266  2.8017  2.9307
  164SOPE  H12S18424   3.472   5.871   9.379 -0.6101  1.3452  0.0439
  164SOPE  C21318425   3.617   6.037   9.410  0.1337  0.5847 -0.3178
  164SOPE  H13R18426   3.713   5.996   9.371 -0.1924 -0.3650 -0.1578
  164SOPE  H13S18427   3.653   6.097   9.497  1.8436 -0.0713 -0.5220
  164SOPE  C21418428   3.559   6.129   9.304 -0.1079  0.5796 -0.2589
  164SOPE  H14R18429   3.623   6.219   9.294 -1.6685  2.4448  4.0765
  164SOPE  H14S18430   3.462   6.168   9.343 -1.0030 -1.6528 -0.1453
  164SOPE  C21518431   3.547   6.071   9.163 -0.5053  0.5003 -0.6940
  164SOPE  H15R18432   3.475   5.986   9.162  3.0427 -2.8017 -0.1789
  164SOPE  H15S18433   3.646   6.033   9.128 -0.5381  0.1270 -0.3860
  164SOPE  C21618434   3.526   6.174   9.055  0.2233 -0.0994  0.8444
  164SOPE  H16R18435   3.490   6.124   8.962 -0.0964 -0.3194  1.0872
  164SOPE  H16S18436   3.625   6.213   9.024  0.9795 -2.3380  0.2414
  164SOPE  C21718437   3.430   6.288   9.088  0.1046  0.7632  0.3870
  164SOPE  H17R18438   3.480   6.357   9.160  0.3920  0.4477  0.4901
  164SOPE  H17S18439   3.342   6.244   9.138 -1.2413 -0.3019 -2.7140
  164SOPE  C21818440   3.377   6.349   8.955  0.4597  0.2792 -0.1969
  164SOPE  H18R18441   3.319   6.263   8.916 -0.1851  0.1799  0.9199
  164SOPE  H18S18442   3.465   6.379   8.894  0.2896  1.5814  0.1699
  164SOPE  H18T18443   3.313   6.438   8.975 -0.0778 -0.5723  2.3128
  164SOPE   C3318444   3.922   4.951   9.846 -0.6967  0.0566  0.2041
  164SOPE   H3X18445   3.843   4.980   9.919  1.0548  1.0401  1.7984
  164SOPE   H3Y18446   3.870   4.923   9.752 -0.6203  4.3658 -1.3526
  164SOPE   C3418447   3.983   5.085   9.817  0.8784 -0.9174 -0.2844
  164SOPE   H4X18448   4.055   5.105   9.899  2.0035 -1.2146 -1.1702
  164SOPE   H4Y18449   3.908   5.167   9.828  1.0710 -1.1121  4.5220
  164SOPE   C3518450   4.033   5.082   9.671 -0.1149  0.0551 -0.1334
  164SOPE   H5X18451   3.962   5.034   9.600 -0.7508  1.8373 -0.7525
  164SOPE   H5Y18452   4.135   5.037   9.668 -0.2461 -0.6127  2.5548
  164SOPE   C3618453   4.040   5.227   9.620 -0.4083  0.5607 -0.2198
  164SOPE   H6X18454   4.112   5.276   9.689  1.5659  1.0391 -2.4925
  164SOPE   H6Y18455   3.939   5.274   9.629  0.1295  1.9702 -1.1708
  164SOPE   C3718456   4.092   5.239   9.482 -0.6523  0.2233 -1.0507
  164SOPE   H7X18457   4.022   5.176   9.423 -1.0834  2.4103 -3.0562
  164SOPE   H7Y18458   4.196   5.201   9.476 -0.0812  1.8946 -3.6675
  164SOPE   C3818459   4.101   5.378   9.424 -0.3841 -0.5194  0.0400
  164SOPE   H8X18460   4.184   5.433   9.471 -1.0557  0.2822  0.3142
  164SOPE   H8Y18461   4.003   5.430   9.435 -0.9399 -1.2900 -0.9764
  164SOPE   C3918462   4.143   5.364   9.276  0.2033  0.3508 -0.6439
  164SOPE   H9X18463   4.232   5.302   9.254  0.5301  0.9637 -1.0822
  164SOPE   H9Y18464   4.167   5.468   9.244  1.8362  0.8598  1.8984
  164SOPE  C31018465   4.043   5.310   9.172  0.5517  0.0344 -0.0242
  164SOPE  H10X18466   3.944   5.357   9.191 -0.1306 -0.4110 -2.2319
  164SOPE  H10Y18467   4.035   5.202   9.195 -0.2650  0.0521 -0.2128
  164SOPE  C31118468   4.089   5.334   9.023  0.7772  0.4995  0.5582
  164SOPE  H11X18469   4.114   5.442   9.009 -0.7134  0.4785 -3.5053
  164SOPE  H11Y18470   4.001   5.313   8.960  0.6339 -0.0326  0.9351
  164SOPE  C31218471   4.214   5.246   8.979  0.5410 -0.0853 -0.1231
  164SOPE  H12X18472   4.202   5.139   9.004  3.7513 -0.7833 -1.1148
  164SOPE  H12Y18473   4.303   5.289   9.031  1.4266 -1.6652 -0.2735
  164SOPE  C31318474   4.243   5.255   8.831 -0.0250 -0.6495  0.6170
  164SOPE  H13X18475   4.231   5.361   8.801  0.3519 -1.0724 -1.1200
  164SOPE  H13Y18476   4.162   5.200   8.779  1.3737 -1.4597 -0.7829
  164SOPE  C31418477   4.376   5.197   8.791  0.4902  0.7165 -0.1272
  164SOPE  H14X18478   4.455   5.273   8.805 -0.6980  1.4850  3.6195
  164SOPE  H14Y18479   4.359   5.172   8.684 -1.1352 -0.2948  0.3206
  164SOPE  C31518480   4.411   5.064   8.853 -0.6078  0.0222  0.3259
  164SOPE  H15X18481   4.335   4.986   8.835 -0.8192  0.7942 -2.5137
  164SOPE  H15Y18482   4.425   5.069   8.963  0.6504 -0.7577  0.2215
  164SOPE  C31618483   4.546   5.009   8.794  1.1532 -0.1575  0.1380
  164SOPE  H16X18484   4.619   5.092   8.807  1.6447 -0.7309  1.1318
  164SOPE  H16Y18485   4.518   4.986   8.689  1.3742 -1.3064  0.3188
  164SOPE  C31718486   4.594   4.876   8.853  0.6096  0.5294 -0.1295
  164SOPE  H17X18487   4.526   4.788   8.855  2.2564 -0.8156 -0.6528
  164SOPE  H17Y18488   4.602   4.904   8.960  2.3554 -0.9998  0.1979
  164SOPE  C31818489   4.727   4.824   8.800  0.0528  0.3645 -0.4331
  164SOPE  H18X18490   4.765   4.738   8.859  1.7214  1.2613 -0.1264
  164SOPE  H18Y18491   4.796   4.911   8.811  0.2145  0.2692 -0.6800
  164SOPE  H18Z18492   4.703   4.804   8.694 -0.3548  0.7810 -0.4230
  165SOPE     N18493   4.556   1.636  11.118 -1.1721  0.3010  0.2355
  165SOPE   HN118494   4.637   1.641  11.054  0.5154  1.4172  2.2962
  165SOPE   HN218495   4.603   1.641  11.211  1.2628  0.5441 -0.9393
  165SOPE   HN318496   4.512   1.542  11.112 -2.0933  0.7598 -0.5060
  165SOPE   C1218497   4.457   1.754  11.108 -0.7379 -0.1559 -0.9250
  165SOPE  H12A18498   4.519   1.846  11.109  0.8125 -1.1610  0.1186
  165SOPE  H12B18499   4.399   1.763  11.202  1.2136  1.0667  0.2518
  165SOPE   C1118500   4.358   1.732  10.999 -0.2071 -0.4647  0.4744
  165SOPE  H11A18501   4.274   1.805  10.993 -0.6739 -0.9827  0.6626
  165SOPE  H11B18502   4.313   1.634  11.023 -1.3255 -0.2430 -0.5943
  165SOPE     P18503   4.456   1.864  10.792 -0.2164 -0.1222 -0.0202
  165SOPE   O1318504   4.539   1.840  10.672 -0.1535  0.1836 -0.0155
  165SOPE   O1418505   4.509   1.958  10.894 -0.0580  0.2947 -0.0381
  165SOPE   O1218506   4.430   1.728  10.873 -0.7603  0.3102  0.4544
  165SOPE   O1118507   4.304   1.912  10.754 -0.0732 -0.2748  0.4519
  165SOPE    C118508   4.217   1.818  10.679  0.0344  0.2920 -0.1116
  165SOPE    HA18509   4.154   1.755  10.745 -0.5021  2.2393  1.3215
  165SOPE    HB18510   4.274   1.752  10.609 -2.2497 -0.8715 -0.9623
  165SOPE    C218511   4.133   1.899  10.570  0.2937  0.4021  0.1498
  165SOPE    HS18512   4.112   1.835  10.482 -2.3520 -1.4585  1.9911
  165SOPE   O2118513   4.186   2.026  10.537 -0.5450  0.2616 -0.2180
  165SOPE   C2118514   4.300   2.021  10.457 -0.6249 -0.0385 -0.5940
  165SOPE   O2218515   4.345   1.921  10.404 -0.5170  0.2291  0.4737
  165SOPE   C2218516   4.358   2.162  10.445  0.2571  0.1095  0.0329
  165SOPE   H2R18517   4.422   2.206  10.525 -0.4082  0.7402  0.2288
  165SOPE   H2S18518   4.268   2.227  10.447 -1.1830 -1.7706  2.5258
  165SOPE    C318519   3.995   1.931  10.634  0.8305  0.2470  0.0613
  165SOPE    HX18520   4.003   2.007  10.715  0.6343  0.0570  0.2632
  165SOPE    HY18521   3.955   1.843  10.690  0.1369  1.6542  1.8803
  165SOPE   O3118522   3.899   1.965  10.530  0.5489  0.0043 -0.2282
  165SOPE   C3118523   3.877   2.092  10.504 -0.0020 -0.5591 -1.0437
  165SOPE   O3218524   3.936   2.181  10.564 -0.3103 -0.3535 -0.0032
  165SOPE   C3218525   3.768   2.103  10.385  0.1817 -0.1237  0.2793
  165SOPE   H2X18526   3.669   2.078  10.430 -0.8716  1.2698 -1.1415
  165SOPE   H2Y18527   3.798   2.025  10.312 -0.0556 -1.0448  1.1418
  165SOPE   C2318528   4.434   2.192  10.312 -0.4718 -0.2068  0.3593
  165SOPE   H3R18529   4.513   2.123  10.276 -2.0468  0.0753 -4.3158
  165SOPE   H3S18530   4.500   2.280  10.324  0.9422 -0.7643 -2.5656
  165SOPE   C2418531   4.334   2.214  10.195 -0.2189 -0.3740  0.7389
  165SOPE   H4R18532   4.328   2.121  10.134  0.3973  0.3039 -0.3926
  165SOPE   H4S18533   4.234   2.246  10.232 -1.0302  0.1871 -1.7620
  165SOPE   C2518534   4.377   2.329  10.089 -0.2897  0.2810  0.2866
  165SOPE   H5R18535   4.394   2.418  10.153 -1.7023  1.4386 -0.8786
  165SOPE   H5S18536   4.473   2.288  10.053 -1.3940  0.8057 -3.8179
  165SOPE   C2618537   4.267   2.358   9.986 -0.7235  0.1605 -0.1558
  165SOPE   H6R18538   4.235   2.259   9.948 -0.2856  0.1104 -0.3913
  165SOPE   H6S18539   4.181   2.398  10.045 -0.7021 -0.8583  0.5991
  165SOPE   C2718540   4.312   2.461   9.888 -0.5538 -0.2171 -0.8300
  165SOPE   H7R18541   4.344   2.559   9.928  0.2573 -0.7423 -0.1672
  165SOPE   H7S18542   4.395   2.407   9.839  0.4656  0.5393  0.0221
  165SOPE   C2818543   4.213   2.506   9.781  0.0470 -0.5096  0.4931
  165SOPE   H8R18544   4.160   2.417   9.743  1.4229 -0.4248 -1.8184
  165SOPE   H8S18545   4.133   2.564   9.831  0.6751  0.6766  0.1658
  165SOPE   C2918546   4.282   2.570   9.662  0.0172 -0.0104  0.0705
  165SOPE   H9118547   4.357   2.645   9.693 -0.4113  0.6208 -0.3919
  165SOPE  C21018548   4.255   2.542   9.537  0.1035 -0.0594 -0.8134
  165SOPE  H10118549   4.316   2.591   9.459 -0.0244  1.2340 -0.1313
  165SOPE  C21118550   4.147   2.455   9.481 -0.4593  0.2411 -0.2356
  165SOPE  H11R18551   4.048   2.503   9.499 -0.9890 -0.4168 -1.2575
  165SOPE  H11S18552   4.144   2.356   9.530  1.9550 -0.8404 -2.1381
  165SOPE  C21218553   4.152   2.406   9.341 -0.2862 -0.4052 -0.1837
  165SOPE  H12R18554   4.090   2.315   9.326  0.0114 -0.8860  1.3106
  165SOPE  H12S18555   4.258   2.375   9.324 -0.5044 -1.2615  0.0066
  165SOPE  C21318556   4.097   2.503   9.227  0.4354  0.4716 -0.7731
  165SOPE  H13R18557   4.175   2.580   9.208  1.2923  0.3214  1.6993
  165SOPE  H13S18558   4.008   2.548   9.276 -0.1043 -2.0568  0.8096
  165SOPE  C21418559   4.060   2.420   9.102 -0.4464  0.2494 -0.1726
  165SOPE  H14R18560   3.977   2.351   9.129  1.9323 -1.6177  3.1291
  165SOPE  H14S18561   4.142   2.347   9.091 -0.5086  0.3195 -1.1453
  165SOPE  C21518562   4.033   2.515   8.984 -0.2552  0.0834 -0.5716
  165SOPE  H15R18563   4.109   2.595   8.975  0.7492 -0.7930 -0.1874
  165SOPE  H15S18564   3.937   2.568   8.997  0.5461  1.2938  0.7993
  165SOPE  C21618565   4.042   2.433   8.856 -0.4467 -0.1391  0.2207
  165SOPE  H16R18566   3.973   2.346   8.853 -2.8709  1.6995 -1.1716
  165SOPE  H16S18567   4.143   2.389   8.863 -0.5564 -0.4513 -0.1495
  165SOPE  C21718568   4.017   2.516   8.726 -0.4038 -0.4533  0.0086
  165SOPE  H17R18569   4.052   2.620   8.745 -0.8298 -0.0957 -1.0754
  165SOPE  H17S18570   3.910   2.519   8.697 -0.4798  0.6776  0.3645
  165SOPE  C21818571   4.098   2.474   8.605 -0.2031  0.2093  0.5771
  165SOPE  H18R18572   4.032   2.405   8.547 -0.3779  1.3829 -0.6739
  165SOPE  H18S18573   4.193   2.428   8.640 -0.5439 -0.6644  0.4034
  165SOPE  H18T18574   4.126   2.563   8.545 -0.6491  1.5810  2.3095
  165SOPE   C3318575   3.770   2.249  10.328 -0.8311  0.4029 -0.4411
  165SOPE   H3X18576   3.872   2.280  10.297 -1.2960  2.0220 -0.4702
  165SOPE   H3Y18577   3.749   2.322  10.409  0.7563 -0.2004  0.5498
  165SOPE   C3418578   3.666   2.271  10.219  0.0896  0.3239 -0.7943
  165SOPE   H4X18579   3.653   2.380  10.201 -2.6522  0.1055 -0.6844
  165SOPE   H4Y18580   3.564   2.251  10.258  0.6873 -1.3124  0.0044
  165SOPE   C3518581   3.702   2.206  10.082 -0.1330 -0.8969 -0.0386
  165SOPE   H5X18582   3.695   2.096  10.071 -0.7267 -0.6708 -2.5037
  165SOPE   H5Y18583   3.800   2.254  10.058 -0.6513  0.4374  0.4098
  165SOPE   C3618584   3.604   2.260   9.977  0.5798  0.3447  0.1934
  165SOPE   H6X18585   3.578   2.364  10.003 -1.4719 -0.6194  2.2922
  165SOPE   H6Y18586   3.507   2.208   9.987 -0.1808  1.3566 -1.4554
  165SOPE   C3718587   3.636   2.220   9.828  0.1658 -0.0485 -0.2093
  165SOPE   H7X18588   3.677   2.117   9.814  3.2108  1.1894 -1.2737
  165SOPE   H7Y18589   3.720   2.287   9.799  0.6032 -0.9425 -1.0915
  165SOPE   C3818590   3.512   2.229   9.740  0.1769  0.1499 -0.2020
  165SOPE   H8X18591   3.466   2.330   9.751  0.1222  0.3492 -2.0231
  165SOPE   H8Y18592   3.448   2.144   9.770 -0.3513  0.4525 -0.4541
  165SOPE   C3918593   3.550   2.211   9.595  0.0737  0.7093 -0.0563
  165SOPE   H9X18594   3.455   2.183   9.544  0.0096  2.4322 -0.9296
  165SOPE   H9Y18595   3.618   2.123   9.586  0.3070  0.9201 -0.3686
  165SOPE  C31018596   3.626   2.331   9.536 -0.6832 -0.4574  0.1000
  165SOPE  H10X18597   3.735   2.313   9.544 -0.5685 -0.5312 -1.3552
  165SOPE  H10Y18598   3.611   2.421   9.599 -1.4613 -1.2126  1.0100
  165SOPE  C31118599   3.589   2.349   9.393 -0.2638  0.0823  0.8266
  165SOPE  H11X18600   3.588   2.456   9.363  0.8440 -0.0790  0.1636
  165SOPE  H11Y18601   3.487   2.308   9.382  0.7583 -2.5809  0.6385
  165SOPE  C31218602   3.680   2.274   9.296 -0.2330  0.1255  0.5398
  165SOPE  H12X18603   3.664   2.165   9.303 -1.9670  0.4329  2.0827
  165SOPE  H12Y18604   3.790   2.295   9.298  0.1929 -0.1896 -4.9081
  165SOPE  C31318605   3.645   2.305   9.151  0.3533 -0.4955  0.7168
  165SOPE  H13X18606   3.682   2.408   9.128 -2.2986  0.1222 -1.1271
  165SOPE  H13Y18607   3.536   2.286   9.157  0.4348 -0.6480  2.0880
  165SOPE  C31418608   3.702   2.201   9.055 -0.2059 -0.3670 -0.5868
  165SOPE  H14X18609   3.650   2.103   9.063 -2.5446  0.7795 -1.0794
  165SOPE  H14Y18610   3.809   2.183   9.079 -0.1118  1.7837  0.8801
  165SOPE  C31518611   3.687   2.250   8.908 -0.5077  0.6808  0.1565
  165SOPE  H15X18612   3.742   2.347   8.906  3.0112 -1.1590 -0.1767
  165SOPE  H15Y18613   3.580   2.265   8.884 -0.3010 -0.6499 -1.8212
  165SOPE  C31618614   3.763   2.157   8.814 -0.0368  0.6759 -1.0279
  165SOPE  H16X18615   3.707   2.061   8.816  0.4003  0.4172  0.9758
  165SOPE  H16Y18616   3.870   2.135   8.836 -0.4988 -0.9284 -0.2540
  165SOPE  C31718617   3.761   2.199   8.671  0.2970  0.0851  0.1127
  165SOPE  H17X18618   3.816   2.294   8.660 -0.9276  0.7169 -0.7763
  165SOPE  H17Y18619   3.662   2.234   8.636  1.0225  1.8242 -0.3044
  165SOPE  C31818620   3.805   2.094   8.569  0.3215 -0.0376 -0.2567
  165SOPE  H18X18621   3.722   2.023   8.552  0.9623 -0.2504 -2.9991
  165SOPE  H18Y18622   3.894   2.034   8.598 -0.1746  0.6893  3.1911
  165SOPE  H18Z18623   3.821   2.143   8.470 -0.2082 -1.0964 -0.8827
  166SOPE     N18624   6.537   2.129  10.946 -0.2087  0.2254 -1.1312
  166SOPE   HN118625   6.639   2.111  10.936 -0.2310 -0.7402  0.0787
  166SOPE   HN218626   6.509   2.217  10.993 -1.6196 -1.1567  0.8018
  166SOPE   HN318627   6.496   2.052  11.003  1.1150  0.1222 -0.2782
  166SOPE   C1218628   6.457   2.114  10.822  0.1217 -0.0090  0.1361
  166SOPE  H12A18629   6.464   2.204  10.757  1.7057 -0.1659  0.0622
  166SOPE  H12B18630   6.347   2.107  10.839 -0.0670 -1.4716 -1.4044
  166SOPE   C1118631   6.510   2.008  10.735  0.3474 -0.5690  0.6523
  166SOPE  H11A18632   6.619   2.017  10.718  0.1827  0.3354 -0.0135
  166SOPE  H11B18633   6.463   2.006  10.635 -2.1139  0.9781  1.6723
  166SOPE     P18634   6.590   1.763  10.807 -0.0675 -0.3943  0.0196
  166SOPE   O1318635   6.554   1.672  10.917  0.0236  0.1529  0.0840
  166SOPE   O1418636   6.725   1.817  10.814 -0.4574  0.0355 -0.0165
  166SOPE   O1218637   6.483   1.882  10.793 -0.2826  0.2485 -0.2165
  166SOPE   O1118638   6.558   1.700  10.671 -0.1607 -0.3488  0.3038
  166SOPE    C118639   6.661   1.666  10.574 -0.6560 -0.5332  0.0425
  166SOPE    HA18640   6.727   1.586  10.614  1.1893  0.3190 -1.1424
  166SOPE    HB18641   6.726   1.752  10.548  1.5062 -2.5916 -1.8613
  166SOPE    C218642   6.590   1.605  10.451  0.4508  0.9851 -0.3542
  166SOPE    HS18643   6.668   1.559  10.387  0.1563  0.4765 -0.3502
  166SOPE   O2118644   6.513   1.707  10.395  0.5703 -0.0826 -0.1897
  166SOPE   C2118645   6.572   1.794  10.318  0.5082  0.5736 -0.3736
  166SOPE   O2218646   6.691   1.806  10.304  0.5709  0.6900 -0.1665
  166SOPE   C2218647   6.464   1.889  10.261 -0.1710 -0.1964  0.3729
  166SOPE   H2R18648   6.471   1.983  10.320  1.6485 -0.5211  0.7285
  166SOPE   H2S18649   6.366   1.840  10.281  0.2218 -1.4541 -0.6785
  166SOPE    C318650   6.498   1.492  10.511  0.2843 -0.5738 -0.1350
  166SOPE    HX18651   6.416   1.548  10.562 -0.1952 -1.0817 -0.3322
  166SOPE    HY18652   6.556   1.437  10.588  1.3545  0.6562 -0.0303
  166SOPE   O3118653   6.441   1.401  10.418 -0.0268 -0.1694 -0.2957
  166SOPE   C3118654   6.348   1.320  10.477 -0.0705 -0.0341  0.1078
  166SOPE   O3218655   6.319   1.322  10.591 -0.1898 -0.0453 -0.0092
  166SOPE   C3218656   6.291   1.222  10.377  0.2990 -0.8593  0.1380
  166SOPE   H2X18657   6.269   1.129  10.433 -1.3071 -0.4245  0.2828
  166SOPE   H2Y18658   6.370   1.213  10.300 -1.8998  0.1259 -2.3873
  166SOPE   C2318659   6.470   1.931  10.109  0.1201  0.0227 -0.2568
  166SOPE   H3R18660   6.574   1.946  10.073  0.0687  0.1041 -0.3695
  166SOPE   H3S18661   6.428   2.033  10.103  2.3691  1.0869  0.6221
  166SOPE   C2418662   6.397   1.833  10.015  0.3600  0.5146  0.6779
  166SOPE   H4R18663   6.385   1.733  10.062 -0.2661  0.8865  1.3261
  166SOPE   H4S18664   6.297   1.877   9.995  0.0295 -0.8653 -0.9118
  166SOPE   C2518665   6.458   1.807   9.871 -0.1942  0.7651  0.2528
  166SOPE   H5R18666   6.468   1.900   9.811 -0.3131  1.0954  0.7434
  166SOPE   H5S18667   6.549   1.746   9.888 -2.1406 -1.8317  2.2248
  166SOPE   C2618668   6.366   1.724   9.787  0.9477  0.1293 -0.0745
  166SOPE   H6R18669   6.347   1.626   9.837  0.3547  0.0343 -0.4803
  166SOPE   H6S18670   6.264   1.767   9.778  0.5372 -1.0210 -1.3644
  166SOPE   C2718671   6.427   1.685   9.652  0.6466 -0.0572  0.1289
  166SOPE   H7R18672   6.427   1.766   9.576 -1.0303 -1.9641 -2.0674
  166SOPE   H7S18673   6.528   1.647   9.679  0.8019  0.4727  0.3039
  166SOPE   C2818674   6.363   1.568   9.579  0.0068  0.3603  0.3296
  166SOPE   H8R18675   6.435   1.542   9.499  1.0979 -1.0802  1.7271
  166SOPE   H8S18676   6.357   1.483   9.651 -0.2969 -0.0527 -0.1757
  166SOPE   C2918677   6.225   1.590   9.534  0.0576 -0.4385 -0.2145
  166SOPE   H9118678   6.160   1.665   9.582 -1.2092  0.2322 -2.7870
  166SOPE  C21018679   6.166   1.522   9.435 -1.0622  0.1287 -0.6424
  166SOPE  H10118680   6.066   1.548   9.398 -0.4818 -0.0258 -2.4601
  166SOPE  C21118681   6.233   1.413   9.348  0.6127 -0.0364  0.2931
  166SOPE  H11R18682   6.160   1.336   9.315  2.2410 -0.5446 -2.4725
  166SOPE  H11S18683   6.314   1.360   9.403  0.2874 -1.8964 -0.9420
  166SOPE  C21218684   6.295   1.453   9.217 -0.0800 -0.2114  1.0656
  166SOPE  H12R18685   6.351   1.364   9.182  2.1301  0.3025  3.0395
  166SOPE  H12S18686   6.370   1.527   9.252 -1.1804  0.9907  0.9478
  166SOPE  C21318687   6.202   1.520   9.113  0.3528  0.1744 -0.4491
  166SOPE  H13R18688   6.141   1.592   9.171  1.8806  0.9795  0.2166
  166SOPE  H13S18689   6.131   1.445   9.071  0.2488  0.4338 -0.7412
  166SOPE  C21418690   6.274   1.589   9.003 -0.3026 -0.0172 -0.2403
  166SOPE  H14R18691   6.369   1.533   8.989 -1.2265 -1.2716 -1.8120
  166SOPE  H14S18692   6.304   1.694   9.023 -2.2323  0.3541  0.9289
  166SOPE  C21518693   6.202   1.590   8.871  0.0800  0.6638 -0.9760
  166SOPE  H15R18694   6.106   1.641   8.888 -0.0984  0.9055 -2.5583
  166SOPE  H15S18695   6.184   1.484   8.842  0.3500 -0.0019  1.1097
  166SOPE  C21618696   6.270   1.674   8.765 -0.8929 -0.1221 -0.3886
  166SOPE  H16R18697   6.359   1.615   8.734 -1.1050 -1.2647  1.0649
  166SOPE  H16S18698   6.295   1.770   8.815 -0.1821 -0.5235  0.0536
  166SOPE  C21718699   6.175   1.684   8.645  0.1159 -0.0198  0.2003
  166SOPE  H17R18700   6.093   1.757   8.666  1.9285  2.3014 -0.4019
  166SOPE  H17S18701   6.119   1.589   8.630  1.4238 -0.7108 -0.4027
  166SOPE  C21818702   6.230   1.728   8.506 -0.9350  0.1125 -0.2369
  166SOPE  H18R18703   6.265   1.833   8.517  0.1340 -0.2703  0.1409
  166SOPE  H18S18704   6.155   1.720   8.424  0.0776 -1.2320 -1.0810
  166SOPE  H18T18705   6.323   1.670   8.482 -2.7767 -2.1214 -2.5765
  166SOPE   C3318706   6.164   1.288  10.312 -0.9105  0.8798  1.3363
  166SOPE   H3X18707   6.181   1.391  10.274  0.4036  0.5041  0.8398
  166SOPE   H3Y18708   6.093   1.311  10.394  1.1934 -0.0705  3.5474
  166SOPE   C3418709   6.076   1.201  10.214 -0.3103 -0.0437  0.5230
  166SOPE   H4X18710   5.992   1.270  10.188  0.5019  0.9021  0.3340
  166SOPE   H4Y18711   6.043   1.108  10.265  1.4849  0.3454  2.5484
  166SOPE   C3518712   6.151   1.168  10.081  0.5902 -0.7175 -0.4669
  166SOPE   H5X18713   6.075   1.128  10.010 -0.9296  0.7324  0.2768
  166SOPE   H5Y18714   6.227   1.090  10.101 -0.5553 -1.8636 -0.4630
  166SOPE   C3618715   6.220   1.287  10.027  0.4949 -1.2202 -0.2007
  166SOPE   H6X18716   6.303   1.311  10.097  0.9692 -2.0144 -0.4793
  166SOPE   H6Y18717   6.156   1.377  10.020  0.1388 -1.5282 -1.0158
  166SOPE   C3718718   6.280   1.257   9.891  0.0221  0.1202  0.1811
  166SOPE   H7X18719   6.330   1.346   9.847  1.6353 -0.9168 -0.1768
  166SOPE   H7Y18720   6.194   1.224   9.829 -0.0426 -1.5568  1.0983
  166SOPE   C3818721   6.392   1.141   9.901  0.4037 -0.1263  0.2673
  166SOPE   H8X18722   6.339   1.053   9.943  2.3419 -0.3036  2.5064
  166SOPE   H8Y18723   6.462   1.175   9.980  1.2518  2.7685 -1.5829
  166SOPE   C3918724   6.459   1.132   9.770 -0.2271  0.6030  0.6635
  166SOPE   H9X18725   6.554   1.075   9.778  0.5285  1.7548  0.0625
  166SOPE   H9Y18726   6.480   1.236   9.737 -0.3185  0.4679  0.1695
  166SOPE  C31018727   6.367   1.070   9.664  0.2541  0.0278  0.3196
  166SOPE  H10X18728   6.281   1.137   9.643  0.3701 -0.8509 -3.9647
  166SOPE  H10Y18729   6.337   0.970   9.699  2.3208 -0.2187  1.5321
  166SOPE  C31118730   6.444   1.062   9.534 -0.7386 -0.3050  0.2238
  166SOPE  H11X18731   6.535   0.999   9.551  0.3881  1.0457 -0.6075
  166SOPE  H11Y18732   6.471   1.166   9.507  0.9318 -0.0094  2.7122
  166SOPE  C31218733   6.372   1.008   9.413 -0.1672 -0.4829  0.5056
  166SOPE  H12X18734   6.268   1.047   9.418 -0.2580 -0.3451 -1.4025
  166SOPE  H12Y18735   6.360   0.898   9.413 -1.1085 -0.4198 -0.9424
  166SOPE  C31318736   6.427   1.061   9.280  0.6730 -0.5583  0.2269
  166SOPE  H13X18737   6.532   1.026   9.270  1.1969  1.0489 -0.1047
  166SOPE  H13Y18738   6.427   1.172   9.282  1.7963 -0.5603  1.8196
  166SOPE  C31418739   6.346   1.011   9.158  0.0314  0.0421  0.0299
  166SOPE  H14X18740   6.253   1.073   9.153  0.0198 -0.0946 -2.3416
  166SOPE  H14Y18741   6.318   0.905   9.172 -1.0638  0.1665 -1.1105
  166SOPE  C31518742   6.423   1.030   9.027  0.1201 -0.2000  0.6991
  166SOPE  H15X18743   6.519   0.975   9.021  0.3907  0.4208 -1.9821
  166SOPE  H15Y18744   6.435   1.137   9.002 -1.0938 -0.2998 -0.4211
  166SOPE  C31618745   6.335   0.979   8.913  0.6204  0.9201  0.4433
  166SOPE  H16X18746   6.305   0.874   8.930  0.2691  1.0020  0.3370
  166SOPE  H16Y18747   6.390   0.998   8.818 -0.5010  0.6942 -0.2691
  166SOPE  C31718748   6.191   1.050   8.904  0.0746  0.4705  0.0165
  166SOPE  H17X18749   6.127   1.024   8.991  0.1955  1.5145  0.4266
  166SOPE  H17Y18750   6.142   1.000   8.818 -1.7332  0.1254  1.1926
  166SOPE  C31818751   6.193   1.200   8.888 -0.0269  0.7262  0.5707
  166SOPE  H18X18752   6.269   1.231   8.813 -1.5349 -1.5978 -2.1194
  166SOPE  H18Y18753   6.193   1.242   8.991 -0.0732 -1.5825  1.5664
  166SOPE  H18Z18754   6.112   1.247   8.829  1.4605  0.0647 -2.1914
  167SOPE     N18755   5.330   3.659   5.845  0.2147  0.4890  0.3981
  167SOPE   HN118756   5.401   3.735   5.844  1.4008 -0.5746  0.6081
  167SOPE   HN218757   5.367   3.574   5.797 -0.5696  0.4487 -0.1739
  167SOPE   HN318758   5.261   3.693   5.774 -2.2293 -0.9208  1.9738
  167SOPE   C1218759   5.243   3.638   5.966 -0.1400  0.5177  0.9273
  167SOPE  H12A18760   5.313   3.586   6.035  0.7438  0.3008 -0.1085
  167SOPE  H12B18761   5.166   3.565   5.931  0.2256  0.5066  0.1366
  167SOPE   C1118762   5.185   3.766   6.020 -0.4596  0.8770  0.4729
  167SOPE  H11A18763   5.161   3.744   6.126 -0.7812  0.6932  0.3614
  167SOPE  H11B18764   5.093   3.789   5.962 -0.9791 -1.1406  0.4289
  167SOPE     P18765   5.370   3.901   6.150  0.1609 -0.1859 -0.1378
  167SOPE   O1318766   5.410   4.045   6.135 -0.3791  0.3518  0.1034
  167SOPE   O1418767   5.478   3.799   6.157  0.0961  0.2756 -0.8959
  167SOPE   O1218768   5.279   3.868   6.018 -0.2427 -0.4251 -0.1852
  167SOPE   O1118769   5.267   3.891   6.269  0.3447  0.4304  0.4174
  167SOPE    C118770   5.320   3.931   6.394 -0.0690 -0.1237 -0.3301
  167SOPE    HA18771   5.404   3.863   6.419 -0.1361 -1.0514 -2.4366
  167SOPE    HB18772   5.249   3.895   6.471 -1.1084  0.3227 -1.0524
  167SOPE    C218773   5.342   4.082   6.429 -0.0098  0.3443 -0.0462
  167SOPE    HS18774   5.408   4.137   6.358  1.5792  0.1282  1.1980
  167SOPE   O2118775   5.403   4.086   6.558 -0.6566  0.2820  0.3802
  167SOPE   C2118776   5.468   4.201   6.585 -0.1723 -1.1689 -0.6797
  167SOPE   O2218777   5.474   4.297   6.505 -0.2431  0.0210  0.2773
  167SOPE   C2218778   5.520   4.197   6.725 -0.6007  0.1932 -0.3258
  167SOPE   H2R18779   5.609   4.131   6.732 -0.3305  0.7026  1.3873
  167SOPE   H2S18780   5.444   4.165   6.800 -0.8281  0.2126 -0.5478
  167SOPE    C318781   5.210   4.158   6.432  0.0471  0.0749 -0.4372
  167SOPE    HX18782   5.161   4.146   6.333  1.3360  3.6362 -1.6342
  167SOPE    HY18783   5.220   4.268   6.438  0.0753  0.0122  0.7280
  167SOPE   O3118784   5.111   4.104   6.527  0.3436  0.2006 -0.2026
  167SOPE   C3118785   5.109   4.143   6.653  0.3740  0.0417  0.6360
  167SOPE   O3218786   5.187   4.226   6.700  0.3916  0.1144 -0.2933
  167SOPE   C3218787   5.016   4.059   6.742 -0.0788  0.0235 -0.8397
  167SOPE   H2X18788   5.016   3.955   6.701 -1.7071  0.3033 -1.6594
  167SOPE   H2Y18789   4.911   4.095   6.741 -0.9201 -2.1832 -2.7631
  167SOPE   C2318790   5.562   4.343   6.770 -0.2685 -0.9087  0.2984
  167SOPE   H3R18791   5.484   4.417   6.740  1.2641  0.7609  0.2212
  167SOPE   H3S18792   5.651   4.375   6.711 -0.6206 -1.7633 -0.7277
  167SOPE   C2418793   5.586   4.340   6.919  0.6945  0.9813  0.1816
  167SOPE   H4R18794   5.497   4.311   6.978  0.3497  3.8323  1.2387
  167SOPE   H4S18795   5.664   4.264   6.941 -1.0901 -0.4239  2.0021
  167SOPE   C2518796   5.644   4.468   6.978 -0.7297  0.3023  0.1994
  167SOPE   H5R18797   5.741   4.499   6.932 -1.8172  2.0411 -1.0550
  167SOPE   H5S18798   5.578   4.556   6.961  1.0224  1.4708 -0.9344
  167SOPE   C2618799   5.686   4.448   7.128 -0.7499 -0.0870 -0.3398
  167SOPE   H6R18800   5.596   4.440   7.193  0.3712  2.5732  1.7227
  167SOPE   H6S18801   5.749   4.357   7.139 -0.9727 -0.1956  0.0603
  167SOPE   C2718802   5.774   4.570   7.184  0.3788 -0.3701  0.2928
  167SOPE   H7R18803   5.869   4.572   7.126 -1.0070  1.5846 -2.1020
  167SOPE   H7S18804   5.715   4.660   7.159 -1.2610 -1.4950 -0.0385
  167SOPE   C2818805   5.806   4.570   7.329  0.1660 -0.2850  0.3841
  167SOPE   H8R18806   5.863   4.476   7.343  0.1034 -0.3438  0.2511
  167SOPE   H8S18807   5.880   4.651   7.348  1.5160 -1.0634 -1.2886
  167SOPE   C2918808   5.684   4.585   7.412 -0.0175 -0.4033 -0.5596
  167SOPE   H9118809   5.616   4.666   7.381  1.1095  1.4072  1.4188
  167SOPE  C21018810   5.639   4.513   7.515 -0.3484  0.3459  0.0304
  167SOPE  H10118811   5.546   4.545   7.565 -0.0078 -0.3502  1.1351
  167SOPE  C21118812   5.702   4.399   7.581  0.4709 -0.3817 -0.5563
  167SOPE  H11R18813   5.784   4.348   7.526  1.3035 -1.3009  1.4128
  167SOPE  H11S18814   5.635   4.313   7.600  0.3270 -0.2525 -0.4822
  167SOPE  C21218815   5.757   4.451   7.724  0.2755  0.3510 -0.1382
  167SOPE  H12R18816   5.806   4.549   7.706  1.8947 -0.5499 -0.8881
  167SOPE  H12S18817   5.834   4.383   7.766 -3.4173 -3.5388  1.0269
  167SOPE  C21318818   5.654   4.458   7.838  0.0006  0.0225 -0.2481
  167SOPE  H13R18819   5.596   4.364   7.845  1.1877 -0.8385 -1.5357
  167SOPE  H13S18820   5.586   4.540   7.807 -0.6266 -0.0379  0.8931
  167SOPE  C21418821   5.708   4.491   7.976  1.1304 -0.4305 -0.1408
  167SOPE  H14R18822   5.800   4.431   7.991  1.0884  0.0159  2.2221
  167SOPE  H14S18823   5.648   4.462   8.065  2.7487 -0.0948  1.0927
  167SOPE  C21518824   5.737   4.645   8.002  0.2798 -0.1212 -0.3239
  167SOPE  H15R18825   5.645   4.706   8.017 -0.8186 -1.8134  0.0617
  167SOPE  H15S18826   5.805   4.676   7.920  0.7831  0.5918  0.3458
  167SOPE  C21618827   5.806   4.657   8.137  0.0591  0.4735  0.0337
  167SOPE  H16R18828   5.843   4.761   8.148  0.7358  0.2952 -0.4637
  167SOPE  H16S18829   5.899   4.595   8.139 -0.9606 -1.0992 -0.0713
  167SOPE  C21718830   5.714   4.639   8.258 -0.0060  0.5430  0.6567
  167SOPE  H17R18831   5.710   4.531   8.284 -0.0145  0.8027  1.7644
  167SOPE  H17S18832   5.611   4.671   8.235  0.0153  0.1212 -0.0518
  167SOPE  C21818833   5.758   4.708   8.390 -0.4210  0.3203  0.3725
  167SOPE  H18R18834   5.867   4.726   8.395 -0.6514  2.2791 -0.7603
  167SOPE  H18S18835   5.728   4.637   8.471 -0.0146 -0.6578 -0.3133
  167SOPE  H18T18836   5.705   4.802   8.416 -3.5034 -1.4111  0.9193
  167SOPE   C3318837   5.082   4.052   6.885  0.9787 -0.0778 -0.2668
  167SOPE   H3X18838   5.145   4.139   6.915  0.8402  0.0844 -0.4437
  167SOPE   H3Y18839   5.146   3.962   6.882  2.8217  1.0525  1.6371
  167SOPE   C3418840   4.978   4.026   6.998  0.1680  0.2858 -0.3228
  167SOPE   H4X18841   4.924   3.935   6.962 -2.3430  2.6628 -3.1376
  167SOPE   H4Y18842   4.898   4.103   7.005  0.0851  0.1662  0.0835
  167SOPE   C3518843   5.041   4.006   7.132  0.5922  0.4603  0.2406
  167SOPE   H5X18844   5.063   4.104   7.180 -1.1925  1.3307 -0.6105
  167SOPE   H5Y18845   5.137   3.953   7.116 -0.1330 -1.6684  2.3158
  167SOPE   C3618846   4.965   3.901   7.221  0.2072 -0.0774 -0.7701
  167SOPE   H6X18847   5.004   3.797   7.220  1.2261  0.2695  0.0185
  167SOPE   H6Y18848   4.859   3.880   7.197 -0.7151  0.8270  2.0921
  167SOPE   C3718849   4.977   3.946   7.368  0.4017  0.1740  0.3748
  167SOPE   H7X18850   4.958   4.053   7.388 -3.3468 -0.7317  2.6588
  167SOPE   H7Y18851   5.084   3.936   7.394  0.9630  2.6560 -0.7309
  167SOPE   C3818852   4.892   3.866   7.461 -1.3593  0.2720 -0.3097
  167SOPE   H8X18853   4.915   3.761   7.433  1.9590  0.8442 -0.2131
  167SOPE   H8Y18854   4.785   3.882   7.438 -1.3803  0.4364 -0.1064
  167SOPE   C3918855   4.914   3.877   7.616 -0.0079 -0.3085  0.0546
  167SOPE   H9X18856   5.021   3.856   7.637 -0.4383 -0.7805  1.9584
  167SOPE   H9Y18857   4.855   3.794   7.662  0.7771 -1.7291 -1.4074
  167SOPE  C31018858   4.860   4.004   7.676 -0.4702  0.0246  0.5573
  167SOPE  H10X18859   4.749   4.013   7.677 -0.3496  2.3757  0.2092
  167SOPE  H10Y18860   4.892   4.090   7.613  0.9897 -1.9893 -1.6101
  167SOPE  C31118861   4.897   4.015   7.825 -0.3180  0.1495  0.1781
  167SOPE  H11X18862   4.870   4.119   7.853  0.3151  0.9096 -1.8326
  167SOPE  H11Y18863   5.007   4.006   7.834 -0.4465 -2.0545  0.1637
  167SOPE  C31218864   4.838   3.912   7.915  0.2727 -0.0815 -0.7021
  167SOPE  H12X18865   4.896   3.817   7.931  2.2577  1.1708 -0.0192
  167SOPE  H12Y18866   4.739   3.869   7.891 -0.6822  0.4904  1.8769
  167SOPE  C31318867   4.813   3.955   8.065  0.2769 -0.9683  0.0076
  167SOPE  H13X18868   4.753   3.874   8.112  0.9998 -1.7233 -0.3455
  167SOPE  H13Y18869   4.739   4.038   8.064  0.6878 -0.5999  0.4477
  167SOPE  C31418870   4.937   3.981   8.148  0.0857 -0.9692  0.2311
  167SOPE  H14X18871   5.005   4.052   8.097 -1.2957  1.2154  1.3098
  167SOPE  H14Y18872   4.971   3.875   8.159  0.3210 -0.8253  0.9710
  167SOPE  C31518873   4.909   4.027   8.290  0.0119 -0.1453 -0.0390
  167SOPE  H15X18874   4.819   3.984   8.338 -0.9836 -0.4578 -2.0564
  167SOPE  H15Y18875   4.900   4.137   8.272  1.3136 -0.3075 -2.0381
  167SOPE  C31618876   5.031   4.005   8.385 -0.1135 -0.3014  0.4225
  167SOPE  H16X18877   5.123   4.053   8.344  0.4225  1.1124  3.1129
  167SOPE  H16Y18878   5.058   3.897   8.394 -1.0990 -0.7680 -1.5793
  167SOPE  C31718879   5.020   4.093   8.508 -0.4824  0.2535  0.1521
  167SOPE  H17X18880   4.927   4.063   8.561 -1.3805  0.2465 -1.3771
  167SOPE  H17Y18881   5.000   4.197   8.475 -1.2981 -0.1384 -0.6094
  167SOPE  C31818882   5.141   4.083   8.601  0.6111  0.1190  0.4116
  167SOPE  H18X18883   5.222   4.137   8.546 -0.6192  2.3413  0.6320
  167SOPE  H18Y18884   5.166   3.978   8.625 -0.9648  0.0368  1.8302
  167SOPE  H18Z18885   5.123   4.142   8.693  0.9578  0.7255  0.1021
  168SOPE     N18886   6.087   3.052   6.279 -0.2105  0.3396 -0.0288
  168SOPE   HN118887   6.106   3.136   6.221 -0.5610 -0.5298 -1.4711
  168SOPE   HN218888   6.147   3.056   6.364 -0.4567  0.8074  0.1238
  168SOPE   HN318889   6.128   2.974   6.224 -1.5170 -1.0750  0.9319
  168SOPE   C1218890   5.943   3.054   6.319 -0.3689  0.6039  0.2366
  168SOPE  H12A18891   5.885   3.045   6.225  0.7130 -0.3169 -0.3655
  168SOPE  H12B18892   5.926   3.157   6.357 -1.2579  0.3995  0.4275
  168SOPE   C1118893   5.902   2.940   6.413 -0.3895 -0.1695 -0.2142
  168SOPE  H11A18894   5.792   2.948   6.421 -0.5325  1.1283 -2.7924
  168SOPE  H11B18895   5.956   2.943   6.511 -1.0294 -1.2152  0.1891
  168SOPE     P18896   5.844   2.695   6.342 -0.3297  0.1591 -0.5098
  168SOPE   O1318897   5.902   2.591   6.250 -0.3389  0.3746 -0.0785
  168SOPE   O1418898   5.709   2.746   6.305  0.1567 -0.4034 -0.3130
  168SOPE   O1218899   5.950   2.816   6.356 -0.5088 -0.0099 -0.2955
  168SOPE   O1118900   5.838   2.641   6.491  0.1734  0.3111  0.1691
  168SOPE    C118901   5.952   2.576   6.545  0.2499 -0.2963 -0.1712
  168SOPE    HA18902   6.051   2.622   6.523 -0.0194  0.7694  0.8015
  168SOPE    HB18903   5.955   2.472   6.504 -3.2724 -0.3745 -0.4762
  168SOPE    C218904   5.946   2.560   6.703  0.4858 -0.3481  0.5013
  168SOPE    HS18905   6.041   2.510   6.735  0.1313 -0.2764  1.7393
  168SOPE   O2118906   5.822   2.488   6.742  0.0621  0.2566  0.2590
  168SOPE   C2118907   5.817   2.353   6.723 -0.5171 -0.1484  0.7242
  168SOPE   O2218908   5.909   2.292   6.674 -0.5287 -0.4954  0.1742
  168SOPE   C2218909   5.679   2.299   6.773 -0.2143 -1.0054  0.5466
  168SOPE   H2R18910   5.616   2.304   6.682 -1.0250 -1.2101  1.0879
  168SOPE   H2S18911   5.642   2.372   6.848 -0.8005 -0.4979 -0.2271
  168SOPE    C318912   5.965   2.696   6.779 -0.3744  0.6851  0.5578
  168SOPE    HX18913   5.890   2.774   6.755  0.9867  2.0151  0.4670
  168SOPE    HY18914   6.062   2.733   6.741  0.0614  0.6102  1.5555
  168SOPE   O3118915   5.968   2.675   6.921  0.0412 -0.1112 -0.0471
  168SOPE   C3118916   5.850   2.667   6.990  0.3559 -1.0832 -0.3566
  168SOPE   O3218917   5.740   2.684   6.934 -0.4496 -0.2769 -0.7520
  168SOPE   C3218918   5.875   2.624   7.130 -0.4636  0.6066 -0.1039
  168SOPE   H2X18919   5.976   2.659   7.161  0.4112 -0.7679 -1.2555
  168SOPE   H2Y18920   5.886   2.514   7.121 -0.0117  0.6482 -0.0673
  168SOPE   C2318921   5.696   2.152   6.815 -0.3599 -0.0302 -0.1871
  168SOPE   H3R18922   5.786   2.099   6.777 -1.0626  0.2154 -2.3360
  168SOPE   H3S18923   5.616   2.089   6.772 -0.7405  0.8273 -0.7496
  168SOPE   C2418924   5.677   2.133   6.965 -0.0423  0.3647 -0.5175
  168SOPE   H4R18925   5.583   2.187   6.988  0.0308 -0.0007  0.7058
  168SOPE   H4S18926   5.663   2.026   6.990 -2.2895  0.5752 -0.6882
  168SOPE   C2518927   5.794   2.188   7.046  0.5272 -0.8244 -0.1216
  168SOPE   H5R18928   5.886   2.153   6.997  0.1057 -2.2876  0.0920
  168SOPE   H5S18929   5.782   2.298   7.034 -0.0097 -0.8790 -0.1227
  168SOPE   C2618930   5.799   2.144   7.193  0.2994 -0.1788 -0.2318
  168SOPE   H6R18931   5.780   2.035   7.201 -0.8334  0.0100 -0.1832
  168SOPE   H6S18932   5.903   2.156   7.230  0.9986 -1.3139 -1.7379
  168SOPE   C2718933   5.693   2.206   7.277  0.5450  0.3218 -0.4904
  168SOPE   H7R18934   5.680   2.316   7.266  1.1050  0.3907 -0.5144
  168SOPE   H7S18935   5.601   2.156   7.241  0.1244  1.0450 -0.4419
  168SOPE   C2818936   5.723   2.184   7.431 -0.1420 -0.4661  0.1717
  168SOPE   H8R18937   5.815   2.242   7.455 -1.6593  1.6372  1.1940
  168SOPE   H8S18938   5.650   2.241   7.492  0.6475 -2.3595  3.1435
  168SOPE   C2918939   5.716   2.047   7.495 -0.0056  0.0522  0.7436
  168SOPE   H9118940   5.643   1.987   7.438 -2.5613  3.0288  0.5734
  168SOPE  C21018941   5.783   2.008   7.606  0.5401 -0.9101  0.4222
  168SOPE  H10118942   5.775   1.906   7.645  2.4817 -1.6967 -1.0682
  168SOPE  C21118943   5.878   2.089   7.686  0.1928 -0.8395 -0.5090
  168SOPE  H11R18944   5.821   2.177   7.724  1.4059 -0.9883  1.7884
  168SOPE  H11S18945   5.951   2.142   7.622 -0.7670  0.4929 -0.5442
  168SOPE  C21218946   5.948   2.018   7.803  0.5140 -0.4333 -0.0741
  168SOPE  H12R18947   6.026   2.086   7.844  0.1557 -0.1996  0.2292
  168SOPE  H12S18948   5.997   1.925   7.768 -0.1086 -0.5364 -0.6927
  168SOPE  C21318949   5.839   1.972   7.901 -0.3095  0.2750 -0.5535
  168SOPE  H13R18950   5.801   1.877   7.858 -1.0588  0.8249 -1.1289
  168SOPE  H13S18951   5.756   2.046   7.903  1.0852  1.9061 -0.4494
  168SOPE  C21418952   5.897   1.941   8.037 -0.7147  0.7807 -0.4919
  168SOPE  H14R18953   5.934   2.032   8.089  2.4210 -1.2790  1.2020
  168SOPE  H14S18954   5.984   1.873   8.035 -1.1689  0.0182  2.2584
  168SOPE  C21518955   5.800   1.862   8.134  0.3370 -0.3342 -0.2442
  168SOPE  H15R18956   5.787   1.764   8.083  1.6369 -0.8944  0.4445
  168SOPE  H15S18957   5.705   1.920   8.143 -0.5670 -1.5615 -1.4770
  168SOPE  C21618958   5.856   1.845   8.269  0.1285  0.3047 -0.4698
  168SOPE  H16R18959   5.880   1.948   8.303  2.4377 -0.4861  0.5511
  168SOPE  H16S18960   5.950   1.786   8.267 -0.0369 -0.0668  1.2806
  168SOPE  C21718961   5.765   1.784   8.370 -0.2591  0.4558 -0.2812
  168SOPE  H17R18962   5.696   1.718   8.313  2.1871 -2.0479 -0.5805
  168SOPE  H17S18963   5.706   1.862   8.423  0.8265 -0.2638  2.1473
  168SOPE  C21818964   5.833   1.703   8.480 -0.5997 -0.0295 -0.1264
  168SOPE  H18R18965   5.880   1.613   8.435  1.9500  1.2052 -0.1329
  168SOPE  H18S18966   5.758   1.664   8.552  0.4669  0.7867  1.4980
  168SOPE  H18T18967   5.897   1.770   8.541 -2.0683 -0.2675  1.7764
  168SOPE   C3318968   5.761   2.657   7.229  0.2161 -0.4369 -0.4458
  168SOPE   H3X18969   5.670   2.594   7.219  0.3602 -0.6168 -0.6213
  168SOPE   H3Y18970   5.734   2.765   7.224 -0.1184 -0.4225  1.1073
  168SOPE   C3418971   5.815   2.629   7.371 -0.0241 -0.3873 -0.3435
  168SOPE   H4X18972   5.913   2.683   7.375  0.1469 -0.7538  2.7293
  168SOPE   H4Y18973   5.841   2.522   7.382  0.3991 -0.0595  3.0417
  168SOPE   C3518974   5.725   2.693   7.476  0.7937  0.1924  0.1232
  168SOPE   H5X18975   5.619   2.688   7.444  0.3135  0.7419  1.5570
  168SOPE   H5Y18976   5.744   2.802   7.478 -1.3242  0.6227  3.1455
  168SOPE   C3618977   5.739   2.632   7.623  0.2390  0.3325  0.7975
  168SOPE   H6X18978   5.840   2.632   7.670  1.1678 -0.5516 -1.0989
  168SOPE   H6Y18979   5.712   2.525   7.610  0.4685  0.4009 -0.3202
  168SOPE   C3718980   5.627   2.681   7.717  0.0278 -0.0367 -0.7294
  168SOPE   H7X18981   5.524   2.666   7.678 -0.4542  0.0347  0.4573
  168SOPE   H7Y18982   5.639   2.792   7.720  3.1601 -0.2642  3.0289
  168SOPE   C3818983   5.621   2.641   7.866 -0.3023 -0.1835 -0.5033
  168SOPE   H8X18984   5.713   2.678   7.916 -0.2031 -0.7005 -0.3040
  168SOPE   H8Y18985   5.624   2.530   7.873  2.8477 -0.4220 -3.0401
  168SOPE   C3918986   5.504   2.710   7.933 -0.2448  0.3681 -0.2547
  168SOPE   H9X18987   5.407   2.677   7.890  0.2768 -2.4152  0.4881
  168SOPE   H9Y18988   5.520   2.815   7.902  0.3396 -0.1306 -1.7293
  168SOPE  C31018989   5.507   2.694   8.089 -0.3931 -0.3403 -0.1312
  168SOPE  H10X18990   5.584   2.761   8.133 -0.3893 -0.1125 -0.4773
  168SOPE  H10Y18991   5.519   2.587   8.116 -2.4537 -0.7267 -0.5212
  168SOPE  C31118992   5.365   2.723   8.147 -0.2187  0.1114 -0.0569
  168SOPE  H11X18993   5.336   2.826   8.118  2.7639  0.6951 -1.3477
  168SOPE  H11Y18994   5.383   2.720   8.257 -0.0881 -0.6871 -0.0905
  168SOPE  C31218995   5.258   2.620   8.111  0.4604  0.3320  0.5574
  168SOPE  H12X18996   5.288   2.520   8.149 -0.3713 -0.5168 -0.8808
  168SOPE  H12Y18997   5.247   2.621   8.000 -0.2591 -1.2721  0.5827
  168SOPE  C31318998   5.115   2.652   8.169  0.0619 -0.1393  0.4202
  168SOPE  H13X18999   5.050   2.563   8.154 -0.1121  0.3713 -2.1884
  168SOPE  H13Y19000   5.071   2.741   8.119  0.2902 -0.6252 -0.6732
  168SOPE  C31419001   5.114   2.678   8.317  0.4885  0.3240  1.1592
  168SOPE  H14X19002   5.157   2.777   8.341  0.0685  0.9355 -0.5133
  168SOPE  H14Y19003   5.165   2.595   8.372  0.8700  1.6967  2.9860
  168SOPE  C31519004   4.969   2.688   8.363 -0.1262  0.2964  0.0238
  168SOPE  H15X19005   4.921   2.588   8.358  0.6564 -0.0412 -1.2860
  168SOPE  H15Y19006   4.902   2.758   8.309 -1.0218  0.1272  0.8778
  168SOPE  C31619007   4.953   2.742   8.511 -0.1588  0.0049 -0.3191
  168SOPE  H16X19008   4.978   2.850   8.509 -0.4180  0.0664 -0.3092
  168SOPE  H16Y19009   5.026   2.691   8.577 -1.3015 -0.3741  0.6797
  168SOPE  C31719010   4.805   2.740   8.561 -0.4549  0.6053  0.5170
  168SOPE  H17X19011   4.774   2.634   8.575  0.6032  0.2902  0.5104
  168SOPE  H17Y19012   4.739   2.773   8.478  1.3903  0.1362 -1.2191
  168SOPE  C31819013   4.782   2.824   8.681 -0.5096  0.2159 -0.1719
  168SOPE  H18X19014   4.772   2.925   8.637  0.6407  0.6503  0.5329
  168SOPE  H18Y19015   4.853   2.813   8.766 -3.1306 -2.7125  1.8876
  168SOPE  H18Z19016   4.685   2.792   8.725  0.3448 -0.0135  1.6229
  169SOPE     N19017   0.038   4.388   6.221 -0.0243 -0.1051  0.1582
  169SOPE   HN119018   0.082   4.322   6.287 -0.9150 -0.0411  0.8366
  169SOPE   HN219019   0.083   4.482   6.229 -1.0707  0.2140  3.4286
  169SOPE   HN319020  -0.056   4.412   6.258  0.4392 -1.8747  2.7556
  169SOPE   C1219021   0.002   4.332   6.085  0.3942  0.0296  0.3795
  169SOPE  H12A19022   0.097   4.293   6.043 -0.4339 -3.1422  1.2114
  169SOPE  H12B19023  -0.046   4.408   6.020 -0.1420  0.5943  1.3966
  169SOPE   C1119024  -0.082   4.202   6.101  0.1073 -0.1060  1.2298
  169SOPE  H11A19025  -0.088   4.163   5.997 -0.1401 -0.8773  1.5217
  169SOPE  H11B19026  -0.189   4.221   6.122 -1.5143 -3.1276 -2.9607
  169SOPE     P19027  -0.061   3.966   6.207 -0.0076  0.4964  0.3566
  169SOPE   O1319028   0.022   3.893   6.313 -0.2571 -0.5000  0.1349
  169SOPE   O1419029  -0.072   3.899   6.079  0.6687 -0.2594 -0.0555
  169SOPE   O1219030  -0.017   4.114   6.189 -0.1007  0.3398 -0.1519
  169SOPE   O1119031  -0.212   3.984   6.256 -0.7568  0.3401 -0.0487
  169SOPE    C119032  -0.241   4.090   6.348  0.7016  0.1312 -0.4498
  169SOPE    HA19033  -0.343   4.130   6.336  0.3960  0.0859  1.6438
  169SOPE    HB19034  -0.172   4.178   6.342  0.5755  0.1855 -1.1742
  169SOPE    C219035  -0.223   4.029   6.491  0.4526  0.0998 -0.3152
  169SOPE    HS19036  -0.132   3.965   6.488  0.4116 -0.0430  0.9118
  169SOPE   O2119037  -0.347   3.962   6.531 -0.2718 -0.5910 -0.0167
  169SOPE   C2119038  -0.338   3.843   6.579 -0.2379  0.4141 -0.4445
  169SOPE   O2219039  -0.244   3.770   6.596  0.5584 -0.4818 -0.3266
  169SOPE   C2219040  -0.473   3.816   6.639  0.2756  0.4632  0.1883
  169SOPE   H2R19041  -0.497   3.707   6.644  1.4942  0.0827 -1.3880
  169SOPE   H2S19042  -0.557   3.862   6.582 -0.8604 -2.5930 -0.8150
  169SOPE    C319043  -0.187   4.137   6.598  0.0552 -1.2197 -0.1331
  169SOPE    HX19044  -0.269   4.211   6.602 -0.9091 -2.2823 -0.0072
  169SOPE    HY19045  -0.104   4.202   6.560 -0.1306  0.1650  1.6481
  169SOPE   O3119046  -0.159   4.090   6.735 -0.6588 -0.7716  0.1624
  169SOPE   C3119047  -0.042   4.038   6.753 -0.4148  0.4712 -0.0442
  169SOPE   O3219048   0.043   4.010   6.672  0.7131  0.2357 -0.2923
  169SOPE   C3219049  -0.027   4.001   6.900  0.6020 -0.3752  0.0557
  169SOPE   H2X19050  -0.046   3.895   6.924 -3.5454  0.2486  0.1620
  169SOPE   H2Y19051  -0.102   4.062   6.955  1.1055  1.1396 -0.8520
  169SOPE   C2319052  -0.482   3.889   6.781  0.7178 -0.3980  0.7793
  169SOPE   H3R19053  -0.585   3.902   6.820  1.3755  2.6259  1.7392
  169SOPE   H3S19054  -0.449   3.995   6.779 -0.9414  0.1621  1.3599
  169SOPE   C2419055  -0.391   3.815   6.888  0.1425 -0.4660  0.4429
  169SOPE   H4R19056  -0.417   3.708   6.898  0.4101 -0.6494 -0.7142
  169SOPE   H4S19057  -0.285   3.833   6.861 -0.5237 -0.3110 -2.4028
  169SOPE   C2519058  -0.420   3.879   7.028  0.1115  0.2504 -0.8486
  169SOPE   H5R19059  -0.447   3.986   7.025 -0.2045  0.1551 -1.7274
  169SOPE   H5S19060  -0.510   3.834   7.075  1.2689 -0.0253  1.2103
  169SOPE   C2619061  -0.311   3.848   7.128 -0.0683 -0.0676 -0.4079
  169SOPE   H6R19062  -0.296   3.739   7.140  0.6864  0.0228 -0.4783
  169SOPE   H6S19063  -0.211   3.884   7.096  0.0516  0.7860  0.8515
  169SOPE   C2719064  -0.344   3.900   7.279 -0.2200  0.3368 -0.1822
  169SOPE   H7R19065  -0.343   4.011   7.279  0.5449  0.3564  1.0231
  169SOPE   H7S19066  -0.445   3.863   7.306  0.7166 -1.0951  1.5282
  169SOPE   C2819067  -0.242   3.841   7.380  0.3022  0.1444  0.3339
  169SOPE   H8R19068  -0.251   3.730   7.372  0.2550  0.1003  0.9217
  169SOPE   H8S19069  -0.144   3.851   7.330 -0.2004  1.2299 -0.4759
  169SOPE   C2919070  -0.236   3.906   7.515 -0.2402 -0.7558  0.4173
  169SOPE   H9119071  -0.202   4.011   7.511 -2.0060 -0.1496  0.5016
  169SOPE  C21019072  -0.272   3.856   7.629  0.2493  0.1552  0.2275
  169SOPE  H10119073  -0.261   3.919   7.719 -0.4090  0.5664  0.0275
  169SOPE  C21119074  -0.333   3.722   7.659  0.0521 -0.1176 -0.5425
  169SOPE  H11R19075  -0.280   3.662   7.736  0.3011  0.9430  0.1320
  169SOPE  H11S19076  -0.326   3.658   7.568 -0.3855 -1.1689  0.1353
  169SOPE  C21219077  -0.478   3.723   7.694 -0.3695 -0.0475  0.8959
  169SOPE  H12R19078  -0.512   3.624   7.655  1.2782 -0.6586  0.8983
  169SOPE  H12S19079  -0.533   3.805   7.644  1.6772  0.2518 -1.0422
  169SOPE  C21319080  -0.512   3.731   7.842 -0.0719  0.1527  0.3259
  169SOPE  H13R19081  -0.473   3.650   7.908 -0.8159 -0.0772  0.4981
  169SOPE  H13S19082  -0.620   3.707   7.851  0.5297 -2.9327  0.5153
  169SOPE  C21419083  -0.473   3.862   7.909 -0.2407 -0.9744  0.0189
  169SOPE  H14R19084  -0.507   3.945   7.843 -1.3141 -1.3880  0.0356
  169SOPE  H14S19085  -0.362   3.865   7.914 -0.2831  1.4966  1.3870
  169SOPE  C21519086  -0.519   3.873   8.054 -0.8221  0.2057 -0.5144
  169SOPE  H15R19087  -0.494   3.774   8.097  0.5235 -0.4124 -2.5673
  169SOPE  H15S19088  -0.630   3.866   8.059 -0.8250 -0.3826 -1.2335
  169SOPE  C21619089  -0.460   3.984   8.136 -0.2039  0.7701 -0.4025
  169SOPE  H16R19090  -0.452   4.071   8.067  1.5812  1.1160  0.1720
  169SOPE  H16S19091  -0.356   3.960   8.168  0.1930 -2.8258 -3.6572
  169SOPE  C21719092  -0.552   4.020   8.259  0.0169  1.1878 -0.3214
  169SOPE  H17R19093  -0.565   3.927   8.319 -1.1434  1.6642  0.2025
  169SOPE  H17S19094  -0.653   4.052   8.225  0.2531  0.3008 -1.9491
  169SOPE  C21819095  -0.493   4.119   8.361 -0.1130  0.3976  0.3245
  169SOPE  H18R19096  -0.439   4.200   8.307  2.5829  0.7421  3.2842
  169SOPE  H18S19097  -0.413   4.071   8.420 -2.2130 -0.7039  2.4727
  169SOPE  H18T19098  -0.575   4.151   8.429 -0.3620  0.6756 -0.1040
  169SOPE   C3319099   0.120   4.036   6.941 -0.2927 -0.1572  0.1753
  169SOPE   H3X19100   0.137   4.143   6.917  1.6085 -0.7401 -1.3209
  169SOPE   H3Y19101   0.182   3.974   6.873  0.0516  0.2640  0.1040
  169SOPE   C3419102   0.161   4.025   7.086  0.2133 -0.1169 -0.2700
  169SOPE   H4X19103   0.268   4.053   7.086  0.5514 -1.2886 -1.3654
  169SOPE   H4Y19104   0.155   3.918   7.115 -0.4678  0.4785  1.9840
  169SOPE   C3519105   0.078   4.100   7.191  1.4422 -0.4896  0.5495
  169SOPE   H5X19106  -0.029   4.071   7.192  1.6708 -1.4540  2.4970
  169SOPE   H5Y19107   0.084   4.210   7.173  2.5407 -1.0015 -3.0913
  169SOPE   C3619108   0.125   4.086   7.337 -0.0233  1.1149  0.1967
  169SOPE   H6X19109   0.230   4.114   7.358  0.6369 -0.8717 -0.2864
  169SOPE   H6Y19110   0.121   3.978   7.361  1.1355  0.7772 -1.0389
  169SOPE   C3719111   0.035   4.171   7.432 -0.2178 -0.2195  0.1923
  169SOPE   H7X19112  -0.071   4.139   7.442 -0.4779  0.9564  1.4944
  169SOPE   H7Y19113   0.038   4.274   7.392 -0.1498 -0.2191  0.1987
  169SOPE   C3819114   0.080   4.165   7.576  0.5319  0.4450  0.1773
  169SOPE   H8X19115   0.071   4.057   7.603 -1.3881  0.4832 -0.1543
  169SOPE   H8Y19116   0.184   4.199   7.597 -0.3314  1.8933  2.3880
  169SOPE   C3919117  -0.022   4.239   7.668 -1.2327  0.0148  0.6601
  169SOPE   H9X19118  -0.125   4.251   7.629 -0.6421  5.0892 -0.1326
  169SOPE   H9Y19119   0.016   4.343   7.677  0.0653 -0.4635  0.9501
  169SOPE  C31019120  -0.024   4.169   7.803 -0.0035  0.7410 -0.3529
  169SOPE  H10X19121   0.080   4.153   7.837  0.6432  2.1421 -1.5390
  169SOPE  H10Y19122  -0.076   4.071   7.800 -2.7648  1.9589  2.2623
  169SOPE  C31119123  -0.103   4.254   7.911 -0.2551 -0.6133 -0.3867
  169SOPE  H11X19124  -0.209   4.253   7.875  0.4533  0.7778 -2.7369
  169SOPE  H11Y19125  -0.059   4.355   7.906 -2.2726  0.2796 -1.5709
  169SOPE  C31219126  -0.092   4.198   8.046 -0.7829 -0.0976 -0.0985
  169SOPE  H12X19127   0.013   4.162   8.049 -1.3032 -1.6165  1.7577
  169SOPE  H12Y19128  -0.152   4.105   8.045  0.5177 -1.0031 -2.5257
  169SOPE  C31319129  -0.125   4.300   8.153 -0.0519  0.6977  0.1801
  169SOPE  H13X19130  -0.227   4.344   8.146  0.7387  3.0694  2.3754
  169SOPE  H13Y19131  -0.051   4.383   8.153 -0.6923  1.2751  0.2611
  169SOPE  C31419132  -0.121   4.233   8.289  0.0799  0.9207 -0.4174
  169SOPE  H14X19133  -0.024   4.183   8.309 -0.5619  0.8125  3.0655
  169SOPE  H14Y19134  -0.196   4.151   8.297  2.9838 -1.9282 -0.1615
  169SOPE  C31519135  -0.146   4.340   8.394  0.3734 -0.4272 -0.2685
  169SOPE  H15X19136  -0.217   4.422   8.368  2.7197  1.2816 -1.6439
  169SOPE  H15Y19137  -0.047   4.391   8.394  0.7487 -0.8255 -3.9072
  169SOPE  C31619138  -0.191   4.279   8.533  0.2652  0.3407  0.1457
  169SOPE  H16X19139  -0.133   4.184   8.537  0.9308  0.6643 -1.1794
  169SOPE  H16Y19140  -0.297   4.248   8.521 -0.2979  1.9893  0.6195
  169SOPE  C31719141  -0.166   4.373   8.649  0.3248 -0.5566  0.3855
  169SOPE  H17X19142  -0.239   4.454   8.627  0.2034 -0.7141  0.2059
  169SOPE  H17Y19143  -0.062   4.412   8.638  0.5928 -1.1556  0.7332
  169SOPE  C31819144  -0.188   4.324   8.788  0.3580  0.1917  0.3577
  169SOPE  H18X19145  -0.183   4.414   8.853  2.2493  1.0025 -0.8303
  169SOPE  H18Y19146  -0.102   4.258   8.812 -1.1399 -2.3212 -0.7917
  169SOPE  H18Z19147  -0.274   4.258   8.813  1.3308 -0.4357  2.2611
  170SOPE     N19148   1.958   2.346   5.995  0.4275 -0.4863 -0.0405
  170SOPE   HN119149   1.946   2.366   6.096 -0.5151  0.0012 -0.2438
  170SOPE   HN219150   2.030   2.270   5.989  1.0864  0.0465  0.9755
  170SOPE   HN319151   2.010   2.418   5.940  0.3687 -1.5060 -1.5102
  170SOPE   C1219152   1.828   2.307   5.926 -0.0539 -0.1379  0.6433
  170SOPE  H12A19153   1.855   2.258   5.830  1.5520 -0.5405  1.2744
  170SOPE  H12B19154   1.772   2.400   5.904  1.1991  0.4362 -0.1999
  170SOPE   C1119155   1.759   2.207   6.006  0.4495 -0.0516 -0.3725
  170SOPE  H11A19156   1.826   2.127   6.043 -1.3555 -0.9099  1.2143
  170SOPE  H11B19157   1.695   2.143   5.941  0.3667 -0.5473  0.1926
  170SOPE     P19158   1.566   2.190   6.185  0.4510  0.1134  0.1516
  170SOPE   O1319159   1.596   2.045   6.202 -0.3400 -0.2238  0.2588
  170SOPE   O1419160   1.446   2.220   6.111  0.5092 -0.1734  0.2097
  170SOPE   O1219161   1.677   2.270   6.108  0.0473  0.6827 -0.2468
  170SOPE   O1119162   1.563   2.259   6.329  0.3798  0.1423  0.8751
  170SOPE    C119163   1.681   2.259   6.410 -0.1883  0.0344 -0.2936
  170SOPE    HA19164   1.768   2.313   6.367 -0.5016  0.6884 -0.1233
  170SOPE    HB19165   1.712   2.156   6.439 -1.0612 -0.0663  0.3063
  170SOPE    C219166   1.647   2.330   6.547 -0.6783 -0.0151 -0.0402
  170SOPE    HS19167   1.740   2.331   6.607 -0.4332 -1.6505 -0.3609
  170SOPE   O2119168   1.542   2.259   6.617 -0.3150 -0.4013  0.2721
  170SOPE   C2119169   1.569   2.133   6.644  0.0823 -0.1796  0.4446
  170SOPE   O2219170   1.672   2.073   6.633  0.4750  0.2676  0.8189
  170SOPE   C2219171   1.441   2.091   6.721 -0.0954  0.7138 -0.2574
  170SOPE   H2R19172   1.444   1.983   6.748  0.3605  1.2072  1.8654
  170SOPE   H2S19173   1.359   2.119   6.652 -1.4541 -0.0363  1.0052
  170SOPE    C319174   1.615   2.485   6.528 -0.9575  0.0622 -0.6871
  170SOPE    HX19175   1.526   2.505   6.463 -0.0831  0.5835 -1.7564
  170SOPE    HY19176   1.703   2.524   6.473 -0.9438 -0.1979 -0.8537
  170SOPE   O3119177   1.614   2.543   6.658  0.3520  0.2945  0.1109
  170SOPE   C3119178   1.498   2.552   6.717  0.4968 -1.3042 -0.1835
  170SOPE   O3219179   1.390   2.506   6.681  0.1265 -0.3318  0.4707
  170SOPE   C3219180   1.512   2.654   6.837 -0.0333  0.6651  0.3552
  170SOPE   H2X19181   1.621   2.666   6.851 -0.1096  1.5297  0.2669
  170SOPE   H2Y19182   1.464   2.603   6.923 -0.3020  0.7835  0.2792
  170SOPE   C2319183   1.425   2.168   6.861  0.8976  0.0561  1.0422
  170SOPE   H3R19184   1.316   2.160   6.880  0.6635 -1.8028 -0.6821
  170SOPE   H3S19185   1.457   2.274   6.850  0.2200  0.0190 -2.4908
  170SOPE   C2419186   1.491   2.107   6.983 -0.8574 -0.2807  0.0946
  170SOPE   H4R19187   1.443   2.009   7.001  0.7564 -0.8430  1.7376
  170SOPE   H4S19188   1.599   2.082   6.972 -0.7111 -1.5720  3.2680
  170SOPE   C2519189   1.458   2.182   7.117  0.6137  0.2842 -0.5138
  170SOPE   H5R19190   1.347   2.193   7.116  0.7657  2.1637 -2.1209
  170SOPE   H5S19191   1.482   2.110   7.198 -0.5960 -0.3830 -0.7213
  170SOPE   C2619192   1.526   2.315   7.130 -0.6721 -0.0047 -0.0229
  170SOPE   H6R19193   1.513   2.362   7.030  0.0924 -2.1477 -1.1820
  170SOPE   H6S19194   1.487   2.379   7.212  1.7895  0.2503  1.0183
  170SOPE   C2719195   1.680   2.298   7.144  0.0031  0.0707  1.5783
  170SOPE   H7R19196   1.724   2.244   7.057  0.5438  0.7322  1.4342
  170SOPE   H7S19197   1.716   2.402   7.131 -0.9613  0.1308 -1.4018
  170SOPE   C2819198   1.735   2.239   7.279  0.1619  0.4158  0.0951
  170SOPE   H8R19199   1.703   2.133   7.268 -0.3770  0.1766  3.0332
  170SOPE   H8S19200   1.846   2.247   7.274  0.1426  0.7690  0.2234
  170SOPE   C2919201   1.688   2.317   7.401  0.2076 -0.3968 -0.4262
  170SOPE   H9119202   1.739   2.414   7.416 -1.2146  0.2887  0.2359
  170SOPE  C21019203   1.600   2.273   7.489  0.5268 -0.0025 -0.0964
  170SOPE  H10119204   1.576   2.343   7.570  0.2274 -1.1729  0.8516
  170SOPE  C21119205   1.519   2.145   7.487  0.0041  0.0885 -0.2923
  170SOPE  H11R19206   1.550   2.067   7.415  0.5683  2.0795 -2.3230
  170SOPE  H11S19207   1.423   2.169   7.437  0.5776  0.7386 -1.0998
  170SOPE  C21219208   1.505   2.077   7.626  0.0884 -0.2225 -0.1633
  170SOPE  H12R19209   1.603   2.039   7.661 -0.3882 -1.1300  0.2159
  170SOPE  H12S19210   1.433   1.994   7.609 -0.4000  0.4524 -1.5628
  170SOPE  C21319211   1.451   2.173   7.740  0.0031  1.4049  0.4408
  170SOPE  H13R19212   1.349   2.202   7.707  0.0641  1.7052  0.5154
  170SOPE  H13S19213   1.525   2.256   7.746  0.8445  0.6539  0.8061
  170SOPE  C21419214   1.448   2.109   7.878  0.5626  0.0247  0.3615
  170SOPE  H14R19215   1.547   2.077   7.917 -0.1141  0.1548  2.2858
  170SOPE  H14S19216   1.392   2.013   7.881 -1.6312  1.2634  2.1507
  170SOPE  C21519217   1.376   2.206   7.980  0.2685  0.5428 -0.0832
  170SOPE  H15R19218   1.279   2.231   7.932  0.6192 -1.9258 -2.3166
  170SOPE  H15S19219   1.426   2.303   7.999 -2.3653  1.8644  0.6524
  170SOPE  C21619220   1.371   2.133   8.119  0.2909  0.5375  0.1078
  170SOPE  H16R19221   1.469   2.111   8.166 -1.0818  0.4234  3.1136
  170SOPE  H16S19222   1.323   2.034   8.107 -0.8251  1.2459 -1.7371
  170SOPE  C21719223   1.284   2.209   8.222  0.3982 -0.8745  0.5491
  170SOPE  H17R19224   1.190   2.220   8.164  0.9035 -3.8919 -1.0175
  170SOPE  H17S19225   1.318   2.313   8.245  1.7925 -0.6668 -2.1302
  170SOPE  C21819226   1.243   2.135   8.354 -0.6307 -0.8822 -0.3994
  170SOPE  H18R19227   1.217   2.029   8.333  1.3720 -1.9955  2.2368
  170SOPE  H18S19228   1.152   2.184   8.393  0.1165 -0.9168  1.4744
  170SOPE  H18T19229   1.325   2.132   8.429  0.5494 -1.2940 -1.6462
  170SOPE   C3319230   1.447   2.788   6.811 -0.0789  0.3120  0.1181
  170SOPE   H3X19231   1.338   2.771   6.815 -0.1702  0.8480  3.8397
  170SOPE   H3Y19232   1.473   2.836   6.714  2.0876 -0.3799  0.2943
  170SOPE   C3419233   1.479   2.898   6.916 -0.2907  0.4018  0.3242
  170SOPE   H4X19234   1.441   2.992   6.870  2.2942 -0.0480 -3.1044
  170SOPE   H4Y19235   1.590   2.908   6.924 -0.1205  0.0506 -1.3504
  170SOPE   C3519236   1.411   2.879   7.054  0.5559 -0.2543  0.5181
  170SOPE   H5X19237   1.319   2.818   7.048  0.8915 -0.6353 -1.4138
  170SOPE   H5Y19238   1.381   2.981   7.088  1.3742  0.0058  0.4859
  170SOPE   C3619239   1.506   2.820   7.155 -0.6353 -0.0613  0.6027
  170SOPE   H6X19240   1.600   2.877   7.172 -0.3662 -0.4237  0.3442
  170SOPE   H6Y19241   1.524   2.716   7.121 -1.1505 -0.1252  0.5329
  170SOPE   C3719242   1.436   2.813   7.289 -0.3729  0.7432  0.2889
  170SOPE   H7X19243   1.344   2.751   7.285 -1.7137  2.6827 -1.5715
  170SOPE   H7Y19244   1.400   2.916   7.313  1.6187  1.0322  2.4291
  170SOPE   C3819245   1.533   2.766   7.404  0.3187 -0.0531  0.4522
  170SOPE   H8X19246   1.626   2.826   7.399  1.9467 -2.4325  0.4182
  170SOPE   H8Y19247   1.558   2.658   7.390 -0.4241 -0.1825  0.0034
  170SOPE   C3919248   1.455   2.774   7.537  0.4612  0.2132  0.5060
  170SOPE   H9X19249   1.349   2.743   7.527  0.4303  0.4382  0.1346
  170SOPE   H9Y19250   1.461   2.872   7.588 -0.4357  0.0606  0.9300
  170SOPE  C31019251   1.501   2.665   7.638 -0.6788 -0.1083  0.0268
  170SOPE  H10X19252   1.606   2.683   7.669 -0.1919 -2.1173 -0.2566
  170SOPE  H10Y19253   1.505   2.567   7.584  1.9668  0.6929 -1.4576
  170SOPE  C31119254   1.410   2.646   7.755  0.2457 -0.2600 -0.3715
  170SOPE  H11X19255   1.317   2.599   7.716  0.0512  0.4814 -0.8097
  170SOPE  H11Y19256   1.371   2.740   7.800 -1.2631  0.0810 -2.2546
  170SOPE  C31219257   1.466   2.562   7.877  0.0513 -0.3902  0.4357
  170SOPE  H12X19258   1.507   2.472   7.828 -0.7361 -2.2443  2.9423
  170SOPE  H12Y19259   1.395   2.520   7.952 -0.4264  0.9412  0.7666
  170SOPE  C31319260   1.591   2.622   7.940  0.5394 -0.6519 -0.4877
  170SOPE  H13X19261   1.679   2.608   7.874  0.4842 -0.0940 -0.6854
  170SOPE  H13Y19262   1.611   2.553   8.024 -0.2430  0.5334  0.7169
  170SOPE  C31419263   1.581   2.769   8.001  0.0320  0.2244  0.4226
  170SOPE  H14X19264   1.507   2.775   8.082  0.2504  1.6893  0.5304
  170SOPE  H14Y19265   1.544   2.839   7.923  0.0639  0.6470  0.7886
  170SOPE  C31519266   1.705   2.827   8.074 -0.1789 -0.1113  0.7619
  170SOPE  H15X19267   1.776   2.875   8.003 -0.7964 -0.5750 -0.1902
  170SOPE  H15Y19268   1.751   2.747   8.135 -0.7248 -1.6004 -0.7134
  170SOPE  C31619269   1.667   2.929   8.174 -0.1857 -0.6371 -0.6311
  170SOPE  H16X19270   1.571   2.908   8.226 -0.6420 -0.2124 -1.2851
  170SOPE  H16Y19271   1.662   3.027   8.123  1.4304  0.0173  0.3953
  170SOPE  C31719272   1.787   2.937   8.276  0.5193  0.4683 -0.3515
  170SOPE  H17X19273   1.799   3.042   8.309 -1.2049  0.3854  0.6516
  170SOPE  H17Y19274   1.879   2.920   8.216  0.7375  0.8671 -0.1300
  170SOPE  C31819275   1.780   2.829   8.386 -0.1734  1.5153  0.9883
  170SOPE  H18X19276   1.800   2.725   8.351  1.0186  2.3560 -1.0135
  170SOPE  H18Y19277   1.683   2.827   8.439  0.3003 -0.0223  1.8592
  170SOPE  H18Z19278   1.860   2.859   8.458 -0.0401  2.3779  0.4976
  171SOPE     N19279   0.008   5.265   6.253 -0.4574 -0.5036 -0.3393
  171SOPE   HN119280   0.105   5.246   6.285 -0.8021  0.0971  1.1714
  171SOPE   HN219281  -0.025   5.215   6.168 -2.0345  1.4295 -0.9390
  171SOPE   HN319282   0.005   5.367   6.235 -0.1264 -0.2575  0.9221
  171SOPE   C1219283  -0.088   5.248   6.369 -0.0402 -0.2739 -0.3061
  171SOPE  H12A19284  -0.175   5.186   6.337  1.2431 -1.7811 -1.0093
  171SOPE  H12B19285  -0.118   5.350   6.400  0.3446 -0.5201  0.9084
  171SOPE   C1119286  -0.017   5.175   6.488  0.3501 -0.3429  0.1333
  171SOPE  H11A19287  -0.099   5.157   6.560  0.7713 -1.4107  0.3607
  171SOPE  H11B19288   0.064   5.228   6.542 -0.4428 -1.0787  2.1298
  171SOPE     P19289  -0.020   4.909   6.466 -0.2120  0.4109 -0.1816
  171SOPE   O1319290   0.037   4.827   6.356 -0.3391  0.4414  0.1830
  171SOPE   O1419291  -0.168   4.926   6.479  0.6069  0.4294 -0.2117
  171SOPE   O1219292   0.039   5.051   6.438 -0.1175 -0.6340 -0.0905
  171SOPE   O1119293   0.040   4.869   6.606 -0.5986  0.4029  0.0189
  171SOPE    C119294   0.177   4.830   6.598 -0.1405  0.2017 -0.2666
  171SOPE    HA19295   0.243   4.916   6.573 -1.0542  1.1461  0.4851
  171SOPE    HB19296   0.202   4.760   6.515  1.2378 -1.7611  1.6712
  171SOPE    C219297   0.213   4.752   6.730  0.1612  0.6392 -0.1329
  171SOPE    HS19298   0.145   4.665   6.725  2.3315 -1.2343  1.1190
  171SOPE   O2119299   0.177   4.841   6.838  0.2972 -0.2293 -0.3778
  171SOPE   C2119300   0.112   4.784   6.944  0.3488 -0.3580  1.2082
  171SOPE   O2219301   0.061   4.673   6.943  0.9813 -0.2046  0.0012
  171SOPE   C2219302   0.112   4.875   7.064 -0.2141  0.2684 -0.1033
  171SOPE   H2R19303   0.039   4.840   7.140  0.5349 -1.0492  0.0402
  171SOPE   H2S19304   0.095   4.980   7.032 -0.2503  0.7687  1.4823
  171SOPE    C319305   0.355   4.692   6.726 -0.0239 -0.2298 -0.5563
  171SOPE    HX19306   0.415   4.785   6.729  0.2684 -0.4364  0.7611
  171SOPE    HY19307   0.379   4.637   6.632 -0.6121  0.7782 -1.3078
  171SOPE   O3119308   0.371   4.620   6.849  0.3300  0.1703 -0.2370
  171SOPE   C3119309   0.351   4.488   6.841  0.0849  0.2108  1.0996
  171SOPE   O3219310   0.299   4.430   6.745 -0.0107  0.6822  0.4577
  171SOPE   C3219311   0.404   4.422   6.970  0.3695  0.4405 -0.1007
  171SOPE   H2X19312   0.512   4.449   6.976  0.6665  0.6421 -3.7215
  171SOPE   H2Y19313   0.397   4.312   6.957 -1.5584  0.7126 -2.0824
  171SOPE   C2319314   0.249   4.856   7.132 -0.2223  0.5155  0.6042
  171SOPE   H3R19315   0.326   4.879   7.055  0.2615 -1.1510  0.5639
  171SOPE   H3S19316   0.267   4.749   7.154  1.5375  0.3677 -1.2470
  171SOPE   C2419317   0.281   4.942   7.259 -0.0790  0.4139  0.1239
  171SOPE   H4R19318   0.389   4.929   7.283  0.4318 -0.7094 -2.4718
  171SOPE   H4S19319   0.262   5.048   7.232  0.5049  0.0700 -1.7497
  171SOPE   C2519320   0.197   4.920   7.376  0.2413  0.2772  0.2480
  171SOPE   H5R19321   0.091   4.939   7.349 -0.1401 -1.2971  0.5643
  171SOPE   H5S19322   0.211   4.820   7.422 -2.7493  0.3917  1.6489
  171SOPE   C2619323   0.240   5.012   7.494 -0.2343 -1.0491  0.0439
  171SOPE   H6R19324   0.346   4.998   7.526  0.1951  1.6602  0.0530
  171SOPE   H6S19325   0.236   5.115   7.451 -0.1799 -0.1040  2.1782
  171SOPE   C2719326   0.141   4.996   7.605 -0.3475  0.5310  1.1721
  171SOPE   H7R19327   0.055   5.056   7.571  1.6598  1.6232 -2.4910
  171SOPE   H7S19328   0.132   4.886   7.621  2.3990 -0.3756 -2.1790
  171SOPE   C2819329   0.201   5.054   7.735  0.1120 -0.3088  0.2404
  171SOPE   H8R19330   0.305   5.021   7.758  0.8423  1.5403 -0.1551
  171SOPE   H8S19331   0.212   5.164   7.719 -3.1660  0.1487  0.5716
  171SOPE   C2919332   0.107   5.035   7.850  0.6362 -0.2895  0.6088
  171SOPE   H9119333   0.014   5.090   7.830  0.3425 -0.5198  1.3112
  171SOPE  C21019334   0.123   4.965   7.964  0.7997  0.0974  0.3118
  171SOPE  H10119335   0.052   4.973   8.047  0.7612 -0.4080  0.3309
  171SOPE  C21119336   0.242   4.877   7.989  0.7349 -0.3808  0.7522
  171SOPE  H11R19337   0.323   4.939   8.034  0.7948 -0.6143  0.9694
  171SOPE  H11S19338   0.277   4.831   7.894 -0.4728  0.9298 -0.3560
  171SOPE  C21219339   0.210   4.766   8.088  0.2489 -0.8532  0.1061
  171SOPE  H12R19340   0.285   4.690   8.059  1.1877  0.1666 -0.2225
  171SOPE  H12S19341   0.105   4.729   8.083 -0.8400  2.1215 -1.9530
  171SOPE  C21319342   0.243   4.805   8.238 -0.5197  0.7864  0.1493
  171SOPE  H13R19343   0.165   4.882   8.248  0.9317  2.6517 -1.9998
  171SOPE  H13S19344   0.350   4.835   8.241 -0.8840  2.0622  1.9959
  171SOPE  C21419345   0.227   4.684   8.334 -0.2111 -0.5458  0.1923
  171SOPE  H14R19346   0.313   4.615   8.334 -0.7140 -1.1813 -0.2348
  171SOPE  H14S19347   0.138   4.634   8.289 -0.7719  2.3363 -2.2619
  171SOPE  C21519348   0.213   4.728   8.480 -0.3670 -0.6273 -0.3098
  171SOPE  H15R19349   0.164   4.647   8.539 -1.4972  0.0770 -0.2523
  171SOPE  H15S19350   0.129   4.801   8.484 -0.4137 -0.5178 -2.3444
  171SOPE  C21619351   0.348   4.775   8.537 -1.3969 -0.0732  0.4144
  171SOPE  H16R19352   0.371   4.880   8.507 -1.1840 -0.5189 -1.0777
  171SOPE  H16S19353   0.424   4.710   8.490  0.3037  0.5680  2.1567
  171SOPE  C21719354   0.362   4.764   8.687 -1.4488 -0.4650 -0.0473
  171SOPE  H17R19355   0.467   4.783   8.718 -2.0627 -1.3099  2.9746
  171SOPE  H17S19356   0.341   4.658   8.716 -1.9553 -0.1514  0.7817
  171SOPE  C21819357   0.275   4.870   8.760  0.0907  0.3677  0.1796
  171SOPE  H18R19358   0.277   4.973   8.717  4.3401  0.5938  0.4774
  171SOPE  H18S19359   0.307   4.870   8.867 -1.8408 -1.9148  0.8471
  171SOPE  H18T19360   0.171   4.836   8.744 -0.2885  0.7155  1.7061
  171SOPE   C3319361   0.331   4.462   7.095  0.2787 -0.5424  0.0918
  171SOPE   H3X19362   0.221   4.452   7.093  0.2291  0.0176 -1.8046
  171SOPE   H3Y19363   0.345   4.572   7.102 -1.9887 -0.0869 -1.4467
  171SOPE   C3419364   0.365   4.397   7.224 -0.2724 -0.8542 -0.3827
  171SOPE   H4X19365   0.473   4.410   7.246  0.3360 -0.3130 -3.3172
  171SOPE   H4Y19366   0.337   4.289   7.222  1.3537 -1.3070 -0.2359
  171SOPE   C3519367   0.310   4.455   7.357  0.2224 -0.9155  0.0961
  171SOPE   H5X19368   0.209   4.409   7.361 -0.4370  0.5651  1.9658
  171SOPE   H5Y19369   0.303   4.565   7.344  0.5473 -0.7996  0.8271
  171SOPE   C3619370   0.383   4.409   7.488 -0.2031 -0.6687 -0.2266
  171SOPE   H6X19371   0.488   4.445   7.487 -0.5718  0.4802  0.6122
  171SOPE   H6Y19372   0.379   4.298   7.493  0.8419 -0.8746 -2.5578
  171SOPE   C3719373   0.328   4.461   7.627 -0.2119  0.3452 -0.1247
  171SOPE   H7X19374   0.221   4.435   7.623  0.3051 -2.0388  0.0063
  171SOPE   H7Y19375   0.329   4.571   7.639  1.4981  0.2735  0.7658
  171SOPE   C3819376   0.404   4.399   7.744 -0.2919  0.2713 -0.7062
  171SOPE   H8X19377   0.513   4.418   7.744 -0.5446  1.8618 -1.3256
  171SOPE   H8Y19378   0.384   4.290   7.754 -0.6855  0.5684  3.6218
  171SOPE   C3919379   0.367   4.463   7.875 -0.7647  0.1197  0.2298
  171SOPE   H9X19380   0.260   4.490   7.887 -1.0746 -1.0587  0.2796
  171SOPE   H9Y19381   0.423   4.558   7.884  1.7956 -0.8539 -3.2829
  171SOPE  C31019382   0.417   4.383   7.997  0.4185 -0.2283 -0.3228
  171SOPE  H10X19383   0.405   4.446   8.088 -0.1116 -0.5309 -0.1753
  171SOPE  H10Y19384   0.519   4.340   7.986  1.5588  2.3405 -0.4360
  171SOPE  C31119385   0.318   4.264   8.026  0.0269 -0.6209 -0.7348
  171SOPE  H11X19386   0.327   4.194   7.941  2.0927 -0.4563 -0.7126
  171SOPE  H11Y19387   0.221   4.317   8.018  0.3727  0.3033  0.6791
  171SOPE  C31219388   0.331   4.198   8.160 -0.2374 -0.5390  0.7723
  171SOPE  H12X19389   0.432   4.153   8.149  0.1452  0.7971 -1.8909
  171SOPE  H12Y19390   0.251   4.122   8.169 -0.7171 -0.1027  0.2320
  171SOPE  C31319391   0.303   4.293   8.277 -0.2787  0.5978  0.4279
  171SOPE  H13X19392   0.204   4.341   8.262 -0.9977 -0.9255  0.0262
  171SOPE  H13Y19393   0.389   4.362   8.288  0.8900 -0.5031 -1.3427
  171SOPE  C31419394   0.300   4.212   8.409  0.3284 -0.5471 -0.5316
  171SOPE  H14X19395   0.391   4.148   8.403  0.5424 -0.4239  1.0049
  171SOPE  H14Y19396   0.212   4.143   8.408 -0.4136  0.3813 -1.5727
  171SOPE  C31519397   0.315   4.298   8.528  0.6566  0.1967 -0.3625
  171SOPE  H15X19398   0.258   4.393   8.519  0.2687 -0.1009 -1.2026
  171SOPE  H15Y19399   0.422   4.321   8.548  0.2449 -0.0407  2.7289
  171SOPE  C31619400   0.255   4.218   8.648  0.2976  0.3189  0.1982
  171SOPE  H16X19401   0.306   4.120   8.664  1.6476  1.0244  0.3486
  171SOPE  H16Y19402   0.147   4.193   8.635  0.5436  0.3458 -2.2765
  171SOPE  C31719403   0.264   4.305   8.772  0.2048  0.1598 -0.4343
  171SOPE  H17X19404   0.210   4.396   8.739  0.0563 -0.0215 -0.6926
  171SOPE  H17Y19405   0.366   4.348   8.783 -0.1983  1.4280 -1.4254
  171SOPE  C31819406   0.218   4.254   8.909 -0.3664  0.5190  0.3571
  171SOPE  H18X19407   0.203   4.337   8.981 -0.4369 -0.1136  1.0851
  171SOPE  H18Y19408   0.298   4.200   8.964 -1.9271 -1.3984  0.8871
  171SOPE  H18Z19409   0.125   4.197   8.889 -0.9540  1.8732 -0.8973
  172SOPE     N19410   2.911   1.793   6.493 -0.5866 -0.4897  0.2584
  172SOPE   HN119411   2.995   1.807   6.553  0.6589 -1.5914 -1.1556
  172SOPE   HN219412   2.941   1.788   6.394 -1.7816  0.0469 -0.1486
  172SOPE   HN319413   2.841   1.870   6.502 -0.6747 -0.2007 -2.2037
  172SOPE   C1219414   2.854   1.671   6.553  0.7718  0.0816 -0.3169
  172SOPE  H12A19415   2.929   1.591   6.535  0.8366 -0.6702  2.8223
  172SOPE  H12B19416   2.754   1.654   6.506 -0.5707  2.7334  1.3245
  172SOPE   C1119417   2.844   1.665   6.705 -0.1141  0.3628  0.6783
  172SOPE  H11A19418   2.948   1.661   6.746 -0.4712 -0.7439  1.5501
  172SOPE  H11B19419   2.804   1.566   6.736  2.2844 -0.2657  2.0371
  172SOPE     P19420   2.615   1.783   6.750 -0.3703  0.1559 -0.2435
  172SOPE   O1319421   2.570   1.647   6.792  0.0588  0.8133  0.3392
  172SOPE   O1419422   2.590   1.836   6.615 -0.2755 -0.0879  0.3480
  172SOPE   O1219423   2.768   1.777   6.764 -0.0803  0.5102  0.4045
  172SOPE   O1119424   2.570   1.888   6.865  0.5159 -0.3012  0.0735
  172SOPE    C119425   2.668   1.970   6.931  0.7089 -1.0938  0.3408
  172SOPE    HA19426   2.702   2.060   6.876 -1.8439  0.8508  1.7183
  172SOPE    HB19427   2.752   1.907   6.967  0.2240 -1.2321  1.2590
  172SOPE    C219428   2.594   2.037   7.050 -0.0151 -0.7002  0.2062
  172SOPE    HS19429   2.676   2.095   7.098  0.2231 -1.4552  0.7193
  172SOPE   O2119430   2.534   1.946   7.141 -0.6524 -0.3891 -0.3063
  172SOPE   C2119431   2.623   1.896   7.229  0.3814 -0.2012  0.0253
  172SOPE   O2219432   2.745   1.910   7.224  0.1236  0.9064  0.2518
  172SOPE   C2219433   2.549   1.818   7.334 -0.2121 -0.3434  0.0789
  172SOPE   H2R19434   2.627   1.777   7.403 -0.2519  0.0961  0.3902
  172SOPE   H2S19435   2.500   1.738   7.275 -0.5890 -1.1493  1.4419
  172SOPE    C319436   2.496   2.141   7.003 -0.1130  0.0478  0.1843
  172SOPE    HX19437   2.430   2.076   6.942  0.8718 -0.0998 -0.7661
  172SOPE    HY19438   2.556   2.212   6.942 -0.4845  0.4654  0.2983
  172SOPE   O3119439   2.440   2.210   7.114  0.4862  0.3022 -0.3917
  172SOPE   C3119440   2.310   2.246   7.105 -0.5171  0.7501 -0.0280
  172SOPE   O3219441   2.239   2.251   7.008  0.2898  0.5196 -0.3770
  172SOPE   C3219442   2.275   2.279   7.244 -0.3782  0.0812 -0.0848
  172SOPE   H2X19443   2.239   2.384   7.242 -2.6747 -0.6413  0.3957
  172SOPE   H2Y19444   2.360   2.261   7.313 -1.7607 -0.5229  1.5236
  172SOPE   C2319445   2.443   1.906   7.407  0.4559  0.4155  0.6273
  172SOPE   H3R19446   2.348   1.903   7.350  0.5419  1.3651  0.4154
  172SOPE   H3S19447   2.474   2.013   7.409 -2.0781  1.2573 -0.7711
  172SOPE   C2419448   2.411   1.875   7.556  0.0017  0.1156 -0.7682
  172SOPE   H4R19449   2.505   1.875   7.616  1.0842 -0.4648 -2.3832
  172SOPE   H4S19450   2.344   1.954   7.595 -1.5464 -1.1321 -0.8096
  172SOPE   C2519451   2.358   1.730   7.572 -1.0716 -0.1920  0.0401
  172SOPE   H5R19452   2.296   1.709   7.482  1.8379 -0.7091 -1.9575
  172SOPE   H5S19453   2.441   1.658   7.555 -0.7587  0.4653 -1.3728
  172SOPE   C2619454   2.279   1.704   7.703  0.5191 -0.4256 -0.3120
  172SOPE   H6R19455   2.344   1.711   7.793 -0.8689 -1.8522  0.8685
  172SOPE   H6S19456   2.194   1.774   7.717 -1.0825 -2.3845  0.2952
  172SOPE   C2719457   2.212   1.567   7.694 -0.5002 -0.5347  0.7451
  172SOPE   H7R19458   2.120   1.569   7.631  0.9086 -1.2119 -1.4576
  172SOPE   H7S19459   2.285   1.498   7.645  0.3121  1.1400 -0.5085
  172SOPE   C2819460   2.195   1.501   7.831  0.3323 -0.6618 -0.4648
  172SOPE   H8R19461   2.179   1.391   7.825 -1.3704 -0.5933  1.6463
  172SOPE   H8S19462   2.283   1.521   7.896 -0.4578 -2.3581  1.2547
  172SOPE   C2919463   2.072   1.558   7.901  0.3965 -0.1660 -0.3125
  172SOPE   H9119464   1.973   1.530   7.863 -0.2138 -1.0568  1.7878
  172SOPE  C21019465   2.064   1.656   7.999 -0.2651 -0.1182  0.2012
  172SOPE  H10119466   1.972   1.676   8.056 -0.3854  0.0947 -0.0625
  172SOPE  C21119467   2.177   1.725   8.063 -1.0924 -0.3584  0.1135
  172SOPE  H11R19468   2.276   1.686   8.031 -0.5280  1.4027 -0.4017
  172SOPE  H11S19469   2.166   1.699   8.170 -2.4572  0.0024  0.0908
  172SOPE  C21219470   2.173   1.878   8.061  0.1587 -0.0748 -0.4915
  172SOPE  H12R19471   2.067   1.909   8.067  0.6436  1.4785  1.1621
  172SOPE  H12S19472   2.203   1.921   7.963  0.3345 -1.1279 -0.9069
  172SOPE  C21319473   2.272   1.940   8.159  0.6269 -0.0917 -0.2160
  172SOPE  H13R19474   2.243   1.933   8.266  1.1451 -0.4283 -0.0923
  172SOPE  H13S19475   2.282   2.048   8.134  0.5573 -0.1981 -0.7042
  172SOPE  C21419476   2.417   1.897   8.170 -0.6890  0.5616 -0.1324
  172SOPE  H14R19477   2.426   1.787   8.183 -0.3727  0.5651 -0.2967
  172SOPE  H14S19478   2.459   1.951   8.257 -0.6613  0.4922 -0.1032
  172SOPE  C21519479   2.510   1.941   8.052 -0.2930  0.3630 -0.0251
  172SOPE  H15R19480   2.499   2.052   8.049 -0.2133  0.4095  0.9585
  172SOPE  H15S19481   2.469   1.902   7.956 -0.6920  0.9409 -0.0969
  172SOPE  C21619482   2.656   1.895   8.062 -0.3943  0.3553  0.4786
  172SOPE  H16R19483   2.670   1.787   8.044  2.6019  0.8335 -0.6340
  172SOPE  H16S19484   2.694   1.907   8.166  1.7316 -2.5775  0.1585
  172SOPE  C21719485   2.737   1.980   7.966 -0.5451  0.0047 -0.2599
  172SOPE  H17R19486   2.684   2.078   7.957  2.2424  1.7122  0.4788
  172SOPE  H17S19487   2.733   1.932   7.866 -2.4515 -0.0195 -0.2197
  172SOPE  C21819488   2.875   2.006   8.009 -0.0325  0.1629 -0.0726
  172SOPE  H18R19489   2.891   2.037   8.114 -0.2830 -2.1291  0.7048
  172SOPE  H18S19490   2.915   2.082   7.939 -0.0937 -0.0394 -0.3309
  172SOPE  H18T19491   2.938   1.916   7.993 -0.3686  0.1831 -1.6865
  172SOPE   C3319492   2.168   2.177   7.292  0.0651 -0.1284 -0.0629
  172SOPE   H3X19493   2.183   2.072   7.259  1.0121  0.1257 -0.4549
  172SOPE   H3Y19494   2.077   2.205   7.235 -0.7524  1.9259  2.0881
  172SOPE   C3419495   2.134   2.171   7.443  0.3662  0.8919  0.8459
  172SOPE   H4X19496   2.085   2.268   7.466 -0.7273  0.6227 -0.2794
  172SOPE   H4Y19497   2.226   2.163   7.505  0.6076 -2.1812  0.2401
  172SOPE   C3519498   2.034   2.060   7.476  0.4501 -0.4448 -0.7676
  172SOPE   H5X19499   2.073   1.960   7.447  1.0100 -0.6763  0.6983
  172SOPE   H5Y19500   1.932   2.079   7.437 -0.3528 -2.4194  0.2655
  172SOPE   C3619501   2.012   2.060   7.628 -0.1875 -0.2389  0.0811
  172SOPE   H6X19502   2.109   2.069   7.681 -0.9806 -2.4241  2.0714
  172SOPE   H6Y19503   1.971   1.960   7.655  0.6632 -1.3322 -2.3435
  172SOPE   C3719504   1.919   2.167   7.683  0.4640  0.0972  0.9386
  172SOPE   H7X19505   1.828   2.177   7.621  1.1387  2.1783  0.1710
  172SOPE   H7Y19506   1.964   2.268   7.667 -1.6440  0.7635 -1.4270
  172SOPE   C3819507   1.867   2.139   7.821  0.8307 -0.4778 -0.2720
  172SOPE   H8X19508   1.824   2.037   7.817  2.5278 -1.1901 -1.5584
  172SOPE   H8Y19509   1.786   2.209   7.850  1.5582 -0.0403  0.8100
  172SOPE   C3919510   1.973   2.138   7.926  0.0764 -0.2699 -0.4647
  172SOPE   H9X19511   2.062   2.075   7.907 -0.6150 -1.3329 -0.2853
  172SOPE   H9Y19512   1.922   2.101   8.017  0.9843 -2.0546 -0.6380
  172SOPE  C31019513   2.030   2.283   7.951 -0.2005 -1.2115 -0.0213
  172SOPE  H10X19514   2.053   2.324   7.850  3.5358 -3.0695 -0.1005
  172SOPE  H10Y19515   2.121   2.274   8.014 -1.4521  1.8453  2.5033
  172SOPE  C31119516   1.938   2.379   8.028 -0.1317 -0.3046  0.0502
  172SOPE  H11X19517   1.837   2.385   7.982  0.6391 -0.7984 -1.7817
  172SOPE  H11Y19518   1.982   2.480   8.011 -0.5005 -0.1440  0.0264
  172SOPE  C31219519   1.940   2.351   8.178 -0.4773  0.1083  0.1897
  172SOPE  H12X19520   1.943   2.242   8.199  2.9794  0.4160  1.9212
  172SOPE  H12Y19521   1.839   2.385   8.209  0.4845  1.4870  1.9545
  172SOPE  C31319522   2.040   2.423   8.259  0.0805 -0.3322  0.0361
  172SOPE  H13X19523   2.036   2.532   8.235 -0.4230 -0.0221  1.4536
  172SOPE  H13Y19524   2.139   2.382   8.233 -1.1596 -2.1435 -2.1913
  172SOPE  C31419525   2.020   2.421   8.407  0.4608 -0.9238  0.6293
  172SOPE  H14X19526   1.917   2.461   8.414  0.3987 -0.2956 -2.5013
  172SOPE  H14Y19527   2.092   2.491   8.456 -0.1121 -1.5060  2.4085
  172SOPE  C31519528   2.031   2.286   8.469  0.4973  0.5440 -0.5879
  172SOPE  H15X19529   2.134   2.246   8.460  0.4649 -0.6293  2.7631
  172SOPE  H15Y19530   1.953   2.214   8.436 -0.8974  1.0914  1.3340
  172SOPE  C31619531   2.007   2.290   8.621  0.5896  0.0991  0.1708
  172SOPE  H16X19532   2.103   2.340   8.649 -0.3084  1.1232  1.5260
  172SOPE  H16Y19533   2.006   2.185   8.658  0.5279  0.0509  0.0323
  172SOPE  C31719534   1.887   2.366   8.677 -0.4014  0.3124  0.4384
  172SOPE  H17X19535   1.836   2.298   8.749  1.5021 -0.1048  1.4418
  172SOPE  H17Y19536   1.819   2.394   8.593  0.1356 -0.7649 -0.3878
  172SOPE  C31819537   1.922   2.495   8.752  0.5770 -0.4217 -0.0929
  172SOPE  H18X19538   2.003   2.484   8.827 -0.8452 -0.5948  1.4649
  172SOPE  H18Y19539   1.833   2.533   8.806  0.3938 -3.2691  1.8163
  172SOPE  H18Z19540   1.966   2.555   8.669  0.4457 -2.1673 -1.4784
  173SAPI   C1219541   4.235   3.818  10.970  0.1215  0.5776  0.6394
  173SAPI    H219542   4.342   3.787  10.974  0.3799  1.5887  3.0946
  173SAPI    O219543   4.188   3.816  10.833  0.3722 -0.0617  0.3419
  173SAPI   HO219544   4.217   3.902  10.802  1.9657 -0.5430  0.4004
  173SAPI   C1319545   4.146   3.732  11.057 -0.4695  0.1381 -0.6418
  173SAPI    H319546   4.189   3.741  11.159  2.1602  0.7536 -1.7316
  173SAPI    O319547   4.167   3.595  11.038  0.4956 -1.0433  0.3381
  173SAPI   HO319548   4.087   3.546  11.019  0.1213 -0.2954 -0.0399
  173SAPI   C1419549   3.998   3.769  11.055 -0.0537 -0.7875  0.5079
  173SAPI    H419550   3.961   3.764  10.951 -1.1486 -1.2198  0.9039
  173SAPI    O419551   3.915   3.672  11.122 -0.1394  0.7557 -0.1709
  173SAPI   HO419552   3.825   3.699  11.142 -0.5425 -1.0811  0.7048
  173SAPI   C1519553   3.981   3.911  11.110  0.1739 -0.8117 -0.2581
  173SAPI    H519554   4.011   3.924  11.217 -1.4683 -0.5780  0.1932
  173SAPI    O519555   3.847   3.961  11.104 -0.1561 -0.2944  0.1512
  173SAPI   HO519556   3.849   4.041  11.157  1.3084 -0.8276  0.9432
  173SAPI   C1619557   4.067   4.002  11.029  0.1731  0.1274 -0.2938
  173SAPI    H619558   4.022   3.998  10.927  1.6557  0.8305 -0.9922
  173SAPI    O619559   4.066   4.135  11.079  0.2984 -0.3123 -0.2268
  173SAPI   HO619560   4.145   4.168  11.037  0.0660  0.4714 -0.0689
  173SAPI   C1119561   4.215   3.957  11.020  0.2255 -0.0906 -0.1987
  173SAPI    H119562   4.264   3.957  11.120 -1.4414  2.5888  0.7353
  173SAPI     P19563   4.435   4.095  10.903 -0.5302  0.2649  0.6689
  173SAPI   O1319564   4.524   4.045  11.014 -0.0579 -0.1737  0.0831
  173SAPI   O1419565   4.446   4.238  10.866 -0.2822  0.0046 -0.2729
  173SAPI   O1219566   4.275   4.057  10.931 -0.5620 -0.0977  0.2973
  173SAPI   O1119567   4.462   4.011  10.770  0.4207  0.0422  0.2556
  173SAPI    C119568   4.393   4.050  10.651  0.4107 -0.3958 -0.0244
  173SAPI    HA19569   4.282   4.040  10.654  0.5015 -1.4178  0.3932
  173SAPI    HB19570   4.415   4.156  10.626  0.1545 -0.5828 -1.0782
  173SAPI    C219571   4.447   3.969  10.531  0.3919 -0.2932 -0.2277
  173SAPI    HS19572   4.395   3.998  10.437  4.0485 -0.1172 -2.3996
  173SAPI   O2119573   4.421   3.829  10.552  0.0397 -0.2336  0.0282
  173SAPI   C2119574   4.300   3.797  10.507  0.0171 -0.4156 -0.5595
  173SAPI   O2219575   4.218   3.882  10.474  0.6628  0.0253 -0.0305
  173SAPI   C2219576   4.268   3.647  10.522  0.6154 -0.3155 -0.1025
  173SAPI   H2R19577   4.275   3.627  10.631 -3.4678 -1.9600  0.0146
  173SAPI   H2S19578   4.162   3.626  10.497  0.4147 -0.7623  1.0700
  173SAPI    C319579   4.598   3.994  10.496 -0.8132  0.1928  0.0199
  173SAPI    HX19580   4.660   3.983  10.587  0.7075 -2.1182 -1.1820
  173SAPI    HY19581   4.611   4.098  10.459  0.0903 -1.2027 -4.1094
  173SAPI   O3119582   4.646   3.918  10.381  0.0730 -0.6407  0.0533
  173SAPI   C3119583   4.695   3.799  10.402 -0.1599  0.6654 -0.0286
  173SAPI   O3219584   4.690   3.744  10.511 -0.3870  0.3218 -0.2376
  173SAPI   C3219585   4.753   3.739  10.275 -0.0064  0.0939 -0.1380
  173SAPI   H2X19586   4.825   3.809  10.228 -1.0033  0.7834 -0.6575
  173SAPI   H2Y19587   4.672   3.730  10.200  1.6067  0.9918 -2.0932
  173SAPI   C2319588   4.357   3.561  10.432  1.1033 -0.2376  0.2249
  173SAPI   H3R19589   4.354   3.454  10.460 -0.4556 -0.6502 -1.3170
  173SAPI   H3S19590   4.456   3.606  10.457  0.5901  0.7065  0.6074
  173SAPI   C2419591   4.334   3.575  10.275  0.7651 -0.8794 -0.1996
  173SAPI   H4R19592   4.436   3.573  10.232  0.2102 -0.5423 -1.6004
  173SAPI   H4S19593   4.300   3.674  10.239 -1.2113 -1.1286  0.8830
  173SAPI   C2519594   4.232   3.488  10.207  0.0341  1.1316 -0.0736
  173SAPI   H5R19595   4.157   3.437  10.269 -0.0950  1.8466  0.3777
  173SAPI   C2619596   4.234   3.453  10.076 -0.3151 -0.0930 -0.5545
  173SAPI   H6R19597   4.153   3.388  10.041 -2.7223  1.2976  2.0016
  173SAPI   C2719598   4.331   3.495   9.965 -0.4486 -0.1633 -0.7830
  173SAPI   H7R19599   4.437   3.515   9.993  0.1684 -3.0640 -0.7615
  173SAPI   H7S19600   4.296   3.592   9.924  1.0155  1.1544  0.9665
  173SAPI   C2819601   4.320   3.388   9.860  0.2627 -0.3797  0.4082
  173SAPI   H8R19602   4.347   3.283   9.883  1.4737 -0.1170  0.2500
  173SAPI   C2919603   4.281   3.410   9.730 -0.7997 -0.6654 -0.5277
  173SAPI   H9R19604   4.270   3.318   9.670  2.0581 -1.2418 -0.3157
  173SAPI  C21019605   4.242   3.543   9.666  0.0230 -0.0434 -0.1298
  173SAPI  H10R19606   4.315   3.613   9.713 -1.6293  1.8215 -0.1766
  173SAPI  H10S19607   4.145   3.585   9.700 -0.1500 -1.0154  0.6006
  173SAPI  C21119608   4.243   3.529   9.515 -1.1391 -0.8029 -0.0164
  173SAPI  H11R19609   4.160   3.469   9.475  0.4076 -2.7146 -0.5329
  173SAPI  C21219610   4.322   3.593   9.432 -0.4874 -0.3486 -0.7319
  173SAPI  H12R19611   4.307   3.579   9.324 -2.4281  2.1118 -0.8815
  173SAPI  C21319612   4.443   3.677   9.474  0.0862 -0.0337 -0.2923
  173SAPI  H13R19613   4.519   3.667   9.394 -0.3955  0.9871 -0.8947
  173SAPI  H13S19614   4.485   3.647   9.572 -2.5542 -2.1400  0.3101
  173SAPI  C21419615   4.416   3.824   9.484 -0.3089  0.4479 -0.0422
  173SAPI  H14R19616   4.325   3.852   9.429  0.0796  0.0846 -0.8955
  173SAPI  C21519617   4.491   3.907   9.561 -0.6491  0.3661  0.2052
  173SAPI  H15R19618   4.474   4.015   9.549 -0.6249  0.2569 -0.9792
  173SAPI  C21619619   4.607   3.859   9.644  0.0242  0.1838  0.0429
  173SAPI  H16R19620   4.688   3.935   9.654  2.5197 -2.2733 -0.1530
  173SAPI  H16S19621   4.658   3.768   9.605 -1.6458 -0.3415 -1.0117
  173SAPI  C21719622   4.566   3.815   9.786 -0.2557  0.5604 -0.4376
  173SAPI  H17R19623   4.658   3.784   9.839 -1.2419 -0.7924  0.5757
  173SAPI  H17S19624   4.494   3.730   9.790 -0.3210  0.4144 -3.1469
  173SAPI  C21819625   4.506   3.933   9.874  0.1529 -0.4647  0.5321
  173SAPI  H18R19626   4.412   3.971   9.828  0.8404  0.9567  0.2574
  173SAPI  H18S19627   4.584   4.012   9.865 -1.2239  1.1989  2.2545
  173SAPI  C21919628   4.501   3.898  10.021  0.0854  0.2888 -0.1889
  173SAPI  H19R19629   4.594   3.850  10.057 -0.7180  0.2261  1.9275
  173SAPI  H19S19630   4.416   3.830  10.045 -0.5264  1.7090  1.9277
  173SAPI  C22019631   4.479   4.012  10.113 -0.2298  0.2190  0.0715
  173SAPI  H20R19632   4.560   4.087  10.097  1.3368 -1.6264 -1.0690
  173SAPI  H20S19633   4.470   3.977  10.218 -1.7167  0.0946 -0.0742
  173SAPI  H20T19634   4.385   4.068  10.094 -1.4660 -2.0544 -0.9918
  173SAPI   C3319635   4.815   3.595  10.288  0.3149  0.1652 -0.2714
  173SAPI   H3X19636   4.725   3.541  10.323 -0.5183  1.3421 -0.5605
  173SAPI   H3Y19637   4.894   3.595  10.366 -0.5817 -0.6269  0.6687
  173SAPI   C3419638   4.852   3.540  10.149  0.7852 -0.3890  0.1044
  173SAPI   H4X19639   4.903   3.443  10.171  0.8657  0.0925  2.2598
  173SAPI   H4Y19640   4.927   3.610  10.106 -0.2809  1.1024  0.6206
  173SAPI   C3519641   4.734   3.523  10.058  0.1241 -0.3225  0.4590
  173SAPI   H5X19642   4.696   3.620  10.018  1.0025 -0.4244 -0.6581
  173SAPI   H5Y19643   4.654   3.476  10.120 -0.4323  2.3582  1.9362
  173SAPI   C3619644   4.751   3.428   9.946  0.8961  0.5706  0.2776
  173SAPI   H6X19645   4.647   3.413   9.911  1.1824  0.6274 -0.6284
  173SAPI   H6Y19646   4.793   3.329   9.974 -1.1232  0.0654  1.7236
  173SAPI   C3719647   4.822   3.494   9.823  0.6123 -0.0359 -0.4770
  173SAPI   H7X19648   4.916   3.548   9.848  0.4210  0.3796 -0.6517
  173SAPI   H7Y19649   4.755   3.567   9.774  0.8360  0.8509  0.4966
  173SAPI   C3819650   4.845   3.405   9.705 -0.6560  0.5151  0.4316
  173SAPI   H8X19651   4.749   3.358   9.674 -0.9184  0.4165  1.3588
  173SAPI   H8Y19652   4.925   3.336   9.740  0.1755 -0.1700 -2.4826
  173SAPI   C3919653   4.915   3.476   9.586  0.8578 -0.0299 -0.3931
  173SAPI   H9X19654   5.014   3.508   9.625  1.2678 -2.8012  1.1882
  173SAPI   H9Y19655   4.851   3.558   9.549  0.8800  0.1594 -0.0195
  173SAPI  C31019656   4.933   3.374   9.473  0.3241  0.4417 -0.0959
  173SAPI  H10X19657   4.849   3.302   9.467  0.6654  0.0468 -0.1242
  173SAPI  H10Y19658   5.020   3.308   9.490 -0.7348 -0.8709  0.3916
  173SAPI  C31119659   4.948   3.436   9.338  1.2602  0.0726 -0.2554
  173SAPI  H11X19660   4.987   3.366   9.262  1.0210 -0.0798 -0.2391
  173SAPI  H11Y19661   5.019   3.522   9.336  2.1930 -0.4669  3.3579
  173SAPI  C31219662   4.804   3.481   9.281  0.0122  0.5329 -0.8010
  173SAPI  H12X19663   4.742   3.523   9.364 -0.7907 -0.7857 -0.7006
  173SAPI  H12Y19664   4.753   3.386   9.257  1.1593 -0.1230 -0.7146
  173SAPI  C31319665   4.801   3.585   9.165 -0.3776 -0.8984  0.2807
  173SAPI  H13X19666   4.881   3.566   9.090 -0.7488 -1.8880  0.1176
  173SAPI  H13Y19667   4.827   3.686   9.203  0.5239 -0.9760 -0.0878
  173SAPI  C31419668   4.668   3.585   9.104  0.4568  0.1452 -0.5117
  173SAPI  H14X19669   4.599   3.609   9.188  1.8812 -0.4091  0.8811
  173SAPI  H14Y19670   4.630   3.491   9.059  1.0000 -0.8096  0.9479
  173SAPI  C31519671   4.648   3.694   8.994 -0.6595 -0.1068  0.2305
  173SAPI  H15X19672   4.611   3.638   8.906  1.5051 -0.0406 -0.7984
  173SAPI  H15Y19673   4.750   3.734   8.974  0.5045 -1.9159  2.1672
  173SAPI  C31619674   4.553   3.807   9.037  0.0771  0.4128 -0.2297
  173SAPI  H16X19675   4.563   3.831   9.145  1.1450  2.2733 -0.7055
  173SAPI  H16Y19676   4.450   3.770   9.020  0.7178 -1.8146  0.3649
  173SAPI  C31719677   4.572   3.933   8.947 -0.0296  0.2123  0.2300
  173SAPI  H17X19678   4.550   3.898   8.844 -0.5767 -0.5001  0.5841
  173SAPI  H17Y19679   4.676   3.971   8.962 -0.5028  2.0056 -0.6634
  173SAPI  C31819680   4.470   4.035   8.983  0.1484 -0.5782 -0.0497
  173SAPI  H18X19681   4.485   4.130   8.928  0.4114  0.1050  1.1527
  173SAPI  H18Y19682   4.480   4.058   9.092  0.0556  3.2954 -0.7210
  173SAPI  H18Z19683   4.365   4.008   8.959 -0.4745  1.3803  0.2924
  174SAPI   C1219684   3.428   6.622  11.002  0.6975  0.2544 -0.1119
  174SAPI    H219685   3.439   6.516  11.034 -0.1055  0.3800  0.6349
  174SAPI    O219686   3.295   6.662  11.037 -0.2070 -0.7258  0.9922
  174SAPI   HO219687   3.240   6.589  11.008 -0.3860  0.0244 -0.6477
  174SAPI   C1319688   3.532   6.706  11.071  0.0750  0.7789  0.4590
  174SAPI    H319689   3.632   6.665  11.046 -0.9616 -0.3992 -2.0617
  174SAPI    O319690   3.525   6.696  11.209  0.2043  0.4537  0.3753
  174SAPI   HO319691   3.437   6.730  11.229 -1.5022 -2.3844 -1.5826
  174SAPI   C1419692   3.527   6.850  11.014 -0.6620  0.3354 -0.4139
  174SAPI    H419693   3.425   6.887  11.036 -0.5563  1.1673 -1.2514
  174SAPI    O419694   3.612   6.935  11.085 -0.0915 -0.1139  0.9332
  174SAPI   HO419695   3.703   6.905  11.076  0.2241 -0.1397  3.4262
  174SAPI   C1519696   3.544   6.857  10.858  0.0634  0.3928 -0.0298
  174SAPI    H519697   3.645   6.811  10.859  0.3690  1.0377  0.9093
  174SAPI    O519698   3.546   6.987  10.803  0.5399  0.2032  0.3265
  174SAPI   HO519699   3.566   6.981  10.709  0.0248 -0.5876  0.2474
  174SAPI   C1619700   3.442   6.761  10.786 -0.8092  0.2137 -0.2824
  174SAPI    H619701   3.340   6.805  10.792 -1.4298 -1.3861  3.6247
  174SAPI    O619702   3.472   6.747  10.649 -0.1612  0.2955  0.2848
  174SAPI   HO619703   3.543   6.684  10.634 -1.0856 -1.1209  1.5439
  174SAPI   C1119704   3.449   6.620  10.847  0.2898  0.7763  0.0006
  174SAPI    H119705   3.549   6.580  10.823  0.1217  0.1485  0.3082
  174SAPI     P19706   3.379   6.367  10.777  0.0226 -0.1188  0.0474
  174SAPI   O1319707   3.247   6.302  10.800 -0.9422 -0.2568  0.9145
  174SAPI   O1419708   3.494   6.325  10.859 -0.0251 -0.5119  0.2440
  174SAPI   O1219709   3.354   6.530  10.791  0.2133 -0.0204  0.2571
  174SAPI   O1119710   3.406   6.350  10.616 -0.6850 -0.4245  0.1260
  174SAPI    C119711   3.320   6.419  10.526  0.1155  0.9827 -0.5515
  174SAPI    HA19712   3.221   6.368  10.520  0.7857 -0.2767 -1.0139
  174SAPI    HB19713   3.305   6.528  10.547  0.3044  1.3647 -2.2758
  174SAPI    C219714   3.366   6.426  10.373 -0.2269 -0.7751  0.3380
  174SAPI    HS19715   3.280   6.475  10.323  0.7954  0.9055  0.1382
  174SAPI   O2119716   3.414   6.299  10.315 -0.6112 -0.1763 -0.2308
  174SAPI   C2119717   3.315   6.213  10.303 -0.8816 -0.1026  0.0970
  174SAPI   O2219718   3.200   6.230  10.323  0.0849 -0.0157 -0.0950
  174SAPI   C2219719   3.369   6.082  10.252 -0.4159 -0.3805 -0.4217
  174SAPI   H2R19720   3.451   6.098  10.178  2.4128  1.7023  2.8288
  174SAPI   H2S19721   3.427   6.032  10.333  1.9172 -0.3722 -1.9815
  174SAPI    C319722   3.485   6.527  10.356  0.0667 -0.6127  0.0019
  174SAPI    HX19723   3.576   6.478  10.398 -0.1497  1.3848  3.0868
  174SAPI    HY19724   3.472   6.618  10.418  0.1913 -0.2542 -0.4959
  174SAPI   O3119725   3.500   6.564  10.215 -0.8542  0.4587 -0.6166
  174SAPI   C3119726   3.568   6.675  10.195  0.2265  0.1030  0.1804
  174SAPI   O3219727   3.598   6.749  10.289 -0.1361 -0.0960 -0.1962
  174SAPI   C3219728   3.607   6.699  10.054  0.1165  0.5989  0.1768
  174SAPI   H2X19729   3.631   6.806  10.035 -0.1085  0.3736 -1.5268
  174SAPI   H2Y19730   3.517   6.674   9.993  2.0053 -0.5940 -2.2837
  174SAPI   C2319731   3.262   5.992  10.199  0.3239 -0.0163  0.0413
  174SAPI   H3R19732   3.230   6.012  10.095  1.7749  1.1775 -0.2086
  174SAPI   H3S19733   3.162   5.992  10.248 -0.4669 -2.2115 -1.4406
  174SAPI   C2419734   3.304   5.839  10.215 -0.4353 -0.1465 -0.4290
  174SAPI   H4R19735   3.218   5.775  10.187 -0.0914 -0.2763 -1.2185
  174SAPI   H4S19736   3.339   5.830  10.320 -1.0191  2.5757  0.0924
  174SAPI   C2519737   3.412   5.797  10.119  0.4201 -0.4106 -0.1937
  174SAPI   H5R19738   3.511   5.842  10.134  1.7165 -1.4832 -4.2056
  174SAPI   C2619739   3.394   5.726  10.005 -0.1791  0.5398 -0.1819
  174SAPI   H6R19740   3.477   5.709   9.934 -1.2764 -0.2063 -1.3214
  174SAPI   C2719741   3.276   5.665   9.958  0.2547 -0.0305  0.0192
  174SAPI   H7R19742   3.184   5.707  10.004 -0.2523  1.1207 -1.9600
  174SAPI   H7S19743   3.281   5.557   9.983 -0.7257 -0.2186 -0.5697
  174SAPI   C2819744   3.268   5.694   9.810 -0.3495 -0.0030 -0.3914
  174SAPI   H8R19745   3.311   5.789   9.773 -0.3510  1.0064  2.0176
  174SAPI   C2919746   3.209   5.616   9.716 -0.2387  0.0340  0.2292
  174SAPI   H9R19747   3.200   5.655   9.614  0.2539 -2.0633 -0.6737
  174SAPI  C21019748   3.154   5.480   9.748 -0.6072  0.7255  0.1652
  174SAPI  H10R19749   3.143   5.463   9.857  1.4789 -1.4460  0.1143
  174SAPI  H10S19750   3.210   5.393   9.708  0.8523  1.3112  0.8515
  174SAPI  C21119751   3.014   5.484   9.689  0.1767 -0.5006 -0.4755
  174SAPI  H11R19752   2.940   5.528   9.757  0.0267 -1.7816  0.2330
  174SAPI  C21219753   2.973   5.474   9.560 -0.0668  0.4977  0.3722
  174SAPI  H12R19754   2.866   5.491   9.540 -0.5710 -0.9795  1.6318
  174SAPI  C21319755   3.056   5.444   9.441 -0.8948 -0.3946  0.1752
  174SAPI  H13R19756   3.148   5.504   9.456 -1.4776  0.4199  0.6019
  174SAPI  H13S19757   3.012   5.490   9.350 -1.1883  0.4813  0.7474
  174SAPI  C21419758   3.087   5.306   9.422 -1.1672 -0.5365  0.1484
  174SAPI  H14R19759   3.134   5.263   9.512  1.0722 -1.3406 -1.3100
  174SAPI  C21519760   3.086   5.241   9.304  0.2939 -0.4364  0.8702
  174SAPI  H15R19761   3.104   5.132   9.310 -0.2727 -0.8763 -3.1193
  174SAPI  C21619762   3.046   5.293   9.170  0.0114 -0.0031  0.3576
  174SAPI  H16R19763   2.997   5.393   9.173  0.2405  0.1527 -0.6296
  174SAPI  H16S19764   2.977   5.217   9.128  1.2151  0.0337 -1.8733
  174SAPI  C21719765   3.145   5.308   9.052  0.1672 -0.0426 -0.4383
  174SAPI  H17R19766   3.092   5.343   8.960 -1.8840  2.0297  1.4164
  174SAPI  H17S19767   3.194   5.210   9.035  0.3728 -0.0453  0.1455
  174SAPI  C21819768   3.245   5.417   9.093 -0.6373 -0.5410  0.6953
  174SAPI  H18R19769   3.333   5.418   9.024 -0.5274  1.8698  0.7879
  174SAPI  H18S19770   3.296   5.393   9.189  0.0216  0.0549  0.5015
  174SAPI  C21919771   3.183   5.559   9.095 -0.3174 -0.3352 -0.0041
  174SAPI  H19R19772   3.106   5.551   9.175  0.3861  0.0096  0.7196
  174SAPI  H19S19773   3.127   5.574   9.000  1.0372 -0.5255 -0.8502
  174SAPI  C22019774   3.279   5.679   9.124 -0.3294 -1.1072 -0.0858
  174SAPI  H20R19775   3.218   5.758   9.172  1.2767  0.5724 -0.6704
  174SAPI  H20S19776   3.331   5.722   9.035  1.4554 -1.5670  0.6734
  174SAPI  H20T19777   3.358   5.651   9.198 -0.3948 -1.9815 -0.3358
  174SAPI   C3319778   3.712   6.598   9.997  0.0357  0.3835 -0.0973
  174SAPI   H3X19779   3.677   6.495  10.018 -1.7270  0.5225 -1.9742
  174SAPI   H3Y19780   3.808   6.611  10.052  0.0819  0.8590 -0.2855
  174SAPI   C3419781   3.719   6.620   9.845  0.4326  0.5611  0.4412
  174SAPI   H4X19782   3.747   6.722   9.811  1.7295 -0.7426 -2.8956
  174SAPI   H4Y19783   3.619   6.599   9.799  0.7938 -2.1054  0.7065
  174SAPI   C3519784   3.835   6.544   9.782  0.3110 -0.1065  0.3351
  174SAPI   H5X19785   3.822   6.435   9.792 -1.1766  0.2168  3.1259
  174SAPI   H5Y19786   3.936   6.573   9.820 -0.2093  0.1421  1.6001
  174SAPI   C3619787   3.856   6.586   9.634  0.0044 -0.5673  0.9217
  174SAPI   H6X19788   3.876   6.694   9.619  2.2712 -1.3326 -2.8338
  174SAPI   H6Y19789   3.762   6.558   9.582 -1.0179  1.6315  1.4718
  174SAPI   C3719790   3.974   6.519   9.569 -0.8483 -0.3201 -0.1646
  174SAPI   H7X19791   3.960   6.410   9.557  3.8248 -1.1282 -0.2395
  174SAPI   H7Y19792   4.058   6.539   9.640 -1.6182  0.5682  0.5252
  174SAPI   C3819793   4.016   6.590   9.440  0.0620 -0.3430 -0.2934
  174SAPI   H8X19794   4.024   6.699   9.460 -0.4971 -0.5296  1.0748
  174SAPI   H8Y19795   3.943   6.576   9.357 -1.6836 -3.8813  1.5816
  174SAPI   C3919796   4.158   6.536   9.401  0.4528  0.4405 -0.6848
  174SAPI   H9X19797   4.155   6.426   9.418 -1.8327  0.4630 -0.5198
  174SAPI   H9Y19798   4.240   6.576   9.464  0.4620 -1.7808  0.8058
  174SAPI  C31019799   4.170   6.579   9.254 -0.0257  0.6010 -0.2731
  174SAPI  H10X19800   4.275   6.581   9.219  0.6946  2.3614  1.8045
  174SAPI  H10Y19801   4.125   6.680   9.240 -1.9077 -0.0937  0.4082
  174SAPI  C31119802   4.101   6.471   9.169  0.6980 -0.4313  0.4493
  174SAPI  H11X19803   3.997   6.440   9.195 -0.2271  0.6779 -1.6761
  174SAPI  H11Y19804   4.163   6.380   9.157  0.0598 -0.5987 -2.1835
  174SAPI  C31219805   4.078   6.505   9.024  0.9546  0.0340 -0.4737
  174SAPI  H12X19806   4.177   6.525   8.978  2.0825 -1.3355  1.2676
  174SAPI  H12Y19807   4.021   6.601   9.014 -0.5788 -0.8151 -0.2507
  174SAPI  C31319808   3.997   6.399   8.943  0.0945 -0.3178 -0.7291
  174SAPI  H13X19809   3.896   6.397   8.989  1.3351 -1.1274  2.2302
  174SAPI  H13Y19810   4.045   6.299   8.950  1.7067  0.5191  2.3565
  174SAPI  C31419811   3.992   6.450   8.796  0.0582 -0.1904 -0.1279
  174SAPI  H14X19812   4.091   6.481   8.756 -0.6329  2.2278 -0.0877
  174SAPI  H14Y19813   3.919   6.533   8.791 -1.8101 -1.8161 -1.1101
  174SAPI  C31519814   3.934   6.341   8.703 -0.2272  0.1361 -0.4913
  174SAPI  H15X19815   3.984   6.245   8.729 -0.4366  0.0396 -0.4404
  174SAPI  H15Y19816   3.963   6.361   8.597 -3.7740 -0.0185 -1.6301
  174SAPI  C31619817   3.785   6.314   8.707  0.1295  0.0060 -0.2094
  174SAPI  H16X19818   3.747   6.401   8.649 -2.5885 -0.0716  1.2737
  174SAPI  H16Y19819   3.751   6.331   8.812 -1.1160 -1.1155 -0.4075
  174SAPI  C31719820   3.737   6.182   8.642  0.7062 -0.3239 -0.0064
  174SAPI  H17X19821   3.755   6.173   8.533  1.1921  0.4524  0.0021
  174SAPI  H17Y19822   3.626   6.184   8.639  0.6548 -0.9497  0.8873
  174SAPI  C31819823   3.794   6.065   8.716  0.1357  0.1387 -0.1000
  174SAPI  H18X19824   3.774   6.066   8.826 -0.8865 -1.1315 -0.2482
  174SAPI  H18Y19825   3.902   6.058   8.695  0.1904 -0.9671  0.4784
  174SAPI  H18Z19826   3.738   5.971   8.698 -1.5000  0.4052  2.8643
  175SAPI   C1219827   2.657   3.637   6.059 -0.3415  0.5809  0.8555
  175SAPI    H219828   2.701   3.651   6.161  1.8864 -1.0777  0.1970
  175SAPI    O219829   2.515   3.643   6.072  0.0006 -0.5255  0.5134
  175SAPI   HO219830   2.484   3.558   6.105 -2.1441 -0.1707 -0.3651
  175SAPI   C1319831   2.706   3.739   5.958 -1.0152  0.4177  0.7187
  175SAPI    H319832   2.816   3.720   5.954 -1.1999 -0.5782 -0.0301
  175SAPI    O319833   2.688   3.874   5.999 -0.1424 -0.6850 -0.4218
  175SAPI   HO319834   2.598   3.878   6.032 -0.2150  0.6967 -0.7302
  175SAPI   C1419835   2.663   3.710   5.811  0.4724 -0.2041 -0.1867
  175SAPI    H419836   2.553   3.719   5.809  0.5883  2.4759  1.1040
  175SAPI    O419837   2.728   3.802   5.721 -0.4887 -0.5404  0.2945
  175SAPI   HO419838   2.691   3.890   5.729 -0.0907 -0.2269 -1.0326
  175SAPI   C1519839   2.699   3.570   5.776 -0.1506  0.3814 -0.3024
  175SAPI    H519840   2.805   3.546   5.797 -1.2864 -3.4774  2.1347
  175SAPI    O519841   2.673   3.548   5.634 -0.2252 -0.2892 -0.5186
  175SAPI   HO519842   2.616   3.620   5.608 -0.6838 -0.7033 -0.6827
  175SAPI   C1619843   2.624   3.476   5.867 -0.5408  0.0827  0.2584
  175SAPI    H619844   2.513   3.484   5.866 -0.4851  1.4775 -1.3901
  175SAPI    O619845   2.659   3.343   5.827 -0.7981 -0.1980  0.6528
  175SAPI   HO619846   2.651   3.355   5.732  0.5099  1.3971  0.6970
  175SAPI   C1119847   2.673   3.497   6.011  0.0458 -1.2450 -0.1069
  175SAPI    H119848   2.782   3.477   6.015  0.0634 -1.0233  0.8653
  175SAPI     P19849   2.695   3.311   6.210  0.4758 -0.0489  0.1191
  175SAPI   O1319850   2.815   3.262   6.150 -0.6324  0.0211  0.1958
  175SAPI   O1419851   2.604   3.215   6.277  0.2739 -0.4703  0.2899
  175SAPI   O1219852   2.613   3.400   6.098 -0.2179 -0.1357 -0.2484
  175SAPI   O1119853   2.738   3.408   6.328 -0.4360 -0.5808  0.1692
  175SAPI    C119854   2.637   3.485   6.402  0.1310 -0.0267 -0.3199
  175SAPI    HA19855   2.680   3.587   6.410 -0.1137  0.0374  0.2457
  175SAPI    HB19856   2.541   3.494   6.347  0.2299 -0.8817 -0.6480
  175SAPI    C219857   2.620   3.431   6.549  0.0204 -0.3790  0.1210
  175SAPI    HS19858   2.571   3.331   6.551  0.9154 -0.8266 -0.2235
  175SAPI   O2119859   2.531   3.518   6.622 -0.3641  0.4082  0.5205
  175SAPI   C2119860   2.467   3.472   6.731  0.8676  0.2275  0.1851
  175SAPI   O2219861   2.449   3.359   6.763 -0.3371  0.1427  0.1349
  175SAPI   C2219862   2.435   3.594   6.816  0.0430 -0.9560 -0.0868
  175SAPI   H2R19863   2.497   3.677   6.777  0.2524 -0.7607  0.6494
  175SAPI   H2S19864   2.331   3.620   6.788  0.4583  1.9670  0.8285
  175SAPI    C319865   2.759   3.414   6.618 -0.7845 -0.5400 -0.3619
  175SAPI    HX19866   2.808   3.513   6.631 -2.3294  0.2880 -0.6804
  175SAPI    HY19867   2.827   3.360   6.549  0.4387  1.4221 -0.7700
  175SAPI   O3119868   2.750   3.344   6.750  0.1279 -0.2026  1.1726
  175SAPI   C3119869   2.728   3.220   6.757  0.2410  0.3002  0.1538
  175SAPI   O3219870   2.704   3.141   6.665  0.4958  0.2308  0.9875
  175SAPI   C3219871   2.733   3.169   6.901 -0.3415 -0.0862  0.2091
  175SAPI   H2X19872   2.627   3.147   6.923 -0.4360 -0.9401 -0.9414
  175SAPI   H2Y19873   2.766   3.253   6.965 -0.2105 -1.3568  1.8786
  175SAPI   C2319874   2.452   3.571   6.968 -0.3289  0.2018 -1.2154
  175SAPI   H3R19875   2.386   3.490   7.008 -0.2687  1.5974  2.0878
  175SAPI   H3S19876   2.412   3.657   7.027 -0.0067 -1.0147  0.8851
  175SAPI   C2419877   2.595   3.541   7.014  0.1784  0.6629  0.0266
  175SAPI   H4R19878   2.632   3.454   6.956 -2.6886 -0.5654 -0.1220
  175SAPI   H4S19879   2.606   3.496   7.115  1.5742 -0.0882 -0.4443
  175SAPI   C2519880   2.693   3.655   6.995 -0.2318  0.7615  0.6870
  175SAPI   H5R19881   2.752   3.663   6.902 -1.8805  0.2648 -0.4577
  175SAPI   C2619882   2.717   3.734   7.099  0.3342  0.1405  0.6760
  175SAPI   H6R19883   2.793   3.812   7.078  0.1455  0.2133  0.2585
  175SAPI   C2719884   2.653   3.736   7.233  0.4865  0.1208 -0.0120
  175SAPI   H7R19885   2.696   3.646   7.282 -1.4744 -1.0660 -0.3550
  175SAPI   H7S19886   2.548   3.702   7.222  0.5206 -0.2030  0.6147
  175SAPI   C2819887   2.653   3.866   7.307  0.0869  0.4277 -0.6422
  175SAPI   H8R19888   2.659   3.956   7.244  1.8133  0.3106 -0.6932
  175SAPI   C2919889   2.664   3.880   7.442 -0.6392 -0.0540 -0.0442
  175SAPI   H9R19890   2.672   3.982   7.482 -1.2899  0.0754 -0.2256
  175SAPI  C21019891   2.663   3.760   7.543  0.3942 -0.5469 -0.4029
  175SAPI  H10R19892   2.680   3.658   7.502  0.1428 -0.6436 -0.2731
  175SAPI  H10S19893   2.567   3.760   7.599 -0.3823  0.4357 -1.6693
  175SAPI  C21119894   2.774   3.784   7.645  0.3449 -0.2053  0.5007
  175SAPI  H11R19895   2.874   3.798   7.601 -0.5500 -1.0265 -1.9952
  175SAPI  C21219896   2.760   3.789   7.780  0.0544  0.2811  0.3561
  175SAPI  H12R19897   2.855   3.808   7.831  0.3833 -0.3149 -0.0280
  175SAPI  C21319898   2.647   3.771   7.875  0.3358  0.3929 -0.9751
  175SAPI  H13R19899   2.567   3.847   7.862 -1.0820 -1.2161 -2.0693
  175SAPI  H13S19900   2.683   3.781   7.980 -2.4049 -3.2569  0.5556
  175SAPI  C21419901   2.571   3.639   7.870 -0.7921  0.8375  0.1550
  175SAPI  H14R19902   2.644   3.560   7.849 -0.1301  1.5981 -0.4606
  175SAPI  C21519903   2.448   3.610   7.890 -0.2557 -0.2311 -0.6628
  175SAPI  H15R19904   2.418   3.505   7.906 -0.3971 -0.0998 -0.0331
  175SAPI  C21619905   2.339   3.714   7.932 -0.0439  0.8275 -0.5910
  175SAPI  H16R19906   2.273   3.732   7.845  1.3017 -2.0384 -2.3833
  175SAPI  H16S19907   2.381   3.816   7.946  0.0512  0.6777  0.2861
  175SAPI  C21719908   2.255   3.682   8.056  0.0706  0.0986  0.2675
  175SAPI  H17R19909   2.323   3.662   8.141  1.3990 -4.5630 -1.5530
  175SAPI  H17S19910   2.201   3.588   8.030 -0.8540  0.7119 -0.0902
  175SAPI  C21819911   2.160   3.800   8.084 -0.0507  0.3118  0.3781
  175SAPI  H18R19912   2.206   3.889   8.036  1.8789 -1.0801 -0.4874
  175SAPI  H18S19913   2.148   3.824   8.191  0.8982  0.5670  0.4343
  175SAPI  C21919914   2.026   3.778   8.014  1.0817 -0.3333 -0.6024
  175SAPI  H19R19915   1.978   3.685   8.052 -2.9924  1.2634 -1.2805
  175SAPI  H19S19916   2.048   3.779   7.905  0.5654 -1.7084 -0.7420
  175SAPI  C22019917   1.927   3.896   8.039  0.1535 -0.9750 -0.3874
  175SAPI  H20R19918   1.939   3.927   8.145  0.3256  1.1151 -0.9839
  175SAPI  H20S19919   1.827   3.854   8.012 -0.0419 -0.7872  0.0389
  175SAPI  H20T19920   1.946   3.987   7.978 -0.3187 -0.8886 -0.4109
  175SAPI   C3319921   2.822   3.050   6.899 -0.7696 -0.3610 -1.5435
  175SAPI   H3X19922   2.919   3.072   6.849  0.6940 -0.4249  1.0912
  175SAPI   H3Y19923   2.792   2.957   6.847  0.2077 -2.4945  1.4302
  175SAPI   C3419924   2.837   3.005   7.046  0.6840 -0.2764  1.1696
  175SAPI   H4X19925   2.892   2.909   7.036 -0.6197 -0.8674 -0.9561
  175SAPI   H4Y19926   2.739   2.995   7.099  0.3310  1.4647  0.8997
  175SAPI   C3519927   2.921   3.108   7.123 -0.2478 -0.3135  0.3655
  175SAPI   H5X19928   2.888   3.214   7.119  2.9177  0.7289 -1.4177
  175SAPI   H5Y19929   3.027   3.102   7.092 -0.6004  1.5138 -1.3787
  175SAPI   C3619930   2.929   3.060   7.267  0.5195 -0.2065 -0.2049
  175SAPI   H6X19931   2.955   2.953   7.256 -0.2358 -0.2854 -1.2709
  175SAPI   H6Y19932   2.830   3.067   7.317  0.7576  0.6868  0.1656
  175SAPI   C3719933   3.033   3.135   7.352  0.1846  0.2010 -0.1552
  175SAPI   H7X19934   3.014   3.245   7.358  1.8625  0.5600 -0.8659
  175SAPI   H7Y19935   3.132   3.127   7.303  1.0471  2.7229  0.9843
  175SAPI   C3819936   3.033   3.078   7.496  0.1721 -1.0430  0.1717
  175SAPI   H8X19937   2.948   3.013   7.525 -0.9036  0.0015 -0.5219
  175SAPI   H8Y19938   3.016   3.169   7.558  1.1518  1.3148 -2.7329
  175SAPI   C3919939   3.169   3.037   7.541 -0.7514 -0.5794 -0.1958
  175SAPI   H9X19940   3.238   3.112   7.496 -1.7907  0.4314 -0.1696
  175SAPI   H9Y19941   3.191   2.943   7.485 -1.5892 -0.0519 -1.4648
  175SAPI  C31019942   3.195   3.032   7.688 -0.3319 -0.4640  0.2104
  175SAPI  H10X19943   3.178   3.128   7.740 -0.6878 -0.5116  0.1856
  175SAPI  H10Y19944   3.302   3.018   7.713 -0.1924 -0.8910 -0.5767
  175SAPI  C31119945   3.112   2.927   7.755 -0.0403 -0.4089  0.1896
  175SAPI  H11X19946   3.148   2.831   7.712 -0.3743  0.0109 -1.0797
  175SAPI  H11Y19947   3.005   2.950   7.738 -0.0684 -0.0857  0.7577
  175SAPI  C31219948   3.099   2.941   7.906  0.5949 -0.2388  0.5951
  175SAPI  H12X19949   3.010   2.887   7.947  0.0046  0.1561 -0.1344
  175SAPI  H12Y19950   3.088   3.049   7.929 -1.0753  0.0552 -1.2959
  175SAPI  C31319951   3.211   2.877   7.982 -0.0669  0.5674  0.3228
  175SAPI  H13X19952   3.305   2.909   7.931  1.2716 -0.6151  1.9274
  175SAPI  H13Y19953   3.200   2.767   7.967  0.5784  0.3885  1.1191
  175SAPI  C31419954   3.202   2.927   8.130  0.0378  0.5090 -0.7117
  175SAPI  H14X19955   3.095   2.926   8.160 -0.5617  1.1321 -2.6975
  175SAPI  H14Y19956   3.234   3.033   8.124  2.0531 -0.0661 -1.0675
  175SAPI  C31519957   3.306   2.857   8.220  0.3669  0.7365 -0.7614
  175SAPI  H15X19958   3.403   2.863   8.166 -1.0058 -0.6455 -3.6026
  175SAPI  H15Y19959   3.271   2.752   8.222  0.0004  0.7434 -3.3727
  175SAPI  C31619960   3.307   2.920   8.356 -0.3388 -0.2224  0.2725
  175SAPI  H16X19961   3.336   3.025   8.335 -4.1174  0.9943  0.5367
  175SAPI  H16Y19962   3.371   2.864   8.427  1.7271  1.3306 -0.2648
  175SAPI  C31719963   3.172   2.943   8.429 -1.0581  0.4280  0.1494
  175SAPI  H17X19964   3.132   2.843   8.454 -0.0377 -0.3743 -1.2610
  175SAPI  H17Y19965   3.105   3.009   8.370  3.4041  3.6963 -1.8231
  175SAPI  C31819966   3.196   3.021   8.557  0.8464  0.6086  1.0985
  175SAPI  H18X19967   3.297   2.997   8.595  0.7972 -1.6840 -0.0282
  175SAPI  H18Y19968   3.128   2.998   8.642  0.3826 -2.5300  0.0280
  175SAPI  H18Z19969   3.195   3.128   8.530 -0.2036  0.4597  0.4834
  176SAPI   C1219970   2.356   6.655   6.442  0.0622 -0.4892  0.1181
  176SAPI    H219971   2.393   6.718   6.525 -2.1462  1.0897  0.0101
  176SAPI    O219972   2.467   6.638   6.354 -0.4049 -0.1751  0.3883
  176SAPI   HO219973   2.551   6.600   6.383 -0.5834 -3.7060 -2.9672
  176SAPI   C1319974   2.294   6.520   6.488 -0.3084 -0.1811  0.3555
  176SAPI    H319975   2.207   6.532   6.556 -0.8198  2.0651 -0.6086
  176SAPI    O319976   2.394   6.431   6.550  0.7523 -0.0883  0.4679
  176SAPI   HO319977   2.410   6.471   6.636 -0.0323  2.0433 -0.3037
  176SAPI   C1419978   2.226   6.446   6.359 -0.4825 -0.4241 -0.6179
  176SAPI    H419979   2.300   6.425   6.279 -0.6760 -0.9733 -0.6596
  176SAPI    O419980   2.167   6.318   6.398  0.1947 -0.1096  0.0652
  176SAPI   HO419981   2.242   6.270   6.436  0.2994 -0.1746 -0.2238
  176SAPI   C1519982   2.135   6.541   6.292 -0.0076  0.8504  0.1127
  176SAPI    H519983   2.050   6.555   6.363 -0.3980 -0.7503 -0.0008
  176SAPI    O519984   2.073   6.478   6.177 -0.0569  0.3730  0.4957
  176SAPI   HO519985   2.109   6.390   6.170  1.4390  0.9911 -0.0460
  176SAPI   C1619986   2.188   6.684   6.262  0.2635 -0.3896  0.3524
  176SAPI    H619987   2.262   6.662   6.182  0.0384 -0.3774  0.1404
  176SAPI    O619988   2.080   6.761   6.206 -0.4486  0.2922 -0.4935
  176SAPI   HO619989   2.092   6.849   6.243 -1.0076  0.8968 -1.7090
  176SAPI   C1119990   2.250   6.750   6.382  0.2309  0.3052 -0.1510
  176SAPI    H119991   2.170   6.774   6.456  2.6372  2.4143  1.9501
  176SAPI     P19992   2.382   6.983   6.422 -0.1457 -0.4105 -0.1295
  176SAPI   O1319993   2.424   7.096   6.331  0.2029  0.0010  0.0108
  176SAPI   O1419994   2.484   6.927   6.510 -0.1788  0.7711 -0.3903
  176SAPI   O1219995   2.297   6.875   6.338 -0.6399 -0.2598  0.6729
  176SAPI   O1119996   2.271   7.039   6.513 -0.2474 -0.0803 -0.2413
  176SAPI    C119997   2.279   7.042   6.659  0.3670 -0.3947 -0.1567
  176SAPI    HA19998   2.375   7.086   6.694  0.9092  1.6217 -3.7158
  176SAPI    HB19999   2.216   7.127   6.691  1.2086 -0.4064  1.6956
  176SAPI    C220000   2.227   6.916   6.726 -0.2347 -0.1399 -0.1475
  176SAPI    HS20001   2.300   6.837   6.698 -0.5490 -0.8070  0.8545
  176SAPI   O2120002   2.095   6.894   6.675  0.9162 -0.0942 -0.1776
  176SAPI   C2120003   2.060   6.764   6.700 -0.4839 -0.1370  0.0365
  176SAPI   O2220004   2.131   6.680   6.746  0.4541  0.3241 -0.1938
  176SAPI   C2220005   1.907   6.747   6.660  0.5548 -0.1533  0.0142
  176SAPI   H2R20006   1.844   6.806   6.730 -1.5436 -0.5787 -1.4145
  176SAPI   H2S20007   1.893   6.796   6.561  0.0984  0.4473  0.3639
  176SAPI    C320008   2.217   6.929   6.884  0.0149  0.1096  0.3438
  176SAPI    HX20009   2.182   6.833   6.927  1.2688 -1.4373 -1.8493
  176SAPI    HY20010   2.145   7.012   6.898  0.5147  0.4377  0.9794
  176SAPI   O3120011   2.343   6.975   6.942  0.6519  0.1115 -0.0788
  176SAPI   C3120012   2.430   6.881   6.980 -0.0145 -0.5647  0.2663
  176SAPI   O3220013   2.416   6.760   6.954  0.1367 -0.6471  0.3603
  176SAPI   C3220014   2.557   6.944   7.046 -0.0014  0.2450  0.0054
  176SAPI   H2X20015   2.586   7.036   6.990  1.7009 -0.3657 -0.1928
  176SAPI   H2Y20016   2.635   6.866   7.030  0.3316  0.4945  0.3668
  176SAPI   C2320017   1.865   6.600   6.667 -0.4172  0.3564 -0.4333
  176SAPI   H3R20018   1.932   6.537   6.605 -1.3905 -1.3096  0.1382
  176SAPI   H3S20019   1.762   6.583   6.629 -0.6370 -1.1956  0.7490
  176SAPI   C2420020   1.867   6.537   6.804  0.3183 -0.0074 -0.3065
  176SAPI   H4R20021   1.968   6.527   6.849 -0.3029  0.1956  1.2095
  176SAPI   H4S20022   1.833   6.432   6.793  1.2976 -0.5821  1.6943
  176SAPI   C2520023   1.773   6.588   6.915  0.0040  0.1541 -0.6660
  176SAPI   H5R20024   1.669   6.604   6.881 -0.2308  0.6475  0.2335
  176SAPI   C2620025   1.806   6.619   7.042 -0.4720 -0.1988  0.0848
  176SAPI   H6R20026   1.731   6.657   7.113 -0.7540  0.9836 -0.7993
  176SAPI   C2720027   1.945   6.609   7.098  0.4154 -0.1286  0.4256
  176SAPI   H7R20028   2.023   6.599   7.019 -0.3034  1.3848 -0.5080
  176SAPI   H7S20029   1.959   6.512   7.151  2.0773 -0.8180 -1.1350
  176SAPI   C2820030   1.988   6.719   7.189 -0.2516 -0.0817  0.2709
  176SAPI   H8R20031   2.049   6.796   7.138  0.0526 -1.7547 -2.0687
  176SAPI   C2920032   1.958   6.736   7.317 -0.2706 -0.0118 -0.9972
  176SAPI   H9R20033   1.989   6.831   7.362 -1.3346  0.2395 -0.7651
  176SAPI  C21020034   1.870   6.636   7.397 -0.5118 -0.2548  0.3484
  176SAPI  H10R20035   1.939   6.586   7.468 -1.0503 -1.8731 -0.2178
  176SAPI  H10S20036   1.846   6.543   7.341 -0.4949  0.3444 -0.6668
  176SAPI  C21120037   1.749   6.695   7.459  0.1106  0.1064 -0.2453
  176SAPI  H11R20038   1.700   6.772   7.397  0.3410 -0.3631 -1.0246
  176SAPI  C21220039   1.695   6.665   7.580 -0.0793 -0.2276  0.0970
  176SAPI  H12R20040   1.622   6.737   7.619  0.8995  0.2818  1.0284
  176SAPI  C21320041   1.750   6.561   7.671  0.2361 -0.6398 -0.4858
  176SAPI  H13R20042   1.806   6.489   7.609 -0.1483 -2.0795  0.7876
  176SAPI  H13S20043   1.672   6.499   7.720 -0.0725  0.0471 -0.0776
  176SAPI  C21420044   1.847   6.613   7.778  0.0858 -0.2086 -0.2821
  176SAPI  H14R20045   1.932   6.672   7.741 -0.2134  1.7809  1.9294
  176SAPI  C21520046   1.844   6.595   7.908  0.0416  0.1086  0.3344
  176SAPI  H15R20047   1.924   6.642   7.967  0.0319  0.9900 -0.3282
  176SAPI  C21620048   1.738   6.539   7.995  0.1278 -0.3674  0.1232
  176SAPI  H16R20049   1.681   6.455   7.950 -0.3034  0.1974 -0.3979
  176SAPI  H16S20050   1.656   6.613   8.007  1.7531  1.1879  2.5310
  176SAPI  C21720051   1.799   6.488   8.126 -0.9046  0.4714  0.8034
  176SAPI  H17R20052   1.723   6.445   8.195  1.0329 -2.2252  1.4139
  176SAPI  H17S20053   1.852   6.559   8.193  1.4730 -1.0432  0.6406
  176SAPI  C21820054   1.891   6.366   8.101 -0.1472 -0.1631 -0.4331
  176SAPI  H18R20055   1.982   6.396   8.044 -0.2361  0.2877 -0.3377
  176SAPI  H18S20056   1.837   6.296   8.034  0.5625 -0.0314 -1.1644
  176SAPI  C21920057   1.948   6.298   8.224 -0.3692 -1.0080  0.7645
  176SAPI  H19R20058   2.014   6.372   8.274 -2.6924  0.3607  1.9719
  176SAPI  H19S20059   2.008   6.212   8.188 -0.8688 -1.0146 -0.0656
  176SAPI  C22020060   1.839   6.245   8.319 -0.2015 -0.4148  0.4025
  176SAPI  H20R20061   1.896   6.184   8.393  1.2647  0.6206  0.1747
  176SAPI  H20S20062   1.754   6.193   8.270 -0.3799  0.9840 -0.8363
  176SAPI  H20T20063   1.806   6.321   8.393 -1.3623 -1.0991  0.6118
  176SAPI   C3320064   2.526   6.981   7.193  0.4968  0.0218 -0.1814
  176SAPI   H3X20065   2.457   7.067   7.201 -3.8634 -3.2335  1.2408
  176SAPI   H3Y20066   2.617   7.025   7.238  0.2314 -0.9533  1.3904
  176SAPI   C3420067   2.477   6.872   7.290 -0.4671  0.1731  0.2762
  176SAPI   H4X20068   2.546   6.785   7.284 -0.2439  0.2640  1.3418
  176SAPI   H4Y20069   2.393   6.831   7.230 -0.2733  0.9518 -0.5469
  176SAPI   C3520070   2.451   6.912   7.428  0.5338 -0.4226 -0.3438
  176SAPI   H5X20071   2.389   7.003   7.415  4.3304  2.2956 -1.4169
  176SAPI   H5Y20072   2.538   6.946   7.490 -0.2025 -1.2490  1.2138
  176SAPI   C3620073   2.363   6.817   7.514  0.0564 -0.0986 -0.0295
  176SAPI   H6X20074   2.386   6.710   7.497  1.0997 -1.0048  5.2226
  176SAPI   H6Y20075   2.263   6.823   7.466 -0.2371 -2.6006  0.1369
  176SAPI   C3720076   2.367   6.868   7.666 -0.6993 -0.2341 -0.4087
  176SAPI   H7X20077   2.310   6.960   7.691 -0.0295  0.0191  0.2188
  176SAPI   H7Y20078   2.474   6.885   7.689 -0.9268  1.0353 -0.2534
  176SAPI   C3820079   2.317   6.760   7.764  0.3010 -0.0731 -0.0592
  176SAPI   H8X20080   2.373   6.664   7.756  2.3692  0.9489  1.2251
  176SAPI   H8Y20081   2.208   6.746   7.748 -0.0363  1.8707  0.2713
  176SAPI   C3920082   2.338   6.801   7.910 -0.2064 -0.2668 -0.2134
  176SAPI   H9X20083   2.308   6.906   7.927  1.7797  0.4508 -0.8289
  176SAPI   H9Y20084   2.448   6.812   7.922 -0.2522  1.5536 -1.1265
  176SAPI  C31020085   2.269   6.701   8.004  0.1021 -0.4708  0.0149
  176SAPI  H10X20086   2.305   6.600   7.974 -2.2104 -1.1366 -0.7567
  176SAPI  H10Y20087   2.159   6.709   7.990  0.1242  1.9799  0.7809
  176SAPI  C31120088   2.281   6.729   8.159 -1.3126 -0.3730 -0.0855
  176SAPI  H11X20089   2.256   6.836   8.172 -0.1490  0.0460 -1.1428
  176SAPI  H11Y20090   2.389   6.716   8.180 -0.8346 -0.4822 -2.3210
  176SAPI  C31220091   2.208   6.631   8.238  0.6298 -0.2645 -0.2989
  176SAPI  H12X20092   2.247   6.529   8.218  2.6528  0.5357 -0.6340
  176SAPI  H12Y20093   2.100   6.639   8.211 -0.2548  0.1531  2.8975
  176SAPI  C31320094   2.215   6.665   8.391 -0.1604  0.5231  0.3256
  176SAPI  H13X20095   2.172   6.766   8.407 -0.5467  0.2768  0.8514
  176SAPI  H13Y20096   2.317   6.677   8.433 -0.6162  2.0943  1.0415
  176SAPI  C31420097   2.165   6.545   8.474  0.2378 -0.6859  0.7113
  176SAPI  H14X20098   2.215   6.451   8.440 -0.1978 -0.9467  0.7877
  176SAPI  H14Y20099   2.058   6.540   8.448  0.3184 -1.5426  0.5045
  176SAPI  C31520100   2.163   6.573   8.623 -0.4028  1.1005 -0.3019
  176SAPI  H15X20101   2.078   6.641   8.644 -1.7042 -0.2401 -1.0003
  176SAPI  H15Y20102   2.267   6.602   8.648  1.4544 -2.3953 -2.9436
  176SAPI  C31620103   2.123   6.456   8.719 -0.2582  0.1540  0.0476
  176SAPI  H16X20104   2.184   6.364   8.704 -1.9088 -0.6996 -1.7679
  176SAPI  H16Y20105   2.017   6.425   8.710 -1.0946  2.4693  1.1121
  176SAPI  C31720106   2.130   6.483   8.867  0.1885 -0.0105 -0.2149
  176SAPI  H17X20107   2.050   6.550   8.905  0.0636 -0.1513 -0.2241
  176SAPI  H17Y20108   2.229   6.524   8.895  0.1513 -0.4765  0.6353
  176SAPI  C31820109   2.120   6.345   8.945 -0.7089 -0.1982 -0.8185
  176SAPI  H18X20110   2.110   6.374   9.052 -2.0971 -0.2956 -0.9129
  176SAPI  H18Y20111   2.213   6.287   8.924 -0.6100 -0.6586  0.7468
  176SAPI  H18Z20112   2.034   6.288   8.904  0.6871 -2.3383 -0.9813
  177SLPC     N20113   4.112   3.079  10.903 -0.5162  0.1816 -0.8870
  177SLPC   C1320114   4.017   3.038  11.003 -0.3183  0.4376  0.0600
  177SLPC  H13A20115   3.962   3.124  11.036 -1.0568  0.7655 -1.9039
  177SLPC  H13B20116   3.966   2.948  10.972  3.2126 -2.2390  1.1954
  177SLPC  H13C20117   4.059   2.987  11.089 -0.7496  0.9923  0.6024
  177SLPC   C1420118   4.155   3.210  10.953  0.8824 -0.6109 -0.3338
  177SLPC  H14A20119   4.068   3.263  10.990  0.0782 -1.0271 -1.5741
  177SLPC  H14B20120   4.213   3.201  11.044 -1.3000  0.1848  1.2056
  177SLPC  H14C20121   4.217   3.264  10.883  0.4947 -1.5475 -1.4231
  177SLPC   C1520122   4.043   3.081  10.771 -0.2229  0.5951 -0.4953
  177SLPC  H15A20123   3.974   3.164  10.781 -1.5557 -0.6903  2.2074
  177SLPC  H15B20124   4.109   3.094  10.687  2.4582 -1.4482  1.1530
  177SLPC  H15C20125   3.983   2.994  10.749  0.5029  0.2959 -1.2843
  177SLPC   C1220126   4.231   2.983  10.885 -0.3744  0.8207  0.4573
  177SLPC  H12A20127   4.287   2.988  10.794  0.0259  0.2475  0.6654
  177SLPC  H12B20128   4.194   2.882  10.887  1.3688  0.1232 -0.5933
  177SLPC   C1120129   4.340   2.973  11.000  0.2065 -0.4868  0.0841
  177SLPC  H11A20130   4.393   2.880  10.970  1.3341  0.4693 -0.9401
  177SLPC  H11B20131   4.292   2.967  11.100  1.4244  2.3204  0.9281
  177SLPC     P20132   4.553   3.103  10.906  0.1169  0.0088 -0.3839
  177SLPC   O1320133   4.573   3.246  10.884 -0.3386  0.1982 -0.0967
  177SLPC   O1420134   4.659   3.028  10.969 -0.2185  0.2950 -0.4368
  177SLPC   O1220135   4.430   3.085  10.998 -0.1028 -0.4873 -0.0108
  177SLPC   O1120136   4.512   3.024  10.774 -0.5724 -0.6173 -0.2709
  177SLPC    C120137   4.490   3.092  10.654 -1.2702 -0.2024  0.4930
  177SLPC    HA20138   4.385   3.130  10.657 -0.3992  2.4458  0.2055
  177SLPC    HB20139   4.553   3.182  10.637 -2.0851 -0.0496 -2.2140
  177SLPC    C220140   4.516   2.997  10.535 -0.6327  0.1379  0.6879
  177SLPC    HS20141   4.623   2.966  10.544 -0.0207  2.4010  1.9443
  177SLPC   O2120142   4.476   3.061  10.418  0.3044 -0.1659  0.8224
  177SLPC   C2120143   4.565   3.149  10.368  0.1493  0.1758 -0.1279
  177SLPC   O2220144   4.679   3.163  10.417  0.3644  0.5110  0.2401
  177SLPC   C2220145   4.510   3.222  10.255  0.1214 -0.3028  0.3328
  177SLPC   H2R20146   4.406   3.193  10.229  0.0704  0.2380 -0.0769
  177SLPC   H2S20147   4.506   3.332  10.272  1.2843 -0.1378 -0.4121
  177SLPC    C320148   4.433   2.869  10.551 -0.0149  0.0715 -0.1504
  177SLPC    HX20149   4.345   2.879  10.617 -0.4576  0.9052 -0.8423
  177SLPC    HY20150   4.505   2.810  10.612  0.5854  2.3101  1.4242
  177SLPC   O3120151   4.397   2.803  10.423  0.2358 -0.0725 -0.1571
  177SLPC   C3120152   4.291   2.844  10.359  0.3131  0.0944  0.4585
  177SLPC   O3220153   4.209   2.922  10.404 -0.1083  0.0259 -0.6787
  177SLPC   C3220154   4.294   2.794  10.214  0.5664  0.2087  0.5973
  177SLPC   H2X20155   4.263   2.688  10.203 -0.1475  0.5862 -1.5416
  177SLPC   H2Y20156   4.401   2.774  10.192  0.2980 -2.5036  1.3974
  177SLPC   C2320157   4.607   3.188  10.139 -0.4283 -0.0839  0.0449
  177SLPC   H3R20158   4.711   3.215  10.166 -0.7061 -0.3613  1.4531
  177SLPC   H3S20159   4.564   3.252  10.059  1.2884 -1.6473 -2.2789
  177SLPC   C2420160   4.599   3.042  10.091 -0.3068  0.0203 -1.1462
  177SLPC   H4R20161   4.510   2.982  10.119  0.2334 -0.1906  0.2383
  177SLPC   H4S20162   4.677   2.985  10.147  0.0769  0.7224 -0.9463
  177SLPC   C2520163   4.638   3.008   9.952  0.7717 -0.3932 -0.4915
  177SLPC   H5R20164   4.641   2.899   9.931 -1.0643 -0.3297 -1.2686
  177SLPC   H5S20165   4.741   3.046   9.934  0.3638 -0.0131 -2.1565
  177SLPC   C2620166   4.549   3.072   9.840 -0.7624  0.5860  0.0259
  177SLPC   H6R20167   4.563   3.182   9.839  0.0625  0.4834 -0.8049
  177SLPC   H6S20168   4.442   3.061   9.868 -1.0455  0.6333 -0.9833
  177SLPC   C2720169   4.563   3.004   9.702 -0.2037  0.3200 -0.6108
  177SLPC   H7R20170   4.517   2.903   9.703 -0.3097  0.3557 -1.3630
  177SLPC   H7S20171   4.669   2.992   9.671  0.0126 -1.6431  0.6907
  177SLPC   C2820172   4.471   3.073   9.589 -0.5600 -0.1274 -0.1386
  177SLPC   H8R20173   4.374   3.095   9.639 -0.9482  1.7376 -1.5996
  177SLPC   H8S20174   4.473   3.000   9.506  0.5688 -1.8635  1.3311
  177SLPC   C2920175   4.522   3.206   9.552 -0.5649 -0.3557  0.2851
  177SLPC   H9R20176   4.540   3.273   9.637  1.4550  1.4177 -1.4243
  177SLPC  C21020177   4.580   3.245   9.432 -0.2137 -0.5504 -0.3010
  177SLPC  H10R20178   4.628   3.344   9.425  2.3489 -1.2523  3.9178
  177SLPC  C21120179   4.587   3.162   9.302  0.0377  0.1429 -0.3704
  177SLPC  H11R20180   4.512   3.080   9.300 -0.4689  0.6198 -1.2633
  177SLPC  H11S20181   4.587   3.216   9.205  2.6685 -0.8397 -1.0058
  177SLPC  C21220182   4.719   3.085   9.315  0.0898  0.1937  0.0272
  177SLPC  H12R20183   4.744   3.054   9.417  0.1428 -1.0739 -0.3561
  177SLPC  C21320184   4.785   3.029   9.207 -0.0417  0.6236  0.1277
  177SLPC  H13R20185   4.862   2.955   9.233 -1.0714  0.2944  2.4221
  177SLPC  C21420186   4.744   3.035   9.059 -0.4003 -0.3444  0.1939
  177SLPC  H14R20187   4.660   3.098   9.021  1.2274  1.5787 -0.3790
  177SLPC  H14S20188   4.715   2.932   9.028 -0.4007  0.0564 -1.1759
  177SLPC  C21520189   4.866   3.061   8.976  0.2645 -0.0718 -0.1185
  177SLPC  H15R20190   4.870   2.986   8.895  0.6731 -1.2772  0.9876
  177SLPC  H15S20191   4.959   3.029   9.027  0.6490  0.0966 -0.7076
  177SLPC  C21620192   4.880   3.209   8.937 -0.0334 -0.2738  0.5082
  177SLPC  H16R20193   4.913   3.264   9.028  1.4800 -0.4819  0.1026
  177SLPC  H16S20194   4.778   3.245   8.911  0.4505  1.0077  0.3068
  177SLPC  C21720195   4.975   3.220   8.815 -0.2620 -0.3216  0.1514
  177SLPC  H17R20196   4.931   3.171   8.726 -1.6855  0.9820  0.1161
  177SLPC  H17S20197   5.071   3.167   8.836 -0.7069 -0.4076  2.1762
  177SLPC  C21820198   4.990   3.369   8.783  0.3921  0.0002  0.1011
  177SLPC  H18R20199   5.054   3.377   8.692 -0.9436 -1.0865 -0.9877
  177SLPC  H18S20200   5.036   3.416   8.872 -0.4634 -2.2024  1.8057
  177SLPC  H18T20201   4.894   3.417   8.755 -0.0991 -0.3375  1.1687
  177SLPC   C3320202   4.223   2.882  10.116  0.1157  0.5953 -0.3303
  177SLPC   H3X20203   4.245   2.989  10.136  0.2750  0.7807 -1.4367
  177SLPC   H3Y20204   4.115   2.877  10.138  0.3857  1.4345  1.3742
  177SLPC   C3420205   4.231   2.845   9.968  0.0546 -0.1897  0.4556
  177SLPC   H4X20206   4.197   2.742   9.943  0.2416  0.2561 -1.8545
  177SLPC   H4Y20207   4.336   2.857   9.934 -0.5383 -0.4064 -1.6421
  177SLPC   C3520208   4.146   2.936   9.877 -0.4580  0.5000  0.2032
  177SLPC   H5X20209   4.172   3.042   9.899 -1.5889  1.0879 -1.1091
  177SLPC   H5Y20210   4.043   2.932   9.919 -1.2602  1.0333 -1.6377
  177SLPC   C3620211   4.161   2.907   9.730 -1.2155  0.1315  0.0926
  177SLPC   H6X20212   4.132   2.800   9.730 -0.2184 -0.1543  0.5060
  177SLPC   H6Y20213   4.269   2.917   9.707 -0.7959 -1.0840  1.3935
  177SLPC   C3720214   4.068   2.989   9.637  0.4826 -0.2762  0.1201
  177SLPC   H7X20215   4.058   3.089   9.684 -1.3122 -1.0792  1.5676
  177SLPC   H7Y20216   3.964   2.953   9.650 -0.8514  2.3310 -2.2956
  177SLPC   C3820217   4.118   3.004   9.495 -0.0383  0.0552 -0.4078
  177SLPC   H8X20218   4.131   2.898   9.462 -0.9581 -1.6453  4.0036
  177SLPC   H8Y20219   4.223   3.039   9.488  0.9696 -2.5809  0.1892
  177SLPC   C3920220   4.018   3.089   9.409 -0.9661  0.4862 -0.2165
  177SLPC   H9X20221   4.023   3.193   9.447 -1.3399  0.6849 -0.6952
  177SLPC   H9Y20222   3.919   3.041   9.419 -0.1069 -1.2484  0.3811
  177SLPC  C31020223   4.067   3.087   9.263  0.6201  0.4739  0.0271
  177SLPC  H10X20224   3.983   3.127   9.203 -1.6737 -1.9259  1.3948
  177SLPC  H10Y20225   4.083   2.981   9.232  0.8947  0.1468  1.2330
  177SLPC  C31120226   4.192   3.167   9.240 -0.3794  0.6321 -1.0809
  177SLPC  H11X20227   4.277   3.100   9.267  0.1091  1.9942  1.0117
  177SLPC  H11Y20228   4.194   3.257   9.305  0.1052 -1.0638  1.3853
  177SLPC  C31220229   4.205   3.226   9.097  0.1563  0.4532  0.2212
  177SLPC  H12X20230   4.127   3.304   9.084  0.2546  0.3667 -0.9865
  177SLPC  H12Y20231   4.182   3.142   9.028 -1.6577 -0.4987  1.8789
  177SLPC  C31320232   4.344   3.287   9.056  0.7319  0.1362  0.7124
  177SLPC  H13X20233   4.411   3.200   9.036  0.6820  0.2178  0.1723
  177SLPC  H13Y20234   4.393   3.342   9.140  0.3880 -0.3311  1.2299
  177SLPC  C31420235   4.341   3.370   8.933 -0.2972  0.9229 -0.4242
  177SLPC  H14X20236   4.305   3.304   8.851 -2.5434 -2.9312  3.2375
  177SLPC  H14Y20237   4.445   3.403   8.913 -0.9907  2.5203 -1.6349
  177SLPC  C31520238   4.240   3.491   8.943 -1.3621  0.1405  0.5886
  177SLPC  H15X20239   4.250   3.537   9.043 -1.8128  1.6215 -0.0227
  177SLPC  H15Y20240   4.132   3.467   8.941 -1.6240  1.0811  2.1193
  177SLPC  C31620241   4.269   3.584   8.826  0.6170  0.3877 -0.6312
  177SLPC  H16X20242   4.375   3.616   8.831  0.8956 -0.6857  0.8482
  177SLPC  H16Y20243   4.206   3.674   8.842 -1.1315 -0.9351  0.4312
  177SLPC  C31720244   4.245   3.523   8.690 -0.8112  1.0765  0.3837
  177SLPC  H17X20245   4.137   3.499   8.683 -1.2633  1.9865  3.0694
  177SLPC  H17Y20246   4.310   3.436   8.667  0.1239  2.4142 -2.5106
  177SLPC  C31820247   4.270   3.624   8.574  0.0968 -0.7279 -0.1936
  177SLPC  H18X20248   4.224   3.724   8.589  2.1242  0.1606  0.4563
  177SLPC  H18Y20249   4.244   3.584   8.474  2.0737 -1.1042 -0.5916
  177SLPC  H18Z20250   4.379   3.644   8.574  0.2167 -1.1068 -2.7336
  178SLPC     N20251   3.832   2.291  10.975 -0.0550  0.0033  0.0377
  178SLPC   C1320252   3.961   2.327  11.041 -0.2981 -0.6392 -0.4492
  178SLPC  H13A20253   4.015   2.247  11.089  0.9187  2.3045  3.5817
  178SLPC  H13B20254   4.036   2.367  10.974  0.7868  0.5041  1.3625
  178SLPC  H13C20255   3.938   2.402  11.116  1.8540  0.3535 -0.7203
  178SLPC   C1420256   3.754   2.210  11.073 -0.3680 -0.4009  0.8519
  178SLPC  H14A20257   3.758   2.273  11.161  2.2057  1.6940 -0.6021
  178SLPC  H14B20258   3.650   2.209  11.042 -0.7857  0.7586  2.0872
  178SLPC  H14C20259   3.798   2.113  11.087  0.5956 -0.0647  0.2374
  178SLPC   C1520260   3.863   2.204  10.858 -0.5778  0.3990 -0.9184
  178SLPC  H15A20261   3.935   2.253  10.794 -0.8838  2.6097  0.3313
  178SLPC  H15B20262   3.904   2.110  10.892  0.8861  0.6243 -1.9730
  178SLPC  H15C20263   3.773   2.182  10.804 -0.5338  2.2607 -1.8433
  178SLPC   C1220264   3.761   2.419  10.930 -0.1950 -0.3079  0.1821
  178SLPC  H12A20265   3.757   2.487  11.014  0.7704  2.1848 -1.7034
  178SLPC  H12B20266   3.656   2.402  10.913 -0.1494 -0.7032  0.2790
  178SLPC   C1120267   3.817   2.490  10.805  0.3315 -0.2237 -0.2928
  178SLPC  H11A20268   3.746   2.573  10.783  0.3619 -0.5941 -1.9180
  178SLPC  H11B20269   3.809   2.419  10.720  0.5644 -2.6624  1.6073
  178SLPC     P20270   3.998   2.680  10.854 -0.0863 -0.4861  0.0523
  178SLPC   O1320271   3.943   2.708  10.990 -0.6482  0.2646 -0.6317
  178SLPC   O1420272   4.145   2.698  10.831 -0.2190 -0.1443 -0.1008
  178SLPC   O1220273   3.960   2.531  10.814 -0.2392  0.1766 -0.3978
  178SLPC   O1120274   3.920   2.780  10.759 -0.3024 -0.1873  0.5418
  178SLPC    C120275   3.952   2.788  10.616  0.3296  0.0412 -0.4120
  178SLPC    HA20276   4.047   2.844  10.603  1.0792 -1.3390 -1.1240
  178SLPC    HB20277   3.962   2.685  10.576  1.3845 -0.1399  0.3094
  178SLPC    C220278   3.839   2.848  10.540 -1.1202  0.3916  0.3281
  178SLPC    HS20279   3.813   2.948  10.580 -0.7359 -0.1776  2.0434
  178SLPC   O2120280   3.731   2.757  10.542  0.1058  0.2603 -0.1766
  178SLPC   C2120281   3.614   2.823  10.524 -0.6766  0.1110 -0.6818
  178SLPC   O2220282   3.597   2.939  10.533 -0.2565  0.0908  0.3793
  178SLPC   C2220283   3.490   2.729  10.500 -0.7878 -0.4128 -0.8050
  178SLPC   H2R20284   3.482   2.657  10.584 -0.6913  2.2433  1.6268
  178SLPC   H2S20285   3.392   2.781  10.514 -2.5864 -3.9784  1.2381
  178SLPC    C320286   3.881   2.887  10.392 -0.1726  0.5803  0.4522
  178SLPC    HX20287   3.973   2.949  10.398  0.1870  0.0028  1.1190
  178SLPC    HY20288   3.801   2.953  10.352  2.0353  2.3690 -1.2898
  178SLPC   O3120289   3.922   2.767  10.320  0.0599  0.4831 -0.1890
  178SLPC   C3120290   3.857   2.745  10.209 -0.8473  1.0166 -0.1038
  178SLPC   O3220291   3.757   2.808  10.172 -0.3902 -0.0195 -0.1812
  178SLPC   C3220292   3.919   2.617  10.144 -0.2929 -0.1510  0.3405
  178SLPC   H2X20293   3.924   2.537  10.220 -0.3984  0.4058  0.9388
  178SLPC   H2Y20294   4.017   2.642  10.099 -0.4494 -1.2386 -0.6658
  178SLPC   C2320295   3.511   2.656  10.371 -0.0135  0.2697  0.3114
  178SLPC   H3R20296   3.604   2.595  10.381  1.3158  1.9802 -1.0674
  178SLPC   H3S20297   3.523   2.723  10.284  1.0868 -1.0594 -0.6016
  178SLPC   C2420298   3.400   2.556  10.349  0.1616  0.4040 -0.1796
  178SLPC   H4R20299   3.361   2.527  10.449 -0.5602  1.1120 -0.2450
  178SLPC   H4S20300   3.440   2.472  10.288  1.9438  1.6872 -0.8640
  178SLPC   C2520301   3.284   2.606  10.259 -0.2977 -0.3753 -0.2904
  178SLPC   H5R20302   3.253   2.707  10.294 -0.6888 -1.3975  2.5898
  178SLPC   H5S20303   3.192   2.551  10.291 -0.5468  0.4617  0.4770
  178SLPC   C2620304   3.315   2.615  10.105 -0.0020  0.2475  0.0060
  178SLPC   H6R20305   3.366   2.519  10.081 -1.0528 -0.4888  0.6417
  178SLPC   H6S20306   3.377   2.706  10.114  1.0586 -0.3402 -1.0434
  178SLPC   C2720307   3.193   2.637  10.014  0.9665 -0.2959 -0.3527
  178SLPC   H7R20308   3.118   2.709  10.055  0.2133 -0.3734 -1.5440
  178SLPC   H7S20309   3.146   2.539   9.993  0.5735  0.2911 -2.4965
  178SLPC   C2820310   3.237   2.705   9.883 -0.0279  0.5438 -0.1937
  178SLPC   H8R20311   3.268   2.810   9.901 -1.8891  1.3539 -1.3673
  178SLPC   H8S20312   3.150   2.717   9.814 -0.5924  0.9334  0.5763
  178SLPC   C2920313   3.349   2.632   9.808  1.1796 -0.6532 -0.2689
  178SLPC   H9R20314   3.436   2.602   9.868  0.1146 -3.5330 -0.0364
  178SLPC  C21020315   3.344   2.597   9.679 -0.4712 -0.1139  0.0848
  178SLPC  H10R20316   3.422   2.524   9.654 -1.1229 -0.6119 -0.5592
  178SLPC  C21120317   3.239   2.616   9.575 -0.6021 -0.3429  0.0758
  178SLPC  H11R20318   3.190   2.714   9.594  0.5294  0.4166 -0.7411
  178SLPC  H11S20319   3.168   2.533   9.591 -1.4759  0.4260  0.2814
  178SLPC  C21220320   3.290   2.619   9.428  0.5245 -0.9785 -0.0048
  178SLPC  H12R20321   3.396   2.591   9.419  1.0634  1.4122 -2.2383
  178SLPC  C21320322   3.219   2.655   9.316 -0.4905  0.1227 -0.1153
  178SLPC  H13R20323   3.274   2.648   9.221  2.4653 -0.7473  1.5326
  178SLPC  C21420324   3.081   2.698   9.300  0.1206 -0.3478 -1.2635
  178SLPC  H14R20325   3.032   2.682   9.398 -1.6125 -0.2763 -2.0921
  178SLPC  H14S20326   3.030   2.647   9.216 -1.4177  1.2709 -1.3725
  178SLPC  C21520327   3.070   2.853   9.271 -0.1497 -0.4574  0.1523
  178SLPC  H15R20328   3.137   2.907   9.341  0.8568 -1.3394 -0.1137
  178SLPC  H15S20329   2.966   2.881   9.301  0.0596 -0.3597  0.8004
  178SLPC  C21620330   3.083   2.896   9.121  0.1487  0.1636 -0.6255
  178SLPC  H16R20331   3.056   3.004   9.119 -0.4550  0.0342  0.1019
  178SLPC  H16S20332   3.011   2.836   9.062  0.5793 -0.5805 -0.4165
  178SLPC  C21720333   3.231   2.888   9.061 -0.5395  0.0198 -0.3823
  178SLPC  H17R20334   3.260   2.781   9.052 -0.7172 -0.1056  0.4469
  178SLPC  H17S20335   3.293   2.943   9.135 -0.7847 -0.8195  0.4743
  178SLPC  C21820336   3.245   2.944   8.919 -0.6425 -0.2015 -0.4025
  178SLPC  H18R20337   3.355   2.940   8.906 -0.4432  0.8109  0.7020
  178SLPC  H18S20338   3.204   3.047   8.910 -3.1155 -1.2337 -1.8240
  178SLPC  H18T20339   3.202   2.887   8.835 -0.5898  2.5978 -2.4977
  178SLPC   C3320340   3.839   2.570  10.020  0.1449  0.3745 -0.6302
  178SLPC   H3X20341   3.739   2.541  10.056  0.3335 -0.1251 -0.5013
  178SLPC   H3Y20342   3.891   2.478   9.986 -0.1156  1.1899 -3.5041
  178SLPC   C3420343   3.854   2.668   9.902  0.4833  0.3307  0.8266
  178SLPC   H4X20344   3.959   2.694   9.876  0.2063 -1.7923 -3.2408
  178SLPC   H4Y20345   3.796   2.759   9.931 -1.4905 -1.2779  2.1793
  178SLPC   C3520346   3.799   2.614   9.767 -0.1103  0.2237  0.2790
  178SLPC   H5X20347   3.691   2.591   9.779  0.1953 -1.0643  0.7170
  178SLPC   H5Y20348   3.844   2.515   9.743 -0.9570  0.5196 -2.9342
  178SLPC   C3620349   3.819   2.701   9.634 -0.5219 -0.0122  0.4776
  178SLPC   H6X20350   3.925   2.728   9.618 -1.1683  0.9409 -2.8892
  178SLPC   H6Y20351   3.769   2.800   9.636 -0.8817 -0.1236 -1.4848
  178SLPC   C3720352   3.768   2.633   9.510 -0.1430  0.2178  0.6419
  178SLPC   H7X20353   3.658   2.628   9.528 -0.2674  1.9075  0.4822
  178SLPC   H7Y20354   3.811   2.537   9.474  1.3175  1.0702  0.0389
  178SLPC   C3820355   3.801   2.724   9.390  0.5006 -0.0012  0.3913
  178SLPC   H8X20356   3.910   2.740   9.378  0.2009  0.1555 -2.8676
  178SLPC   H8Y20357   3.764   2.825   9.417 -0.6381 -0.1826 -0.4143
  178SLPC   C3920358   3.724   2.690   9.260  0.4574  0.2941  0.1856
  178SLPC   H9X20359   3.621   2.680   9.302  0.6851 -1.0315  0.4675
  178SLPC   H9Y20360   3.761   2.596   9.214 -0.3521  1.1935 -2.5483
  178SLPC  C31020361   3.720   2.804   9.153 -1.0908  0.1264  0.4577
  178SLPC  H10X20362   3.820   2.805   9.104 -2.5754  0.1244 -2.8779
  178SLPC  H10Y20363   3.695   2.903   9.196 -2.6340 -0.8582  1.9410
  178SLPC  C31120364   3.628   2.776   9.028  0.0748 -0.0703 -0.5145
  178SLPC  H11X20365   3.528   2.816   9.057  0.2392  1.0170 -1.3660
  178SLPC  H11Y20366   3.622   2.667   9.007  1.6518 -0.1791 -0.5016
  178SLPC  C31220367   3.670   2.845   8.891 -0.8184 -0.6281  0.0287
  178SLPC  H12X20368   3.596   2.825   8.812  1.9799 -2.2170 -2.3781
  178SLPC  H12Y20369   3.762   2.792   8.858  0.3932  0.9105  0.7901
  178SLPC  C31320370   3.707   2.990   8.903 -0.8157 -0.2647 -0.8654
  178SLPC  H13X20371   3.784   3.013   8.979 -2.3406 -0.5314  0.8318
  178SLPC  H13Y20372   3.623   3.047   8.948  0.7600  0.7881  0.8844
  178SLPC  C31420373   3.738   3.055   8.770  0.5459 -0.0245  0.6400
  178SLPC  H14X20374   3.841   3.042   8.731  1.4360  2.1246  2.0411
  178SLPC  H14Y20375   3.732   3.163   8.798 -1.7088 -0.2155  1.0501
  178SLPC  C31520376   3.643   3.042   8.649  0.1161 -0.3867  0.5891
  178SLPC  H15X20377   3.645   2.934   8.623 -0.2763  0.4596 -3.5604
  178SLPC  H15Y20378   3.540   3.072   8.680  0.0129  2.3854 -1.9953
  178SLPC  C31620379   3.695   3.121   8.528  0.0961  0.4862 -0.2300
  178SLPC  H16X20380   3.792   3.073   8.499  0.5523  2.0494 -1.4087
  178SLPC  H16Y20381   3.740   3.220   8.550  0.0367  0.8395 -1.6112
  178SLPC  C31720382   3.604   3.137   8.406 -0.3403  0.4138  0.3540
  178SLPC  H17X20383   3.525   3.213   8.426  0.5301  1.2403  0.7572
  178SLPC  H17Y20384   3.552   3.042   8.382 -2.3398  1.8567 -1.4243
  178SLPC  C31820385   3.680   3.175   8.278  0.0528 -0.2049 -0.2268
  178SLPC  H18X20386   3.766   3.107   8.257 -0.6270 -1.6497  1.3648
  178SLPC  H18Y20387   3.726   3.275   8.292  1.9384 -0.8390 -1.4897
  178SLPC  H18Z20388   3.608   3.185   8.194 -1.0791  3.1926  0.9725
  179SLPC     N20389   1.409   0.457  10.743 -0.6840 -0.3504  0.5877
  179SLPC   C1320390   1.509   0.351  10.699 -0.1330 -0.0744 -0.4818
  179SLPC  H13A20391   1.552   0.301  10.784 -1.8384 -3.0898 -1.2410
  179SLPC  H13B20392   1.465   0.281  10.629  2.5792  0.2777 -2.7035
  179SLPC  H13C20393   1.593   0.396  10.649  1.5939 -0.9532  1.4691
  179SLPC   C1420394   1.482   0.562  10.816 -1.0375 -0.5949 -0.0526
  179SLPC  H14A20395   1.411   0.639  10.843 -0.6744  0.1424 -1.1406
  179SLPC  H14B20396   1.517   0.520  10.909  0.9200 -0.4077 -0.6714
  179SLPC  H14C20397   1.563   0.609  10.763 -1.2275 -1.9719 -1.6404
  179SLPC   C1520398   1.299   0.405  10.832  0.0265 -0.2552  0.1266
  179SLPC  H15A20399   1.224   0.363  10.767  0.6712  0.8630 -1.3630
  179SLPC  H15B20400   1.336   0.327  10.897  2.6121 -1.7211 -2.8527
  179SLPC  H15C20401   1.256   0.490  10.883  0.9295  0.1850  0.1637
  179SLPC   C1220402   1.332   0.523  10.629  0.0964 -0.0380 -0.9259
  179SLPC  H12A20403   1.281   0.454  10.563 -1.6192  0.2526  0.0372
  179SLPC  H12B20404   1.405   0.574  10.567  1.1514 -1.4928 -0.9473
  179SLPC   C1120405   1.220   0.626  10.667 -0.4990  0.2973 -0.2493
  179SLPC  H11A20406   1.147   0.579  10.737  0.1889  1.0156  0.9771
  179SLPC  H11B20407   1.162   0.658  10.578 -0.3616  3.3644  0.6554
  179SLPC     P20408   1.330   0.854  10.631  0.3164 -0.0622  0.3470
  179SLPC   O1320409   1.208   0.926  10.582 -0.2493 -0.0249  0.3059
  179SLPC   O1420410   1.421   0.934  10.714 -0.1271  0.4742 -0.3056
  179SLPC   O1220411   1.281   0.737  10.722 -0.4753 -0.0793 -0.0806
  179SLPC   O1120412   1.409   0.791  10.507 -0.0086 -0.2484  0.9202
  179SLPC    C120413   1.551   0.777  10.510 -0.3727  0.0156  0.5014
  179SLPC    HA20414   1.608   0.872  10.519  3.7647 -2.2378  0.5132
  179SLPC    HB20415   1.584   0.703  10.587  2.4663  0.2499 -0.3773
  179SLPC    C220416   1.606   0.707  10.376  0.9215  0.6115 -0.0051
  179SLPC    HS20417   1.713   0.689  10.396  1.1363  1.1221 -0.6707
  179SLPC   O2120418   1.576   0.795  10.267  0.4138 -0.2551  0.0539
  179SLPC   C2120419   1.644   0.914  10.263  0.6555 -0.3462  0.5281
  179SLPC   O2220420   1.737   0.947  10.335 -0.1251  0.1228  0.3215
  179SLPC   C2220421   1.592   0.994  10.150  0.9471 -0.7922  0.1475
  179SLPC   H2R20422   1.506   0.939  10.105  0.6985  0.4977 -1.0131
  179SLPC   H2S20423   1.557   1.089  10.195 -0.7574 -1.8310  1.1508
  179SLPC    C320424   1.548   0.566  10.345  0.5132  0.8567 -0.1764
  179SLPC    HX20425   1.595   0.505  10.425  0.2281  0.4835 -0.2934
  179SLPC    HY20426   1.588   0.542  10.244 -0.6425 -0.9073 -0.2459
  179SLPC   O3120427   1.403   0.560  10.349  0.2650  0.3117 -0.6953
  179SLPC   C3120428   1.342   0.492  10.254 -0.6689 -0.1993  0.1849
  179SLPC   O3220429   1.400   0.409  10.180  0.3735  0.3814 -0.5901
  179SLPC   C3220430   1.190   0.526  10.250 -0.0059 -0.4051 -0.1724
  179SLPC   H2X20431   1.182   0.629  10.291 -0.6862 -0.3938 -0.3268
  179SLPC   H2Y20432   1.129   0.456  10.310 -1.5505  0.7006 -0.4072
  179SLPC   C2320433   1.697   1.030  10.048 -0.4272  0.3871 -0.2948
  179SLPC   H3R20434   1.753   0.935  10.028 -0.2180  0.9533 -2.7252
  179SLPC   H3S20435   1.778   1.097  10.084  0.5500  0.4436 -2.4688
  179SLPC   C2420436   1.632   1.078   9.923 -0.2433  0.5203  0.8737
  179SLPC   H4R20437   1.589   1.181   9.926  1.1312  1.1691 -0.2548
  179SLPC   H4S20438   1.562   0.997   9.894  1.0144 -0.3362  0.1468
  179SLPC   C2520439   1.729   1.078   9.796  0.5454  0.0381 -0.6970
  179SLPC   H5R20440   1.784   0.983   9.783 -0.9557 -0.9899  0.1213
  179SLPC   H5S20441   1.805   1.158   9.813  0.6585  0.0578 -1.2840
  179SLPC   C2620442   1.640   1.115   9.683 -0.1909  0.8444  0.5691
  179SLPC   H6R20443   1.576   1.027   9.661 -0.7063  1.2342  0.4792
  179SLPC   H6S20444   1.707   1.121   9.595  0.2020 -2.3526  0.5570
  179SLPC   C2720445   1.571   1.255   9.683 -0.4088  0.2831 -0.0781
  179SLPC   H7R20446   1.637   1.322   9.741  1.2909 -1.3653 -0.0023
  179SLPC   H7S20447   1.474   1.250   9.737 -0.4092  0.0431 -0.0965
  179SLPC   C2820448   1.555   1.317   9.544  0.0413 -0.0251 -0.1595
  179SLPC   H8R20449   1.657   1.332   9.505  0.0322  1.5047  0.3596
  179SLPC   H8S20450   1.491   1.408   9.550  0.6595  0.4468 -0.5874
  179SLPC   C2920451   1.479   1.213   9.454  0.9320  0.1030 -0.5509
  179SLPC   H9R20452   1.375   1.196   9.487  0.5479  1.6763 -0.8387
  179SLPC  C21020453   1.523   1.151   9.343 -0.2095  0.5961  0.8553
  179SLPC  H10R20454   1.467   1.058   9.325  2.1036 -0.8995  0.8585
  179SLPC  C21120455   1.656   1.171   9.263 -0.2603  0.3574 -0.6983
  179SLPC  H11R20456   1.737   1.211   9.328  1.8757 -1.1151 -2.3245
  179SLPC  H11S20457   1.633   1.247   9.185 -2.4179  1.9266  1.2766
  179SLPC  C21220458   1.708   1.046   9.192 -0.7127 -0.2465 -0.6468
  179SLPC  H12R20459   1.697   0.946   9.236 -0.0092 -0.2803 -0.5398
  179SLPC  C21320460   1.779   1.049   9.080  0.9222 -0.0677 -0.1975
  179SLPC  H13R20461   1.816   0.954   9.039 -1.7352  0.3468 -4.0849
  179SLPC  C21420462   1.815   1.164   8.997 -0.2479 -1.1795 -0.2418
  179SLPC  H14R20463   1.905   1.218   9.034 -0.9941 -0.4311  0.5342
  179SLPC  H14S20464   1.737   1.243   8.998  1.2530  0.3744 -0.5212
  179SLPC  C21520465   1.855   1.110   8.854 -0.3677  0.6929  0.4565
  179SLPC  H15R20466   1.936   1.034   8.863 -0.7207  0.4606  1.8935
  179SLPC  H15S20467   1.890   1.194   8.789 -1.7283  0.3639 -0.7616
  179SLPC  C21620468   1.744   1.042   8.777  0.1813  1.0777 -0.1017
  179SLPC  H16R20469   1.653   1.104   8.789 -1.2630 -1.0398  0.4997
  179SLPC  H16S20470   1.715   0.941   8.814  1.0106  0.6033 -0.6939
  179SLPC  C21720471   1.776   1.036   8.628 -0.1417  0.0097 -0.3467
  179SLPC  H17R20472   1.871   0.980   8.616 -1.1092 -1.5986 -0.7541
  179SLPC  H17S20473   1.793   1.142   8.599 -2.0723  0.8263  1.1862
  179SLPC  C21820474   1.662   0.969   8.543 -0.2536 -0.7618 -0.2670
  179SLPC  H18R20475   1.574   1.037   8.539  0.8030  0.6202 -0.9379
  179SLPC  H18S20476   1.634   0.872   8.590  0.2856 -1.3712 -1.1781
  179SLPC  H18T20477   1.684   0.958   8.435 -0.4017  2.6472 -0.7439
  179SLPC   C3320478   1.151   0.522  10.105  0.0223 -0.0478  0.0344
  179SLPC   H3X20479   1.154   0.423  10.055 -0.9173 -0.1076  0.0912
  179SLPC   H3Y20480   1.215   0.589  10.044 -1.3642  0.8973 -0.4224
  179SLPC   C3420481   1.005   0.555  10.107 -0.5686  0.1697 -0.4350
  179SLPC   H4X20482   0.981   0.664  10.107 -1.7299 -0.0543 -1.4823
  179SLPC   H4Y20483   0.951   0.497  10.185 -1.3924 -0.5735 -1.5194
  179SLPC   C3520484   0.935   0.506   9.976 -0.3466 -0.6647  0.4379
  179SLPC   H5X20485   0.829   0.541   9.968 -0.7240 -2.1304 -2.0340
  179SLPC   H5Y20486   0.940   0.395   9.968 -1.9760 -0.6715 -1.0929
  179SLPC   C3620487   0.998   0.569   9.853 -1.0119  0.6427 -0.2678
  179SLPC   H6X20488   1.108   0.553   9.856 -0.9649  1.0277  2.2714
  179SLPC   H6Y20489   0.984   0.679   9.858  1.3715  1.0694 -1.4861
  179SLPC   C3720490   0.945   0.507   9.718  0.1959 -0.4809 -0.4288
  179SLPC   H7X20491   0.835   0.492   9.714 -0.0186 -0.1499  2.5015
  179SLPC   H7Y20492   0.992   0.406   9.719  0.8506 -0.1971 -1.1674
  179SLPC   C3820493   0.988   0.566   9.586  0.0176 -0.0897 -0.5352
  179SLPC   H8X20494   1.095   0.588   9.570 -0.1862  0.7636 -0.8066
  179SLPC   H8Y20495   0.938   0.666   9.579  0.7472  0.2897 -0.3990
  179SLPC   C3920496   0.937   0.497   9.458 -0.8775  0.4329  0.6559
  179SLPC   H9X20497   0.827   0.483   9.466 -0.8981  0.9738  1.4020
  179SLPC   H9Y20498   0.989   0.399   9.459  2.7778  2.0258 -3.2091
  179SLPC  C31020499   0.982   0.568   9.331  0.0149 -0.1847 -0.2857
  179SLPC  H10X20500   1.093   0.580   9.325  0.0479 -0.8979 -1.4852
  179SLPC  H10Y20501   0.947   0.673   9.324 -0.9490 -0.3592  1.4390
  179SLPC  C31120502   0.950   0.508   9.193 -0.9084  0.5068  0.4429
  179SLPC  H11X20503   0.841   0.494   9.173 -0.5141  0.8669 -2.4268
  179SLPC  H11Y20504   1.002   0.411   9.204 -0.1894  0.5974 -1.7016
  179SLPC  C31220505   1.015   0.588   9.074  0.5310 -0.0986 -0.1276
  179SLPC  H12X20506   1.124   0.585   9.095  0.1818 -0.3809  1.8315
  179SLPC  H12Y20507   0.971   0.690   9.076  0.4865 -0.0645 -1.5482
  179SLPC  C31320508   0.983   0.524   8.931  1.1190  0.1857 -0.3049
  179SLPC  H13X20509   0.874   0.506   8.924  1.0652  0.2170  0.3932
  179SLPC  H13Y20510   1.023   0.420   8.934  1.3339  0.2808  0.8761
  179SLPC  C31420511   1.047   0.605   8.822 -0.7633 -0.2122 -0.0887
  179SLPC  H14X20512   1.146   0.631   8.865 -0.1147 -0.7643 -1.2028
  179SLPC  H14Y20513   1.003   0.703   8.794 -0.8991  0.0940  1.1264
  179SLPC  C31520514   1.065   0.525   8.695 -0.2489 -0.6023 -0.3121
  179SLPC  H15X20515   1.119   0.431   8.719  2.0283  0.5662 -0.5959
  179SLPC  H15Y20516   1.121   0.593   8.628 -2.5895  0.8111 -0.9737
  179SLPC  C31620517   0.921   0.504   8.637  0.4673  0.1777  0.3175
  179SLPC  H16X20518   0.878   0.603   8.613 -1.9316 -0.9128 -0.1886
  179SLPC  H16Y20519   0.852   0.458   8.711 -0.8700 -2.5203 -2.3755
  179SLPC  C31720520   0.924   0.427   8.502  0.1220 -0.0460  0.1502
  179SLPC  H17X20521   1.009   0.470   8.445  0.6123 -0.3601  0.6311
  179SLPC  H17Y20522   0.838   0.454   8.437  1.4455  2.4423 -0.7127
  179SLPC  C31820523   0.939   0.272   8.511  1.3052  0.1508 -0.4755
  179SLPC  H18X20524   0.949   0.228   8.410  1.5463  1.4606 -1.0385
  179SLPC  H18Y20525   0.853   0.218   8.556  2.8591 -3.1605 -1.1340
  179SLPC  H18Z20526   1.029   0.241   8.568 -0.0935 -1.2327  1.1114
  180SLPC     N20527   6.351   3.580  11.098 -0.1562 -0.1622  0.0445
  180SLPC   C1320528   6.340   3.712  11.173 -0.0614 -0.1538 -0.1465
  180SLPC  H13A20529   6.323   3.703  11.280  1.1877  0.9306  0.1738
  180SLPC  H13B20530   6.424   3.777  11.158 -0.7137  0.3455 -1.8668
  180SLPC  H13C20531   6.265   3.772  11.124  1.5557  2.2202  0.0997
  180SLPC   C1420532   6.219   3.512  11.115 -0.4579  0.0211  0.1238
  180SLPC  H14A20533   6.141   3.572  11.071  1.0215  1.8274 -0.1531
  180SLPC  H14B20534   6.215   3.412  11.076 -0.3885 -0.1684  0.5898
  180SLPC  H14C20535   6.200   3.503  11.221 -1.2819  0.8910  0.0627
  180SLPC   C1520536   6.466   3.504  11.168 -0.4210  0.2571 -0.6055
  180SLPC  H15A20537   6.513   3.438  11.096  0.6127  0.3856 -0.0704
  180SLPC  H15B20538   6.543   3.563  11.214  1.5039 -2.3512 -0.2160
  180SLPC  H15C20539   6.429   3.440  11.247  1.4111 -1.9293 -1.4256
  180SLPC   C1220540   6.384   3.614  10.961 -0.3520 -0.3467  0.4244
  180SLPC  H12A20541   6.310   3.681  10.920  3.0404  3.9575  0.6597
  180SLPC  H12B20542   6.374   3.522  10.906 -0.8954 -1.4499  2.2666
  180SLPC   C1120543   6.520   3.680  10.927 -0.1022 -0.1319 -0.9146
  180SLPC  H11A20544   6.523   3.769  10.994 -0.7776 -0.3587 -0.5735
  180SLPC  H11B20545   6.519   3.717  10.822  0.5659  0.8879 -0.5746
  180SLPC     P20546   6.678   3.471  10.871 -0.1088 -0.5681 -0.0067
  180SLPC   O1320547   6.791   3.407  10.940 -0.1689 -0.1835 -0.1961
  180SLPC   O1420548   6.559   3.381  10.850  0.4802  0.2616 -0.1267
  180SLPC   O1220549   6.634   3.601  10.960 -0.7026  0.3856 -0.7442
  180SLPC   O1120550   6.715   3.526  10.726 -0.5372  0.2201  0.0171
  180SLPC    C120551   6.796   3.642  10.701  0.2056 -0.0383  0.0080
  180SLPC    HA20552   6.792   3.705  10.792 -0.8435 -1.4158  0.9543
  180SLPC    HB20553   6.904   3.617  10.689 -0.0801 -0.7726 -1.2335
  180SLPC    C220554   6.739   3.713  10.577 -0.0790 -0.3834 -0.5557
  180SLPC    HS20555   6.630   3.726  10.588  0.0055  3.5589 -2.7198
  180SLPC   O2120556   6.769   3.637  10.464 -0.1292 -0.2184 -0.2479
  180SLPC   C2120557   6.693   3.536  10.422 -0.3885  0.8946  0.4622
  180SLPC   O2220558   6.585   3.503  10.468 -0.7228 -0.6434 -0.3642
  180SLPC   C2220559   6.761   3.463  10.310 -0.2363 -0.4154 -0.9915
  180SLPC   H2R20560   6.847   3.529  10.284  0.5600 -1.4890 -1.1879
  180SLPC   H2S20561   6.811   3.375  10.356 -1.4026 -1.0999 -0.9981
  180SLPC    C320562   6.788   3.862  10.569 -0.1880 -0.3256  0.4864
  180SLPC    HX20563   6.899   3.852  10.568 -0.3113 -2.4218 -2.0862
  180SLPC    HY20564   6.769   3.910  10.667  2.3240 -0.8068  1.2959
  180SLPC   O3120565   6.738   3.936  10.464  0.5082 -0.5285 -0.0973
  180SLPC   C3120566   6.828   3.978  10.375 -0.4043 -0.1425  0.1494
  180SLPC   O3220567   6.948   3.972  10.386 -0.1292 -0.4499  0.3438
  180SLPC   C3220568   6.752   4.040  10.254  0.7964  0.6335  0.7501
  180SLPC   H2X20569   6.800   4.140  10.260  1.9421  0.1122  0.5419
  180SLPC   H2Y20570   6.643   4.043  10.276  0.6742 -1.7077  0.7658
  180SLPC   C2320571   6.686   3.433  10.186  0.0293 -0.1308 -0.1968
  180SLPC   H3R20572   6.657   3.526  10.132 -1.8841 -0.9753 -0.6832
  180SLPC   H3S20573   6.592   3.380  10.212 -0.2679  0.0119 -0.9631
  180SLPC   C2420574   6.759   3.356  10.075 -0.5544  0.7601 -0.3987
  180SLPC   H4R20575   6.764   3.249  10.107 -0.0309  0.5343 -1.2034
  180SLPC   H4S20576   6.868   3.378  10.066 -0.2146 -0.9157 -0.6844
  180SLPC   C2520577   6.686   3.348   9.943  0.0382 -0.8599 -0.5588
  180SLPC   H5R20578   6.711   3.446   9.895  0.4781 -0.9737 -0.5667
  180SLPC   H5S20579   6.577   3.352   9.961  0.4217  0.5034  1.8795
  180SLPC   C2620580   6.738   3.242   9.850 -0.0261  0.1183  0.6269
  180SLPC   H6R20581   6.845   3.212   9.859  0.1345 -0.8055 -2.9901
  180SLPC   H6S20582   6.719   3.274   9.746  0.0193  1.4574  1.0189
  180SLPC   C2720583   6.660   3.110   9.870  0.1789 -0.1331 -0.0275
  180SLPC   H7R20584   6.552   3.116   9.846 -0.3614 -0.0892  2.2387
  180SLPC   H7S20585   6.663   3.085   9.978 -3.0234  0.2486  0.2411
  180SLPC   C2820586   6.721   3.007   9.773  0.3605 -0.1401 -0.3878
  180SLPC   H8R20587   6.669   2.912   9.794 -1.2842 -0.0964 -3.6507
  180SLPC   H8S20588   6.827   2.978   9.792  0.5826  0.9723  0.1872
  180SLPC   C2920589   6.708   3.022   9.623 -0.1050 -0.0787  0.2935
  180SLPC   H9R20590   6.712   3.128   9.594 -0.9131  0.0751  0.7094
  180SLPC  C21020591   6.713   2.924   9.527  0.8105 -0.2682 -0.6760
  180SLPC  H10R20592   6.703   2.943   9.420  4.4306 -0.9571 -1.2592
  180SLPC  C21120593   6.718   2.781   9.561 -0.5923  0.6368  0.5312
  180SLPC  H11R20594   6.778   2.765   9.653  0.6043 -1.5674 -0.5514
  180SLPC  H11S20595   6.774   2.729   9.480 -1.5155  1.1307 -0.4562
  180SLPC  C21220596   6.579   2.733   9.566  0.8631 -0.1935  0.1336
  180SLPC  H12R20597   6.519   2.787   9.642 -0.7719 -1.0517 -0.4896
  180SLPC  C21320598   6.524   2.643   9.482 -0.0394 -0.2884  0.7071
  180SLPC  H13R20599   6.420   2.609   9.490 -0.0426 -1.3393 -2.6196
  180SLPC  C21420600   6.595   2.562   9.374  0.5350 -0.2565 -0.4774
  180SLPC  H14R20601   6.677   2.500   9.417 -0.6251 -1.5634 -0.0873
  180SLPC  H14S20602   6.648   2.641   9.317  3.2857 -1.5956  0.0179
  180SLPC  C21520603   6.523   2.462   9.272  0.6300 -0.3434 -0.4906
  180SLPC  H15R20604   6.469   2.381   9.327 -1.2464  1.6105  0.6960
  180SLPC  H15S20605   6.599   2.402   9.218  0.9229 -2.6641  2.2452
  180SLPC  C21620606   6.443   2.524   9.156 -0.1088 -0.2088 -0.1778
  180SLPC  H16R20607   6.511   2.578   9.085 -0.5290  3.2205  1.7982
  180SLPC  H16S20608   6.366   2.596   9.189 -0.4536 -0.4285 -0.4943
  180SLPC  C21720609   6.358   2.428   9.063 -0.2569 -0.0150  0.3736
  180SLPC  H17R20610   6.278   2.485   9.012 -0.6334  0.4379  1.4481
  180SLPC  H17S20611   6.307   2.357   9.132  0.1191  0.7680  1.4901
  180SLPC  C21820612   6.448   2.358   8.955 -0.0650  0.0181 -0.1492
  180SLPC  H18R20613   6.377   2.291   8.901  0.6662 -0.4299 -0.5712
  180SLPC  H18S20614   6.528   2.311   9.017 -0.7777 -0.4603  0.4247
  180SLPC  H18T20615   6.471   2.444   8.889 -0.8876 -0.3698 -0.9681
  180SLPC   C3320616   6.777   3.970  10.117 -0.4210  0.3888  0.2649
  180SLPC   H3X20617   6.756   3.862  10.102 -1.1298  0.4540  0.7439
  180SLPC   H3Y20618   6.885   3.977  10.090  0.2278 -3.7834  1.1864
  180SLPC   C3420619   6.702   4.054  10.008  0.7397 -0.2133  0.1421
  180SLPC   H4X20620   6.735   4.160  10.003  1.3219 -0.4254 -0.9499
  180SLPC   H4Y20621   6.594   4.050  10.035 -0.2136  2.7442 -2.5086
  180SLPC   C3520622   6.707   4.002   9.866 -0.2628 -0.0747 -0.1813
  180SLPC   H5X20623   6.698   3.893   9.885 -1.4981  0.4966  3.1929
  180SLPC   H5Y20624   6.800   4.025   9.810 -1.7016  2.0967 -1.8492
  180SLPC   C3620625   6.590   4.050   9.780  0.3653 -0.0666 -0.4131
  180SLPC   H6X20626   6.584   4.161   9.784  3.1542  0.1209  1.2052
  180SLPC   H6Y20627   6.498   4.005   9.823  1.4596 -1.4097  0.6084
  180SLPC   C3720628   6.600   4.012   9.630  0.1218 -0.2903 -0.0460
  180SLPC   H7X20629   6.692   4.058   9.587 -0.5544  1.6827  0.5220
  180SLPC   H7Y20630   6.522   4.065   9.572  1.0744 -0.2242 -1.3180
  180SLPC   C3820631   6.604   3.865   9.614 -0.2849  0.2428 -0.0063
  180SLPC   H8X20632   6.533   3.811   9.680 -0.8347  0.5136 -0.3792
  180SLPC   H8Y20633   6.705   3.824   9.637 -0.4437 -1.2547 -1.7654
  180SLPC   C3920634   6.569   3.814   9.475  0.1435  0.1345  0.8867
  180SLPC   H9X20635   6.461   3.831   9.457  0.2359  2.0157  1.8848
  180SLPC   H9Y20636   6.578   3.703   9.467 -1.1811  0.0031  1.0275
  180SLPC  C31020637   6.651   3.886   9.362 -0.1630 -0.3411 -0.1350
  180SLPC  H10X20638   6.759   3.874   9.385 -0.6474 -0.5137  2.2287
  180SLPC  H10Y20639   6.620   3.993   9.371  0.2799 -0.2441  0.2804
  180SLPC  C31120640   6.616   3.834   9.220 -0.5239 -0.5841 -0.1178
  180SLPC  H11X20641   6.507   3.810   9.228 -0.3579 -0.8586  2.1302
  180SLPC  H11Y20642   6.676   3.741   9.222  1.6927  0.7482 -1.2082
  180SLPC  C31220643   6.666   3.927   9.110  0.4055  0.5421  0.0701
  180SLPC  H12X20644   6.762   3.978   9.133  1.5244 -0.6502 -1.7241
  180SLPC  H12Y20645   6.586   3.993   9.072 -1.1477 -1.4200 -0.1997
  180SLPC  C31320646   6.694   3.844   8.986  0.3542  0.6985  0.7192
  180SLPC  H13X20647   6.609   3.785   8.945  1.4440 -1.6206  1.6358
  180SLPC  H13Y20648   6.776   3.773   9.008 -1.4565 -1.2217  1.6091
  180SLPC  C31420649   6.744   3.926   8.861 -0.5286 -0.0497 -0.8529
  180SLPC  H14X20650   6.836   3.978   8.895 -0.6888  1.5012 -2.5886
  180SLPC  H14Y20651   6.669   4.005   8.838 -0.1244  1.7850  3.1990
  180SLPC  C31520652   6.777   3.843   8.746  0.7590  0.6398  0.0280
  180SLPC  H15X20653   6.839   3.752   8.762  2.2197  1.1674 -2.1667
  180SLPC  H15Y20654   6.837   3.897   8.669 -0.4429  0.0130 -1.3979
  180SLPC  C31620655   6.656   3.778   8.677  0.6257  0.5497  0.6193
  180SLPC  H16X20656   6.580   3.733   8.743  0.3607 -2.3611 -1.4511
  180SLPC  H16Y20657   6.688   3.695   8.610 -1.7697  1.6141 -2.0503
  180SLPC  C31720658   6.590   3.875   8.584 -0.1140  0.0579  0.3125
  180SLPC  H17X20659   6.670   3.920   8.522  0.5337 -1.0014  0.3559
  180SLPC  H17Y20660   6.529   3.950   8.638 -1.9457 -0.4324 -0.9592
  180SLPC  C31820661   6.487   3.807   8.495 -0.3560  0.0692 -0.1120
  180SLPC  H18X20662   6.496   3.696   8.494 -0.3224  0.0696  0.1686
  180SLPC  H18Y20663   6.479   3.851   8.393  0.4086 -0.5914 -0.4673
  180SLPC  H18Z20664   6.386   3.830   8.536  0.1663  1.3792  0.5091
  181SLPC     N20665   5.556   1.991  10.870 -0.0936  0.6243 -0.4891
  181SLPC   C1320666   5.518   1.846  10.871 -0.5592 -0.4525 -0.9861
  181SLPC  H13A20667   5.458   1.818  10.786 -2.1131 -0.4314  0.0463
  181SLPC  H13B20668   5.597   1.773  10.872 -1.9128 -1.9984  0.7725
  181SLPC  H13C20669   5.451   1.839  10.956 -0.6991  2.5668 -0.7296
  181SLPC   C1420670   5.619   2.034  10.998  0.0626 -0.7208 -0.4953
  181SLPC  H14A20671   5.714   1.987  11.015  1.0109  1.4111  0.3315
  181SLPC  H14B20672   5.626   2.142  10.994 -1.3984 -0.5151  1.1440
  181SLPC  H14C20673   5.556   2.004  11.081 -0.2967 -1.8478 -1.1458
  181SLPC   C1520674   5.434   2.073  10.849 -0.0335 -0.1670  0.1310
  181SLPC  H15A20675   5.379   2.044  10.761  0.7946  2.6037 -1.4278
  181SLPC  H15B20676   5.378   2.084  10.940  0.6523  1.4383  0.4010
  181SLPC  H15C20677   5.462   2.176  10.832 -0.6907  0.2621  1.5888
  181SLPC   C1220678   5.651   2.017  10.758  0.0874  0.0046  0.8111
  181SLPC  H12A20679   5.667   2.124  10.761  1.7165 -0.1874  0.1529
  181SLPC  H12B20680   5.613   1.991  10.661  2.3339 -0.6038  0.0359
  181SLPC   C1120681   5.794   1.946  10.764  0.6276 -0.2371  0.5486
  181SLPC  H11A20682   5.838   1.955  10.662  0.4464 -3.5789  0.0579
  181SLPC  H11B20683   5.784   1.839  10.789  1.5639 -1.4444 -3.5150
  181SLPC     P20684   5.985   1.944  10.933  0.3888  0.4812 -0.0325
  181SLPC   O1320685   6.104   2.035  10.949  0.0156 -0.6670  0.4476
  181SLPC   O1420686   5.914   1.905  11.058  0.4255  0.1284  1.0285
  181SLPC   O1220687   5.879   2.020  10.846 -0.6450 -0.2481  0.0138
  181SLPC   O1120688   6.026   1.825  10.846 -0.0321 -1.0480  0.2122
  181SLPC    C120689   6.147   1.824  10.773  0.0512 -0.0163 -0.6913
  181SLPC    HA20690   6.213   1.912  10.793 -1.1272  1.2969 -2.2650
  181SLPC    HB20691   6.205   1.730  10.782  2.0348  1.2249  0.3395
  181SLPC    C220692   6.134   1.827  10.623  0.5606  0.7684 -0.4163
  181SLPC    HS20693   6.236   1.831  10.579  0.8591 -1.2529 -0.0258
  181SLPC   O2120694   6.051   1.936  10.571 -0.7358  0.1257 -0.0330
  181SLPC   C2120695   6.111   2.060  10.569  0.9231 -0.0144  0.3699
  181SLPC   O2220696   6.228   2.084  10.594 -0.2557 -0.2563  0.2433
  181SLPC   C2220697   6.022   2.156  10.499 -0.4758 -0.0074 -0.2142
  181SLPC   H2R20698   5.919   2.116  10.485 -0.2076 -0.1233 -2.1048
  181SLPC   H2S20699   6.006   2.243  10.566 -0.4168  0.0702 -0.3004
  181SLPC    C320700   6.067   1.688  10.576  0.0432  0.5554 -0.3855
  181SLPC    HX20701   5.957   1.694  10.592 -0.0622 -2.4653  0.5611
  181SLPC    HY20702   6.108   1.597  10.624 -0.8253 -0.8009 -2.0967
  181SLPC   O3120703   6.106   1.667  10.433 -0.3699  0.7914  0.0733
  181SLPC   C3120704   6.012   1.635  10.356  0.1409 -0.4892  1.0900
  181SLPC   O3220705   5.898   1.600  10.370  0.5121 -0.2022  0.3095
  181SLPC   C3220706   6.074   1.655  10.216  0.1743  0.1352 -0.4180
  181SLPC   H2X20707   6.171   1.601  10.213  0.1138 -0.0238  0.3553
  181SLPC   H2Y20708   6.101   1.762  10.210  2.2554 -0.1853  1.6258
  181SLPC   C2320709   6.081   2.196  10.366 -0.1345  0.1888  0.4672
  181SLPC   H3R20710   6.188   2.223  10.370  0.2267 -1.3226  2.4699
  181SLPC   H3S20711   6.035   2.292  10.335  0.8872  0.8542  0.9631
  181SLPC   C2420712   6.059   2.088  10.257  0.3368  0.5417  0.3672
  181SLPC   H4R20713   6.066   1.997  10.321  1.5138  1.6030  1.8039
  181SLPC   H4S20714   6.133   2.080  10.174  0.1048 -2.3055  0.3155
  181SLPC   C2520715   5.917   2.101  10.203  0.7485  0.3064 -0.3685
  181SLPC   H5R20716   5.913   2.205  10.163 -2.3969  0.2932 -0.3782
  181SLPC   H5S20717   5.845   2.105  10.288 -0.2624 -0.2099 -1.1837
  181SLPC   C2620718   5.885   1.992  10.099  0.8167  0.0172  0.1234
  181SLPC   H6R20719   5.858   1.898  10.151 -0.5425 -0.9232 -2.1011
  181SLPC   H6S20720   5.977   1.974  10.040  1.0952  1.3476  0.1164
  181SLPC   C2720721   5.772   2.052  10.002 -0.1578  0.5880 -0.8299
  181SLPC   H7R20722   5.817   2.126   9.933 -1.4683  1.1968 -1.0606
  181SLPC   H7S20723   5.701   2.107  10.068 -0.1066 -2.6793  2.3026
  181SLPC   C2820724   5.698   1.936   9.936  0.3757 -0.4376  0.4078
  181SLPC   H8R20725   5.643   1.893  10.021 -1.3867  1.7058  0.4496
  181SLPC   H8S20726   5.773   1.861   9.903  0.5008 -1.7795  3.4102
  181SLPC   C2920727   5.608   1.980   9.820 -0.0024  0.1668  0.0924
  181SLPC   H9R20728   5.507   2.012   9.850  0.7044  1.5588  1.0747
  181SLPC  C21020729   5.638   1.984   9.689  0.1184  0.3729  0.0206
  181SLPC  H10R20730   5.559   2.010   9.617  1.6063  4.9402 -0.3067
  181SLPC  C21120731   5.778   1.952   9.636  0.6881 -1.2258 -0.5330
  181SLPC  H11R20732   5.815   1.855   9.675  0.5095 -0.5416  1.4294
  181SLPC  H11S20733   5.845   2.035   9.667  0.2327 -0.9354 -0.3051
  181SLPC  C21220734   5.787   1.960   9.485  0.1917 -0.1537 -0.0046
  181SLPC  H12R20735   5.845   2.046   9.449  0.6224 -0.9403 -1.2290
  181SLPC  C21320736   5.770   1.859   9.399 -0.1017  0.3618 -0.0577
  181SLPC  H13R20737   5.768   1.878   9.291  0.7110 -2.3664 -0.6308
  181SLPC  C21420738   5.721   1.725   9.444 -0.6354  0.5025 -0.1563
  181SLPC  H14R20739   5.640   1.719   9.521 -0.8621 -3.1632 -0.5094
  181SLPC  H14S20740   5.808   1.673   9.489 -0.7419 -0.2990 -0.8614
  181SLPC  C21520741   5.672   1.656   9.317 -0.3075  0.2405 -0.0323
  181SLPC  H15R20742   5.586   1.719   9.285 -0.5320 -1.2049 -2.5671
  181SLPC  H15S20743   5.636   1.558   9.355  1.5282 -1.4886 -2.4004
  181SLPC  C21620744   5.778   1.624   9.210 -0.1647 -0.0701  0.4879
  181SLPC  H16R20745   5.858   1.560   9.254 -0.6048  0.7080  2.5756
  181SLPC  H16S20746   5.837   1.707   9.166 -1.9208  0.4947 -0.8869
  181SLPC  C21720747   5.708   1.562   9.087  0.5049 -0.4124 -1.1214
  181SLPC  H17R20748   5.623   1.633   9.078  0.5525  1.0135  5.2334
  181SLPC  H17S20749   5.675   1.457   9.107 -3.4400  0.8749  0.0908
  181SLPC  C21820750   5.799   1.561   8.963  0.2307 -1.1025 -0.1188
  181SLPC  H18R20751   5.755   1.503   8.879  0.1322  0.8382 -1.4701
  181SLPC  H18S20752   5.900   1.521   8.988  0.8280 -0.4390 -1.3784
  181SLPC  H18T20753   5.821   1.663   8.925 -0.5431  0.2897  2.8663
  181SLPC   C3320754   5.979   1.623  10.090 -0.1699  0.5242 -0.0210
  181SLPC   H3X20755   5.874   1.656  10.103 -0.0239  1.1281 -0.3259
  181SLPC   H3Y20756   5.973   1.512  10.094  0.1505  0.5031 -0.0574
  181SLPC   C3420757   6.037   1.663   9.951  0.3559 -1.1386 -0.3316
  181SLPC   H4X20758   6.139   1.621   9.935  0.5115 -0.1425 -2.1787
  181SLPC   H4Y20759   6.065   1.770   9.951 -1.1369 -0.6921 -2.3972
  181SLPC   C3520760   5.936   1.622   9.836 -0.8084  0.3437  0.2763
  181SLPC   H5X20761   5.970   1.673   9.743 -3.1985 -0.3186 -1.0316
  181SLPC   H5Y20762   5.833   1.664   9.839 -0.8556  0.3169 -0.6891
  181SLPC   C3620763   5.926   1.470   9.821  0.9855 -0.2563  0.0933
  181SLPC   H6X20764   5.850   1.424   9.888 -0.1496  2.7800  1.0682
  181SLPC   H6Y20765   6.023   1.421   9.842  1.8448  0.6529 -1.5717
  181SLPC   C3720766   5.886   1.436   9.678  0.5701  0.0320  0.4578
  181SLPC   H7X20767   5.937   1.496   9.599 -1.4265 -0.5698 -1.4036
  181SLPC   H7Y20768   5.777   1.451   9.660  0.5863 -1.5665 -1.3898
  181SLPC   C3820769   5.909   1.284   9.639 -0.2344 -0.2455  0.4410
  181SLPC   H8X20770   5.877   1.217   9.722 -0.4426 -1.6329 -0.7099
  181SLPC   H8Y20771   6.013   1.265   9.605 -0.3482 -0.5130  0.2373
  181SLPC   C3920772   5.824   1.258   9.510 -0.2563 -0.4733 -0.3924
  181SLPC   H9X20773   5.854   1.328   9.429 -1.8065  1.1612  0.3748
  181SLPC   H9Y20774   5.716   1.270   9.536  0.0351 -0.5228  0.9209
  181SLPC  C31020775   5.845   1.115   9.462  0.0159 -0.2868 -0.2366
  181SLPC  H10X20776   5.805   1.051   9.544  0.4987 -2.3598 -1.5375
  181SLPC  H10Y20777   5.952   1.096   9.443  0.1735  0.9665 -0.6726
  181SLPC  C31120778   5.766   1.084   9.341  0.2265  0.6597  0.5022
  181SLPC  H11X20779   5.657   1.103   9.357  0.4065  2.3439  0.0124
  181SLPC  H11Y20780   5.781   0.978   9.311  3.5451  1.1253  0.1859
  181SLPC  C31220781   5.803   1.172   9.222  0.0933  0.0474  0.7542
  181SLPC  H12X20782   5.914   1.170   9.207  0.3845  1.0204  2.5014
  181SLPC  H12Y20783   5.792   1.280   9.246  0.0841 -0.1747  1.7897
  181SLPC  C31320784   5.733   1.126   9.087  0.2639 -0.6074  0.4600
  181SLPC  H13X20785   5.629   1.162   9.075  0.6092  0.1549 -0.3333
  181SLPC  H13Y20786   5.731   1.015   9.100 -2.0832 -0.5815  0.8392
  181SLPC  C31420787   5.812   1.155   8.954  0.1065 -0.2448 -0.1614
  181SLPC  H14X20788   5.914   1.111   8.958  0.2475  0.1924  2.3840
  181SLPC  H14Y20789   5.822   1.264   8.938  1.7454 -0.5987 -1.8474
  181SLPC  C31520790   5.741   1.096   8.826 -0.3597 -0.1008 -0.1524
  181SLPC  H15X20791   5.631   1.104   8.827 -0.2995  0.8856  1.1545
  181SLPC  H15Y20792   5.765   0.987   8.832  1.1985 -0.0431 -3.1247
  181SLPC  C31620793   5.791   1.147   8.694  0.4816  0.2872 -0.2928
  181SLPC  H16X20794   5.901   1.135   8.687  0.7151  0.8809  1.8170
  181SLPC  H16Y20795   5.781   1.258   8.688  1.7149  0.4953  0.8725
  181SLPC  C31720796   5.722   1.072   8.578  0.4332 -0.1393 -0.2421
  181SLPC  H17X20797   5.617   1.068   8.614  0.4505 -1.1066 -0.2736
  181SLPC  H17Y20798   5.767   0.971   8.569  0.9168 -0.1293  1.7291
  181SLPC  C31820799   5.745   1.142   8.445 -0.3538  0.3514  0.2804
  181SLPC  H18X20800   5.673   1.102   8.370  1.1599 -0.4385 -0.7980
  181SLPC  H18Y20801   5.848   1.115   8.413  0.2102  0.7730  1.6794
  181SLPC  H18Z20802   5.728   1.251   8.455 -1.6935  0.2874 -0.9691
  182SLPC     N20803   1.224   1.016  11.042 -0.0959  0.8141  0.6168
  182SLPC   C1320804   1.301   0.890  11.058  0.1836 -0.4873  0.4808
  182SLPC  H13A20805   1.251   0.802  11.021  1.3495 -0.8751 -0.2136
  182SLPC  H13B20806   1.398   0.885  11.012 -0.3654 -0.4655 -0.7136
  182SLPC  H13C20807   1.311   0.870  11.164 -0.6455 -0.3385  0.5964
  182SLPC   C1420808   1.277   1.113  11.145 -0.9312  0.1210  0.0435
  182SLPC  H14A20809   1.254   1.212  11.109 -1.9857 -1.2425 -3.4811
  182SLPC  H14B20810   1.238   1.085  11.241  0.8959 -1.6774  0.3318
  182SLPC  H14C20811   1.385   1.100  11.146 -0.8640 -1.2914 -4.0312
  182SLPC   C1520812   1.082   1.003  11.079  0.1182 -0.2277  0.5896
  182SLPC  H15A20813   1.033   1.096  11.053  1.4490  0.2422 -0.3449
  182SLPC  H15B20814   1.034   0.926  11.020  1.6882  0.9232 -2.4394
  182SLPC  H15C20815   1.068   0.983  11.184 -0.9216  2.9356  1.1738
  182SLPC   C1220816   1.247   1.077  10.902  0.1365 -0.3051 -0.1048
  182SLPC  H12A20817   1.186   1.038  10.822 -2.4003  0.5375  1.2949
  182SLPC  H12B20818   1.348   1.058  10.870 -0.8634  0.4713 -4.3257
  182SLPC   C1120819   1.233   1.238  10.879  0.1663  0.4670 -0.4067
  182SLPC  H11A20820   1.160   1.273  10.955 -1.1020  2.0262 -2.2530
  182SLPC  H11B20821   1.190   1.251  10.778 -0.4093  0.7940 -0.1262
  182SLPC     P20822   1.381   1.444  10.916 -0.2469  0.0580 -0.6120
  182SLPC   O1320823   1.264   1.479  10.999 -0.4073 -0.0812  0.2027
  182SLPC   O1420824   1.513   1.453  10.988  0.0503  0.1182 -0.0018
  182SLPC   O1220825   1.364   1.290  10.887  0.2370 -0.1403  0.3309
  182SLPC   O1120826   1.383   1.518  10.776 -0.5289  0.5799  0.7899
  182SLPC    C120827   1.463   1.437  10.681  0.2966 -0.5895 -0.5303
  182SLPC    HA20828   1.562   1.401  10.715 -1.1897 -1.8932  2.9210
  182SLPC    HB20829   1.400   1.351  10.649 -0.8981  1.0311 -2.7974
  182SLPC    C220830   1.492   1.531  10.564  0.4752  0.3279  0.3102
  182SLPC    HS20831   1.551   1.475  10.488  0.6179  1.6805 -0.6173
  182SLPC   O2120832   1.556   1.656  10.601  0.2488 -0.5209 -0.1483
  182SLPC   C2120833   1.685   1.645  10.617 -0.1709 -0.5294 -0.0834
  182SLPC   O2220834   1.754   1.548  10.599  0.4153  0.4086 -0.4750
  182SLPC   C2220835   1.736   1.778  10.674 -1.3468 -0.1204  0.1306
  182SLPC   H2R20836   1.655   1.854  10.681  0.3623  1.6612  1.5836
  182SLPC   H2S20837   1.770   1.779  10.780  0.1341  2.0612 -0.2927
  182SLPC    C320838   1.363   1.566  10.480  0.5996 -0.1390 -1.1316
  182SLPC    HX20839   1.310   1.645  10.537  0.1397 -2.4280  1.8638
  182SLPC    HY20840   1.295   1.478  10.476  1.1388 -0.5331 -2.0741
  182SLPC   O3120841   1.388   1.611  10.344  0.6536  0.3570 -0.1420
  182SLPC   C3120842   1.401   1.513  10.250  0.2508 -0.0370 -0.4193
  182SLPC   O3220843   1.364   1.399  10.266  0.1022 -0.0769  0.4985
  182SLPC   C3220844   1.442   1.579  10.125 -0.4200 -0.1195 -0.4877
  182SLPC   H2X20845   1.550   1.603  10.135 -0.6581 -0.0289  3.0098
  182SLPC   H2Y20846   1.392   1.676  10.110 -1.2441 -0.9465 -3.9946
  182SLPC   C2320847   1.854   1.848  10.587 -0.0412 -0.5786 -0.0774
  182SLPC   H3R20848   1.941   1.778  10.584  0.6415  0.2580 -2.3725
  182SLPC   H3S20849   1.888   1.941  10.636  3.8837 -1.4312 -0.8254
  182SLPC   C2420850   1.802   1.891  10.447  0.0949 -0.0478 -0.9447
  182SLPC   H4R20851   1.724   1.969  10.462 -0.8854 -0.9861 -0.9952
  182SLPC   H4S20852   1.757   1.799  10.402 -1.3072  0.5730 -0.8754
  182SLPC   C2520853   1.918   1.938  10.363  0.1140  0.2107  0.4554
  182SLPC   H5R20854   1.984   1.849  10.351 -1.3724 -1.5255  3.6843
  182SLPC   H5S20855   1.981   2.016  10.410  1.4956 -1.5662  1.6713
  182SLPC   C2620856   1.876   2.001  10.230  0.5305  0.3627  0.4460
  182SLPC   H6R20857   1.970   2.038  10.184  0.3413 -0.6876 -0.8365
  182SLPC   H6S20858   1.798   2.078  10.252 -1.8431 -2.3067  2.0804
  182SLPC   C2720859   1.809   1.912  10.125  0.5727  0.2683  0.3962
  182SLPC   H7R20860   1.707   1.897  10.166 -0.4264  3.7482 -0.5255
  182SLPC   H7S20861   1.855   1.812  10.112  3.5903  1.4461  1.1579
  182SLPC   C2820862   1.797   1.976   9.985 -0.0730  0.1636  0.6123
  182SLPC   H8R20863   1.762   1.894   9.919 -1.6275  2.1896 -1.2326
  182SLPC   H8S20864   1.903   1.984   9.953 -0.1739 -1.5259 -0.2615
  182SLPC   C2920865   1.708   2.093   9.951 -0.0285  0.5633 -0.3592
  182SLPC   H9R20866   1.670   2.161  10.028  1.7365  0.0783  0.9926
  182SLPC  C21020867   1.677   2.122   9.823  0.3313 -0.0465  0.4287
  182SLPC  H10R20868   1.621   2.215   9.805 -2.3087 -1.6143  0.1289
  182SLPC  C21120869   1.728   2.054   9.697 -0.6979 -0.5074  0.5381
  182SLPC  H11R20870   1.642   2.040   9.627 -0.7780 -1.9215  0.8769
  182SLPC  H11S20871   1.769   1.951   9.709  1.4184  0.3302  0.8006
  182SLPC  C21220872   1.835   2.149   9.642 -0.5924  0.0742  0.6024
  182SLPC  H12R20873   1.919   2.175   9.708  1.5129  0.2764 -1.9604
  182SLPC  C21320874   1.850   2.184   9.511 -0.4770 -0.0512  0.4373
  182SLPC  H13R20875   1.930   2.256   9.487  0.0540 -0.7587  0.0666
  182SLPC  C21420876   1.768   2.128   9.402 -0.0779 -0.3935 -0.0638
  182SLPC  H14R20877   1.695   2.207   9.373 -1.3418 -1.4001  0.2976
  182SLPC  H14S20878   1.702   2.042   9.426 -0.6975  0.2840  0.7131
  182SLPC  C21520879   1.847   2.100   9.272 -0.7114 -0.5477  0.1736
  182SLPC  H15R20880   1.928   2.026   9.291  1.7088  1.9537  0.3439
  182SLPC  H15S20881   1.903   2.194   9.251 -1.2565 -0.1620  0.4369
  182SLPC  C21620882   1.745   2.085   9.161  0.5274  0.8109 -0.1232
  182SLPC  H16R20883   1.703   2.184   9.132 -1.0971 -0.0084 -0.6860
  182SLPC  H16S20884   1.663   2.022   9.201  1.9051 -0.1383  1.3754
  182SLPC  C21720885   1.810   2.028   9.040 -1.0322 -0.7860  0.4089
  182SLPC  H17R20886   1.726   2.031   8.967 -1.5789  0.8234  1.0627
  182SLPC  H17S20887   1.841   1.922   9.049 -0.3372 -0.5212  1.2875
  182SLPC  C21820888   1.919   2.114   8.976  0.0928  0.2709  0.5988
  182SLPC  H18R20889   2.006   2.102   9.045  0.1614  0.2300  0.5062
  182SLPC  H18S20890   1.886   2.220   8.978 -0.4526  0.1408 -0.7464
  182SLPC  H18T20891   1.950   2.075   8.877 -1.8471  1.1196 -0.3887
  182SLPC   C3320892   1.429   1.487  10.001 -0.2636 -0.6248 -0.7812
  182SLPC   H3X20893   1.321   1.486   9.973 -0.1549 -1.2297 -1.1820
  182SLPC   H3Y20894   1.452   1.382  10.027 -0.0122 -0.2078  0.7801
  182SLPC   C3420895   1.517   1.544   9.889  0.4241  0.0860  0.5876
  182SLPC   H4X20896   1.512   1.475   9.802  2.5125 -0.9567  1.2064
  182SLPC   H4Y20897   1.625   1.538   9.917  0.6918  3.0314  0.4783
  182SLPC   C3520898   1.485   1.694   9.849 -0.6222 -0.7261 -0.3381
  182SLPC   H5X20899   1.512   1.747   9.943 -0.7413 -1.6500  0.2299
  182SLPC   H5Y20900   1.375   1.690   9.835 -0.7258 -1.7646  0.6114
  182SLPC   C3620901   1.565   1.752   9.731  0.7056  0.2904 -0.2076
  182SLPC   H6X20902   1.672   1.771   9.755  0.1106  0.6721  2.4411
  182SLPC   H6Y20903   1.525   1.852   9.703  1.5825  1.1945  1.6418
  182SLPC   C3720904   1.557   1.666   9.599  0.7453 -0.3238  0.3822
  182SLPC   H7X20905   1.455   1.648   9.560  0.3900  0.7077  0.7850
  182SLPC   H7Y20906   1.619   1.575   9.614 -0.8924 -1.9235 -2.0290
  182SLPC   C3820907   1.627   1.745   9.483 -0.5074 -0.0435 -0.3621
  182SLPC   H8X20908   1.732   1.763   9.513  0.5027  1.0651 -4.0294
  182SLPC   H8Y20909   1.582   1.846   9.482  1.1542  0.7717  1.1335
  182SLPC   C3920910   1.630   1.671   9.351  0.3440  0.0736  0.0849
  182SLPC   H9X20911   1.646   1.564   9.377  0.4530  0.2386  0.7060
  182SLPC   H9Y20912   1.721   1.688   9.290  0.5669 -1.4529 -0.0388
  182SLPC  C31020913   1.498   1.675   9.271 -0.5273  0.7687 -0.4703
  182SLPC  H10X20914   1.463   1.780   9.267  1.6851  1.5276 -1.3536
  182SLPC  H10Y20915   1.420   1.614   9.322  1.5210 -1.6755 -0.0193
  182SLPC  C31120916   1.507   1.609   9.131 -0.2072 -0.2839 -0.1796
  182SLPC  H11X20917   1.408   1.631   9.085 -0.4629 -0.0025  0.4949
  182SLPC  H11Y20918   1.520   1.499   9.135  0.7801 -0.2858 -2.0441
  182SLPC  C31220919   1.623   1.655   9.040 -0.8120  0.4998 -0.3167
  182SLPC  H12X20920   1.708   1.610   9.097 -0.4806  0.5901 -0.7359
  182SLPC  H12Y20921   1.655   1.761   9.033 -0.1869  0.4115  0.9171
  182SLPC  C31320922   1.617   1.592   8.902 -0.2542  0.1989 -0.1450
  182SLPC  H13X20923   1.530   1.623   8.840 -0.7271 -1.4049 -0.3514
  182SLPC  H13Y20924   1.606   1.482   8.915 -2.7189  0.4427  0.2469
  182SLPC  C31420925   1.738   1.611   8.813  0.1390 -0.1077  0.4747
  182SLPC  H14X20926   1.829   1.557   8.846  1.1784  0.9043 -0.6384
  182SLPC  H14Y20927   1.761   1.720   8.819 -0.1841  0.0745 -1.2282
  182SLPC  C31520928   1.714   1.570   8.672 -0.3544 -0.6044  0.5256
  182SLPC  H15X20929   1.669   1.655   8.616  0.4509 -0.0628  0.6743
  182SLPC  H15Y20930   1.651   1.480   8.660 -0.3186 -0.3784 -1.9559
  182SLPC  C31620931   1.853   1.547   8.607  0.8323 -0.2443 -0.8236
  182SLPC  H16X20932   1.918   1.499   8.683  0.5898 -0.4970 -0.7716
  182SLPC  H16Y20933   1.891   1.646   8.576  2.1281 -0.2937  0.5132
  182SLPC  C31720934   1.860   1.456   8.484  0.6739  0.7612 -0.1527
  182SLPC  H17X20935   1.799   1.501   8.403 -0.0070  0.5485  0.2353
  182SLPC  H17Y20936   1.807   1.366   8.519 -1.2911  2.1819  0.6754
  182SLPC  C31820937   2.000   1.441   8.430 -0.4337  0.1960 -0.3132
  182SLPC  H18X20938   2.050   1.534   8.394  2.7710 -1.4979 -0.5839
  182SLPC  H18Y20939   1.994   1.370   8.345 -0.8952 -0.5214  0.3040
  182SLPC  H18Z20940   2.071   1.400   8.505 -0.2732  1.0439  0.0151
  183SLPC     N20941   3.276   3.125  10.988 -1.3107  0.5677  0.0219
  183SLPC   C1320942   3.386   3.017  10.979 -0.4273  0.7397 -0.0648
  183SLPC  H13A20943   3.345   2.939  10.918 -1.4102  1.3111 -0.1479
  183SLPC  H13B20944   3.477   3.050  10.930  0.7423 -1.6867  0.3597
  183SLPC  H13C20945   3.408   2.969  11.073 -0.7506  1.0596  0.1796
  183SLPC   C1420946   3.311   3.236  11.080  0.2185  0.1366 -0.5673
  183SLPC  H14A20947   3.346   3.197  11.175 -1.5854 -0.3982 -0.0687
  183SLPC  H14B20948   3.381   3.305  11.037  1.0494 -0.8258 -0.7912
  183SLPC  H14C20949   3.219   3.285  11.109 -1.0375 -2.4117  0.0491
  183SLPC   C1520950   3.157   3.055  11.039  0.0124  0.2402  0.0582
  183SLPC  H15A20951   3.077   3.126  11.026 -0.6956 -0.2367  1.5576
  183SLPC  H15B20952   3.131   2.962  10.991 -0.1911 -0.2785  1.1265
  183SLPC  H15C20953   3.178   3.033  11.143 -1.5980  0.2025  0.4077
  183SLPC   C1220954   3.243   3.188  10.850  0.1990  0.5790 -0.3030
  183SLPC  H12A20955   3.206   3.110  10.784  0.3841 -0.8556  1.2045
  183SLPC  H12B20956   3.343   3.208  10.816  1.1064 -0.5794  1.5224
  183SLPC   C1120957   3.174   3.321  10.834  0.3823 -0.0468  0.2461
  183SLPC  H11A20958   3.171   3.360  10.729  2.3966 -1.0038 -0.2060
  183SLPC  H11B20959   3.217   3.401  10.898 -2.3063  1.3970  0.4028
  183SLPC     P20960   2.966   3.389  10.985 -0.4452 -0.4636 -0.2831
  183SLPC   O1320961   2.834   3.325  11.006 -0.6428  0.1478 -0.1974
  183SLPC   O1420962   3.046   3.408  11.106 -0.9863  0.0994 -0.3417
  183SLPC   O1220963   3.036   3.306  10.872 -0.3726  0.6178 -0.0850
  183SLPC   O1120964   2.942   3.530  10.920  0.0017  0.0370 -0.0197
  183SLPC    C120965   2.962   3.577  10.786 -0.0181 -0.7798 -0.3846
  183SLPC    HA20966   2.952   3.687  10.774 -0.5847 -0.7958 -0.0647
  183SLPC    HB20967   3.064   3.546  10.753  0.5891  1.0539 -0.3339
  183SLPC    C220968   2.883   3.503  10.682 -0.4118 -0.5897 -0.0421
  183SLPC    HS20969   2.931   3.403  10.674 -1.7627 -1.2676  0.1527
  183SLPC   O2120970   2.895   3.571  10.559 -0.1920 -0.1797 -0.4515
  183SLPC   C2120971   2.965   3.505  10.462  0.2721 -0.3759 -0.4996
  183SLPC   O2220972   3.021   3.402  10.481 -0.2007  0.4691 -0.3013
  183SLPC   C2220973   2.960   3.578  10.329  0.1032 -0.1310  0.3969
  183SLPC   H2R20974   2.860   3.573  10.281  0.7364  0.4253 -1.0200
  183SLPC   H2S20975   2.970   3.689  10.335  0.6410 -0.1500 -0.0633
  183SLPC    C320976   2.733   3.503  10.714  0.2820 -0.1798  0.2688
  183SLPC    HX20977   2.693   3.605  10.732 -2.5451 -1.2512  0.4044
  183SLPC    HY20978   2.722   3.444  10.807 -2.0677  1.1998  0.9261
  183SLPC   O3120979   2.666   3.446  10.597 -0.4832  0.3454 -0.6549
  183SLPC   C3120980   2.626   3.316  10.610 -0.3626  0.2771  0.1515
  183SLPC   O3220981   2.643   3.246  10.711  0.2658  0.6295 -0.1054
  183SLPC   C3220982   2.569   3.264  10.476 -0.0388  0.1623 -0.1200
  183SLPC   H2X20983   2.558   3.343  10.398 -1.7306 -0.5318 -0.6297
  183SLPC   H2Y20984   2.469   3.231  10.512 -0.2400  1.5453  0.6645
  183SLPC   C2320985   3.069   3.528  10.230  0.0758 -0.6675 -0.2757
  183SLPC   H3R20986   3.055   3.419  10.217  2.2497 -1.2743  1.7387
  183SLPC   H3S20987   3.169   3.546  10.273  0.5323  1.6041 -2.0925
  183SLPC   C2420988   3.063   3.603  10.094  0.5048 -0.7047 -0.5413
  183SLPC   H4R20989   3.146   3.566  10.030  2.3800 -0.5192  1.6667
  183SLPC   H4S20990   3.087   3.710  10.106 -1.9475  0.0214 -1.4992
  183SLPC   C2520991   2.931   3.594  10.017 -0.5233 -0.1299  0.2835
  183SLPC   H5R20992   2.852   3.647  10.075 -0.0805 -2.1328  2.9421
  183SLPC   H5S20993   2.908   3.486  10.002  1.5579 -0.5424 -0.2838
  183SLPC   C2620994   2.942   3.662   9.877 -0.3574 -0.3125  0.2592
  183SLPC   H6R20995   3.013   3.747   9.887 -2.2327  1.1654  1.7666
  183SLPC   H6S20996   2.847   3.710   9.846 -1.0231 -1.2636  0.7466
  183SLPC   C2720997   2.999   3.571   9.761  0.1206 -0.5632 -1.0409
  183SLPC   H7R20998   2.931   3.486   9.742 -1.8122  1.2613 -2.8036
  183SLPC   H7S20999   3.100   3.548   9.803  0.4463  2.8217  0.3210
  183SLPC   C2821000   3.021   3.652   9.628 -0.5653 -0.0115 -0.4049
  183SLPC   H8R21001   3.103   3.601   9.573 -0.8428 -0.5352 -0.3329
  183SLPC   H8S21002   3.063   3.752   9.651 -0.0844  0.3028 -2.4683
  183SLPC   C2921003   2.903   3.674   9.538  0.0716  0.0432  0.4379
  183SLPC   H9R21004   2.807   3.674   9.592 -0.7276 -1.3931 -0.9141
  183SLPC  C21021005   2.907   3.707   9.406 -0.4975  0.0320 -0.0901
  183SLPC  H10R21006   2.812   3.730   9.355  0.0534  4.2639  0.4765
  183SLPC  C21121007   3.028   3.726   9.328 -0.9507 -0.2492  0.0329
  183SLPC  H11R21008   3.038   3.637   9.262  1.0682  0.0009 -0.0579
  183SLPC  H11S21009   3.122   3.732   9.386 -1.3810 -2.8621  1.1544
  183SLPC  C21221010   3.018   3.845   9.233 -0.3773 -0.2008  0.1545
  183SLPC  H12R21011   3.039   3.938   9.289 -1.0491 -0.6579  1.2106
  183SLPC  C21321012   2.991   3.848   9.102 -0.5777  1.2620  0.5231
  183SLPC  H13R21013   2.988   3.944   9.049  0.2343  0.2996 -1.3263
  183SLPC  C21421014   2.968   3.731   9.007  0.1280  0.4908  0.5181
  183SLPC  H14R21015   2.910   3.655   9.065  1.6279 -0.1809  1.2104
  183SLPC  H14S21016   3.061   3.686   8.967 -0.7231 -0.8699 -0.0205
  183SLPC  C21521017   2.889   3.770   8.882 -0.4602  0.0640 -0.7297
  183SLPC  H15R21018   2.943   3.845   8.820  0.5726 -0.1946 -0.1468
  183SLPC  H15S21019   2.798   3.817   8.927  1.1585  1.8424  0.8502
  183SLPC  C21621020   2.846   3.644   8.801 -0.7080 -0.5663  0.3517
  183SLPC  H16R21021   2.797   3.569   8.867  2.0441 -3.3691 -0.5397
  183SLPC  H16S21022   2.937   3.599   8.756  0.2354  1.1288  0.4923
  183SLPC  C21721023   2.760   3.676   8.677  0.4458 -0.2434 -0.2428
  183SLPC  H17R21024   2.697   3.765   8.698  0.9518  0.1203 -0.2657
  183SLPC  H17S21025   2.701   3.584   8.658  1.2665 -0.8613  0.1216
  183SLPC  C21821026   2.855   3.714   8.556  0.0798  0.2625  0.1859
  183SLPC  H18R21027   2.914   3.627   8.521 -0.4867 -0.1995  0.3626
  183SLPC  H18S21028   2.919   3.801   8.581  0.7649  0.0252 -0.7049
  183SLPC  H18T21029   2.796   3.748   8.468  0.6847  2.6936  0.6478
  183SLPC   C3321030   2.652   3.148  10.418  1.0770 -0.2602 -0.6988
  183SLPC   H3X21031   2.582   3.097  10.347  1.6737 -0.2434 -1.3099
  183SLPC   H3Y21032   2.681   3.076  10.496 -0.6383  0.6386  0.8574
  183SLPC   C3421033   2.765   3.203  10.329  0.7647  0.3981 -0.7347
  183SLPC   H4X21034   2.851   3.243  10.386 -0.0664  1.1399  0.0230
  183SLPC   H4Y21035   2.715   3.281  10.268 -1.7798  1.0476  1.9901
  183SLPC   C3521036   2.815   3.085  10.240  0.0901  0.4682  0.4099
  183SLPC   H5X21037   2.737   3.063  10.163 -0.0084 -0.3269  0.7325
  183SLPC   H5Y21038   2.830   2.997  10.305 -1.1172 -0.1622 -0.1298
  183SLPC   C3621039   2.934   3.120  10.153  0.1651  0.3836  0.7855
  183SLPC   H6X21040   3.006   3.039  10.131  1.4174  1.8914 -1.0186
  183SLPC   H6Y21041   3.000   3.187  10.212  0.1017 -1.1514  2.6808
  183SLPC   C3721042   2.906   3.191  10.019 -0.8882 -0.0402 -0.3245
  183SLPC   H7X21043   2.881   3.291  10.061 -1.5150 -1.2069  2.2425
  183SLPC   H7Y21044   2.820   3.147   9.965 -0.6856  0.1691 -0.8215
  183SLPC   C3821045   3.037   3.215   9.937  1.0462  0.0615  0.2801
  183SLPC   H8X21046   3.113   3.251  10.010 -1.4954 -0.4213  3.3834
  183SLPC   H8Y21047   3.017   3.302   9.871  0.0940 -0.8299 -0.6263
  183SLPC   C3921048   3.079   3.098   9.849 -0.0054 -0.2291  0.7507
  183SLPC   H9X21049   2.987   3.037   9.830 -0.8648  0.8465  1.3428
  183SLPC   H9Y21050   3.153   3.041   9.908  3.1204  0.8948 -1.8102
  183SLPC  C31021051   3.152   3.139   9.719  0.3059  0.3236 -0.3003
  183SLPC  H10X21052   3.200   3.054   9.667 -1.8652 -1.0250 -0.2319
  183SLPC  H10Y21053   3.221   3.224   9.739 -1.0464  1.5526 -0.6714
  183SLPC  C31121054   3.053   3.181   9.613  0.2879 -0.0700  0.0481
  183SLPC  H11X21055   2.980   3.258   9.644  0.7768  1.2534 -1.8822
  183SLPC  H11Y21056   3.000   3.091   9.575 -1.5156  0.2092  1.7736
  183SLPC  C31221057   3.128   3.250   9.493 -0.8329 -0.7728 -0.3071
  183SLPC  H12X21058   3.217   3.189   9.466 -0.2912  0.0034 -0.3181
  183SLPC  H12Y21059   3.152   3.353   9.528  0.0616 -0.7469 -0.9459
  183SLPC  C31321060   3.048   3.270   9.367 -0.3871 -0.0757  0.0794
  183SLPC  H13X21061   2.961   3.335   9.390 -0.5184 -0.1704 -0.1458
  183SLPC  H13Y21062   3.017   3.170   9.331  2.8983 -1.2599  0.2470
  183SLPC  C31421063   3.141   3.331   9.253  0.4212  0.4339  0.4818
  183SLPC  H14X21064   3.232   3.269   9.235 -1.0979 -1.5700 -0.6646
  183SLPC  H14Y21065   3.176   3.434   9.277 -0.9993  1.6246 -2.1468
  183SLPC  C31521066   3.071   3.352   9.111  0.5234  0.0080 -0.5802
  183SLPC  H15X21067   2.981   3.414   9.133 -0.9579 -1.6692 -1.6049
  183SLPC  H15Y21068   3.044   3.250   9.077  1.2222 -0.0447 -0.9774
  183SLPC  C31621069   3.153   3.419   9.010  0.2567 -0.2886  0.1719
  183SLPC  H16X21070   3.262   3.409   9.029  0.1686 -0.8218  0.4108
  183SLPC  H16Y21071   3.134   3.528   9.006 -1.7960 -0.5948  0.7801
  183SLPC  C31721072   3.132   3.351   8.872  0.6586 -0.3252 -0.2478
  183SLPC  H17X21073   3.025   3.370   8.847  0.8727 -1.4621 -2.2746
  183SLPC  H17Y21074   3.151   3.242   8.887  1.0464 -0.0416  1.5598
  183SLPC  C31821075   3.222   3.412   8.760  0.3634 -0.5664 -0.4922
  183SLPC  H18X21076   3.332   3.414   8.777  0.5875  1.5923 -1.7768
  183SLPC  H18Y21077   3.189   3.516   8.737  2.0143 -0.1636 -1.1334
  183SLPC  H18Z21078   3.213   3.344   8.673  2.7323 -0.2217 -1.0699
  184SLPC     N21079   5.036   0.664  11.220  0.2455 -0.2813 -0.2263
  184SLPC   C1321080   5.133   0.580  11.146  0.6066  0.4541 -0.2659
  184SLPC  H13A21081   5.129   0.482  11.192 -2.2136  0.7582  0.3260
  184SLPC  H13B21082   5.106   0.557  11.044  0.3227 -0.0957 -0.0735
  184SLPC  H13C21083   5.232   0.623  11.141  1.1349 -0.5350  1.0025
  184SLPC   C1421084   5.103   0.699  11.349 -0.0153 -0.1125 -0.5418
  184SLPC  H14A21085   5.134   0.608  11.399  1.4991 -0.6093 -2.2629
  184SLPC  H14B21086   5.181   0.771  11.331 -1.1328  1.8162  1.7171
  184SLPC  H14C21087   5.028   0.754  11.405 -1.2091 -1.5377 -0.6749
  184SLPC   C1521088   4.909   0.588  11.236  0.0346  0.0380  0.0951
  184SLPC  H15A21089   4.844   0.645  11.300  0.4710  0.6997 -0.0405
  184SLPC  H15B21090   4.856   0.568  11.144 -1.3356 -0.9738  1.0692
  184SLPC  H15C21091   4.923   0.502  11.300 -2.2152 -0.4567  0.0218
  184SLPC   C1221092   5.018   0.798  11.140  0.1812  0.0182  0.2698
  184SLPC  H12A21093   5.096   0.867  11.167 -0.4254  1.5768 -1.6829
  184SLPC  H12B21094   4.927   0.846  11.175  1.3381  1.2719  1.7059
  184SLPC   C1121095   5.007   0.790  10.981 -0.8144 -0.1060  0.3108
  184SLPC  H11A21096   5.092   0.729  10.943  0.0644 -0.6358  2.8770
  184SLPC  H11B21097   5.017   0.894  10.942  2.3854 -0.1770  0.6454
  184SLPC     P21098   4.747   0.790  10.928 -0.0362  0.0252 -0.2526
  184SLPC   O1321099   4.639   0.687  10.937 -0.0266  0.2892  0.3410
  184SLPC   O1421100   4.741   0.907  11.022 -0.3822 -0.4664  0.2043
  184SLPC   O1221101   4.891   0.721  10.941 -0.0999  0.0590 -0.6174
  184SLPC   O1121102   4.745   0.850  10.779 -0.5870 -0.4757 -0.4709
  184SLPC    C121103   4.829   0.783  10.682  0.2619 -0.6484  0.6384
  184SLPC    HA21104   4.934   0.810  10.705  0.0654 -0.7542  1.6962
  184SLPC    HB21105   4.805   0.674  10.680 -1.7152 -0.2539 -0.2447
  184SLPC    C221106   4.797   0.838  10.534  0.1749 -0.2589  0.0986
  184SLPC    HS21107   4.873   0.797  10.465 -0.3443 -1.5397  0.2512
  184SLPC   O2121108   4.797   0.982  10.537 -0.2030  0.4299 -0.0693
  184SLPC   C2121109   4.916   1.040  10.542 -0.1984  0.6620  0.1925
  184SLPC   O2221110   5.021   0.977  10.540 -0.4319 -0.1586 -0.0585
  184SLPC   C2221111   4.908   1.192  10.535 -0.7521 -0.0062 -0.1223
  184SLPC   H2R21112   4.928   1.228  10.638 -0.6175  0.6404 -0.3688
  184SLPC   H2S21113   4.988   1.229  10.468 -0.5579 -0.5174 -0.1810
  184SLPC    C321114   4.657   0.792  10.484  0.9347  0.1552 -0.3945
  184SLPC    HX21115   4.591   0.802  10.573  0.5796  0.8691 -0.7268
  184SLPC    HY21116   4.663   0.683  10.463 -0.9224  0.0286 -0.4325
  184SLPC   O3121117   4.608   0.880  10.378 -0.4568 -0.2046 -0.8656
  184SLPC   C3121118   4.645   0.845  10.251  0.1822  0.0806 -0.1533
  184SLPC   O3221119   4.721   0.756  10.230 -0.5782  0.1648  0.4800
  184SLPC   C3221120   4.572   0.929  10.152 -0.0160  0.5932  0.3980
  184SLPC   H2X21121   4.572   1.031  10.196  3.2200  0.5153  0.8266
  184SLPC   H2Y21122   4.464   0.903  10.155  0.0886  0.1700  0.4670
  184SLPC   C2321123   4.774   1.250  10.491 -0.4070 -0.2361 -0.3059
  184SLPC   H3R21124   4.773   1.359  10.513  0.3572 -0.1426 -0.6907
  184SLPC   H3S21125   4.688   1.218  10.553 -1.3269  0.1981 -1.3304
  184SLPC   C2421126   4.739   1.234  10.346 -0.1231  0.8213 -0.8226
  184SLPC   H4R21127   4.631   1.248  10.323 -0.5664 -0.7103  0.1863
  184SLPC   H4S21128   4.759   1.132  10.307 -0.2873  1.5987 -3.1118
  184SLPC   C2521129   4.819   1.333  10.257 -0.4663 -0.3452  0.8783
  184SLPC   H5R21130   4.927   1.317  10.279  0.1392  2.4908  0.2989
  184SLPC   H5S21131   4.781   1.434  10.282  0.2786 -0.0578  0.8966
  184SLPC   C2621132   4.803   1.296  10.108 -0.0139  0.8537  0.3279
  184SLPC   H6R21133   4.696   1.296  10.079 -1.1683 -1.6574  3.9550
  184SLPC   H6S21134   4.832   1.191  10.087 -3.8735 -0.0084 -1.7370
  184SLPC   C2721135   4.875   1.389  10.014  0.2070  0.0046 -0.0468
  184SLPC   H7R21136   4.975   1.409  10.058  1.4903  0.3923 -2.8974
  184SLPC   H7S21137   4.823   1.488  10.014  0.1388 -0.0312 -0.0432
  184SLPC   C2821138   4.902   1.335   9.873  0.0940 -0.1869  0.0812
  184SLPC   H8R21139   4.946   1.234   9.884 -2.9808 -1.6000  0.4844
  184SLPC   H8S21140   4.979   1.404   9.833  2.5623 -1.9860  1.4626
  184SLPC   C2921141   4.765   1.322   9.802  0.1789  0.4178  0.2543
  184SLPC   H9R21142   4.696   1.266   9.867  0.0594 -0.1770 -0.3706
  184SLPC  C21021143   4.724   1.375   9.684 -0.1115  0.2450  1.1111
  184SLPC  H10R21144   4.622   1.352   9.648 -1.3576  1.1697  3.8160
  184SLPC  C21121145   4.814   1.452   9.589 -0.3177  0.1512 -0.3608
  184SLPC  H11R21146   4.898   1.487   9.653 -1.5915  1.3672  0.7182
  184SLPC  H11S21147   4.755   1.533   9.542 -1.6093 -0.0088  0.8964
  184SLPC  C21221148   4.872   1.365   9.482  0.1170 -0.4662 -0.6535
  184SLPC  H12R21149   4.885   1.258   9.505 -2.4125 -0.5682  0.6207
  184SLPC  C21321150   4.909   1.409   9.360  0.2946 -0.3877  0.2891
  184SLPC  H13R21151   4.949   1.343   9.282 -0.2075 -0.8214  0.3916
  184SLPC  C21421152   4.906   1.557   9.303 -0.3597 -0.6870 -0.7466
  184SLPC  H14R21153   5.014   1.568   9.276 -0.5716  2.5121 -0.6581
  184SLPC  H14S21154   4.877   1.640   9.372 -0.1943 -1.6541  0.5341
  184SLPC  C21521155   4.839   1.563   9.170 -0.3621 -0.2220 -0.7298
  184SLPC  H15R21156   4.873   1.471   9.119  2.6774  0.0584  0.5841
  184SLPC  H15S21157   4.874   1.659   9.125  0.5544  0.4052  1.2088
  184SLPC  C21621158   4.684   1.559   9.179  0.2792 -0.1692  0.9663
  184SLPC  H16R21159   4.660   1.559   9.287 -0.5579 -2.5254  0.8366
  184SLPC  H16S21160   4.649   1.466   9.127  1.7892  0.2138 -0.8700
  184SLPC  C21721161   4.623   1.683   9.112 -0.3966  0.4933  0.2309
  184SLPC  H17R21162   4.668   1.777   9.148  1.5991 -1.1993  2.4736
  184SLPC  H17S21163   4.516   1.675   9.142 -1.0153  0.1520 -1.8713
  184SLPC  C21821164   4.635   1.682   8.958 -0.4853 -0.3985 -0.0414
  184SLPC  H18R21165   4.568   1.604   8.916 -0.2470 -0.9154  0.5240
  184SLPC  H18S21166   4.740   1.672   8.922 -0.4459  1.5151 -0.5806
  184SLPC  H18T21167   4.594   1.780   8.926 -1.9774 -0.1903  2.2709
  184SLPC   C3321168   4.612   0.929  10.000 -0.2921  0.4142  0.0157
  184SLPC   H3X21169   4.605   0.825   9.961  1.2914  0.0696  0.5850
  184SLPC   H3Y21170   4.721   0.951  10.007  0.3972 -2.6643  0.5694
  184SLPC   C3421171   4.524   1.017   9.911 -0.9475 -0.2266 -0.7868
  184SLPC   H4X21172   4.537   1.127   9.924  1.2236 -0.1875 -2.5484
  184SLPC   H4Y21173   4.418   0.989   9.928 -0.3854 -0.7610  2.4787
  184SLPC   C3521174   4.553   0.991   9.761  0.6933 -0.9705  0.4306
  184SLPC   H5X21175   4.527   1.087   9.712  2.8145 -0.3188  0.4963
  184SLPC   H5Y21176   4.498   0.901   9.726 -0.1176  0.2375 -1.6163
  184SLPC   C3621177   4.700   0.958   9.733  0.0868  0.2845  0.6834
  184SLPC   H6X21178   4.729   0.861   9.779 -2.0638 -0.7037  0.0711
  184SLPC   H6Y21179   4.773   1.032   9.772 -2.0104  2.1138  1.3094
  184SLPC   C3721180   4.730   0.943   9.582  0.1088  0.9489 -0.5968
  184SLPC   H7X21181   4.715   1.044   9.537 -4.0244  0.9003  0.2732
  184SLPC   H7Y21182   4.653   0.873   9.545  1.2519  0.0813 -1.4157
  184SLPC   C3821183   4.872   0.897   9.563 -0.8411 -0.2678  0.5102
  184SLPC   H8X21184   4.900   0.809   9.624 -1.7156 -0.3580  0.7912
  184SLPC   H8Y21185   4.927   0.988   9.596 -0.8186 -0.1861  0.2552
  184SLPC   C3921186   4.910   0.882   9.415 -0.4478  0.7938  0.0783
  184SLPC   H9X21187   4.993   0.949   9.385 -0.1748  0.1121 -0.7230
  184SLPC   H9Y21188   4.830   0.904   9.342  1.1994 -0.5649 -2.2787
  184SLPC  C31021189   4.965   0.734   9.389  0.0623  0.3606 -0.7672
  184SLPC  H10X21190   4.891   0.662   9.429  0.1069  0.5956 -0.2441
  184SLPC  H10Y21191   5.063   0.723   9.441  0.4132 -1.1355 -1.7032
  184SLPC  C31121192   4.995   0.707   9.239  0.3235  0.4642  0.2848
  184SLPC  H11X21193   5.064   0.620   9.245  0.0988  0.3495  1.7027
  184SLPC  H11Y21194   5.056   0.791   9.198 -0.3144  1.1565  0.7202
  184SLPC  C31221195   4.882   0.667   9.141  0.0325 -0.2695 -0.3439
  184SLPC  H12X21196   4.799   0.740   9.149  0.2765  0.0580 -0.7745
  184SLPC  H12Y21197   4.845   0.568   9.175 -0.6098  0.5534  1.4851
  184SLPC  C31321198   4.927   0.645   8.996 -0.3584 -0.0857 -0.5015
  184SLPC  H13X21199   4.992   0.555   8.994  2.9043  2.0136  0.7309
  184SLPC  H13Y21200   4.989   0.734   8.970 -1.8591  2.0193  2.5222
  184SLPC  C31421201   4.809   0.635   8.895  0.4601 -0.0863  0.2110
  184SLPC  H14X21202   4.752   0.729   8.905  3.0110  1.4280  1.7169
  184SLPC  H14Y21203   4.747   0.544   8.912 -0.4085  0.3000 -0.7998
  184SLPC  C31521204   4.863   0.638   8.748  0.8921 -0.0687  0.2497
  184SLPC  H15X21205   4.936   0.556   8.735  0.7987  0.0574 -1.1674
  184SLPC  H15Y21206   4.924   0.730   8.739  1.4416 -0.5322 -0.8751
  184SLPC  C31621207   4.752   0.620   8.647 -0.4326  0.9912 -0.0345
  184SLPC  H16X21208   4.672   0.695   8.666  1.4212  3.2503 -0.7065
  184SLPC  H16Y21209   4.708   0.520   8.665  1.4486  0.5295  2.6515
  184SLPC  C31721210   4.799   0.643   8.497 -0.0640 -0.2435  0.4298
  184SLPC  H17X21211   4.721   0.595   8.434  3.3432 -2.1000 -2.8103
  184SLPC  H17Y21212   4.896   0.590   8.485 -0.6503 -1.2099 -0.1743
  184SLPC  C31821213   4.813   0.789   8.454  0.5572 -0.1496  0.1530
  184SLPC  H18X21214   4.883   0.843   8.522  3.7517 -3.4256 -0.2439
  184SLPC  H18Y21215   4.717   0.845   8.452  2.0174  2.6022  1.3741
  184SLPC  H18Z21216   4.847   0.784   8.348 -2.2230 -2.0018 -0.7686
  185SLPC     N21217   3.245   2.061   5.937  0.2223  0.6191  0.2607
  185SLPC   C1321218   3.239   2.208   5.937  0.4490 -0.0045  0.2577
  185SLPC  H13A21219   3.287   2.259   5.855 -2.5275  1.2287 -0.8571
  185SLPC  H13B21220   3.136   2.240   5.937  0.4359  0.1702  2.8459
  185SLPC  H13C21221   3.287   2.253   6.023  0.8804 -0.2818  0.1632
  185SLPC   C1421222   3.390   2.018   5.933  0.7544 -0.8858 -0.2169
  185SLPC  H14A21223   3.435   2.061   5.845  0.4218  1.4330  0.6568
  185SLPC  H14B21224   3.444   2.064   6.016  1.7177 -1.4990 -0.4901
  185SLPC  H14C21225   3.401   1.911   5.940  0.4105 -0.8312  2.4813
  185SLPC   C1521226   3.193   2.010   5.805  0.3500  0.4835  0.4730
  185SLPC  H15A21227   3.101   2.064   5.786 -2.0129 -3.1231  0.6604
  185SLPC  H15B21228   3.265   2.037   5.730 -0.3188 -0.0863 -0.3857
  185SLPC  H15C21229   3.172   1.905   5.793  0.7529  0.5966 -1.3613
  185SLPC   C1221230   3.178   2.003   6.058  0.1220  0.1266 -0.4224
  185SLPC  H12A21231   3.229   2.040   6.146 -0.2349 -0.9325  0.2475
  185SLPC  H12B21232   3.187   1.897   6.078  2.5309  0.5745  1.3535
  185SLPC   C1121233   3.037   2.044   6.080 -0.0455  0.0294  0.1685
  185SLPC  H11A21234   3.004   1.978   6.162 -2.3751  1.9455  0.8771
  185SLPC  H11B21235   2.974   2.020   5.992 -1.6113  1.1267  0.9451
  185SLPC     P21236   2.930   2.228   6.231 -0.2084 -0.2125 -0.0360
  185SLPC   O1321237   2.859   2.348   6.181 -0.0617 -0.3858 -0.7137
  185SLPC   O1421238   2.844   2.118   6.264  0.0322  0.1866  0.3960
  185SLPC   O1221239   3.030   2.183   6.114  0.2698 -0.3257  0.5116
  185SLPC   O1121240   3.021   2.271   6.356  0.3208  0.7385 -0.0161
  185SLPC    C121241   3.131   2.192   6.393  0.1326 -0.5292 -0.1408
  185SLPC    HA21242   3.144   2.098   6.334 -1.0297 -0.5653 -0.3559
  185SLPC    HB21243   3.219   2.259   6.383  0.8578 -1.2088  1.3728
  185SLPC    C221244   3.136   2.169   6.547  0.1962 -0.1321 -0.0846
  185SLPC    HS21245   3.044   2.109   6.561 -0.0668  0.5028  1.0213
  185SLPC   O2121246   3.138   2.295   6.617 -0.1409 -0.2952  0.4492
  185SLPC   C2121247   3.032   2.306   6.706 -0.8478  0.1178 -0.3194
  185SLPC   O2221248   2.934   2.236   6.700 -0.0950 -0.0152  0.3774
  185SLPC   C2221249   3.057   2.417   6.800 -0.1336 -0.7289  0.6490
  185SLPC   H2R21250   3.158   2.426   6.846 -0.9750  2.1635  2.2173
  185SLPC   H2S21251   3.047   2.511   6.742  0.0999 -2.8640 -3.1511
  185SLPC    C321252   3.251   2.076   6.590 -0.2003  0.3310 -0.2683
  185SLPC    HX21253   3.344   2.134   6.574 -0.8655  1.2327 -0.9993
  185SLPC    HY21254   3.261   1.993   6.516  2.0983  0.5642 -0.2937
  185SLPC   O3121255   3.237   2.037   6.723  0.1463  0.0723  0.8100
  185SLPC   C3121256   3.167   1.932   6.746  0.0344 -0.1934  0.0611
  185SLPC   O3221257   3.117   1.860   6.661 -0.7624  1.0848 -0.5242
  185SLPC   C3221258   3.166   1.919   6.896 -0.3693  0.5491  0.2357
  185SLPC   H2X21259   3.103   2.001   6.935  0.6210  0.6248  1.7405
  185SLPC   H2Y21260   3.267   1.939   6.937 -1.1556  0.2467  2.4161
  185SLPC   C2321261   2.958   2.431   6.924  0.5720 -0.3034 -0.1843
  185SLPC   H3R21262   2.853   2.439   6.890 -0.0876  1.8241  2.0785
  185SLPC   H3S21263   2.977   2.526   6.979  1.2620 -1.1979  1.1721
  185SLPC   C2421264   2.971   2.316   7.023  0.1365  0.0491 -0.3456
  185SLPC   H4R21265   3.080   2.298   7.034 -0.3451 -1.3086  4.7204
  185SLPC   H4S21266   2.932   2.219   6.986  2.0122 -0.2525 -1.6701
  185SLPC   C2521267   2.924   2.357   7.161  0.4740  0.4029  0.0912
  185SLPC   H5R21268   2.828   2.412   7.153 -1.3874 -2.5030  1.0467
  185SLPC   H5S21269   3.002   2.425   7.201  0.1953  1.9654 -1.8564
  185SLPC   C2621270   2.898   2.243   7.264  0.0861 -0.5422  0.2158
  185SLPC   H6R21271   2.967   2.156   7.257  0.8909 -0.1372  2.2764
  185SLPC   H6S21272   2.798   2.209   7.229 -0.1345 -0.3451  0.6531
  185SLPC   C2721273   2.881   2.290   7.408  0.0660 -0.8891 -0.4356
  185SLPC   H7R21274   2.796   2.361   7.414  0.0514 -1.0010  1.8688
  185SLPC   H7S21275   2.976   2.338   7.439 -0.7166  1.0007 -0.8326
  185SLPC   C2821276   2.855   2.173   7.500  0.5716  0.0325  0.5100
  185SLPC   H8R21277   2.927   2.094   7.471  2.9435  1.3842  2.3727
  185SLPC   H8S21278   2.760   2.123   7.472  0.3961 -0.0117  1.1653
  185SLPC   C2921279   2.857   2.186   7.648  0.7376 -0.2169  0.4014
  185SLPC   H9R21280   2.950   2.163   7.702 -0.3480 -0.8341  2.1250
  185SLPC  C21021281   2.751   2.236   7.718  0.5384  0.0703 -0.0501
  185SLPC  H10R21282   2.750   2.236   7.828 -2.2588  0.4577 -0.0182
  185SLPC  C21121283   2.620   2.290   7.662  0.0660  0.2979 -0.4182
  185SLPC  H11R21284   2.619   2.300   7.551  0.7714 -0.0011 -0.4544
  185SLPC  H11S21285   2.597   2.394   7.696 -2.6302 -1.0669  2.3579
  185SLPC  C21221286   2.497   2.210   7.705  0.2761 -0.4562  0.0742
  185SLPC  H12R21287   2.493   2.118   7.646 -0.5939 -0.9991  0.9411
  185SLPC  C21321288   2.406   2.255   7.798  0.2864 -0.1734 -0.0175
  185SLPC  H13R21289   2.316   2.195   7.820 -0.6484  1.2662  0.2915
  185SLPC  C21421290   2.418   2.387   7.874  0.0332 -0.0221  0.1270
  185SLPC  H14R21291   2.338   2.459   7.845  1.0069  0.2815 -1.9384
  185SLPC  H14S21292   2.505   2.449   7.846 -0.8811  0.9367 -0.7052
  185SLPC  C21521293   2.416   2.368   8.028 -0.5218 -0.1393  0.1272
  185SLPC  H15R21294   2.338   2.294   8.058 -1.1372 -0.1893 -1.5153
  185SLPC  H15S21295   2.381   2.454   8.088  2.4129  0.9583  0.4105
  185SLPC  C21621296   2.550   2.349   8.095 -0.1815 -0.6241 -0.0419
  185SLPC  H16R21297   2.615   2.439   8.090 -0.8131 -0.0530  1.3202
  185SLPC  H16S21298   2.603   2.265   8.046 -0.3491 -0.9928  0.4009
  185SLPC  C21721299   2.538   2.305   8.244 -0.6758  0.2707 -0.0789
  185SLPC  H17R21300   2.477   2.213   8.238 -1.8334  0.9300  1.0833
  185SLPC  H17S21301   2.484   2.373   8.312 -0.3973 -0.6581  1.1019
  185SLPC  C21821302   2.679   2.273   8.303 -0.0032  0.2469  0.1134
  185SLPC  H18R21303   2.728   2.197   8.238 -0.5438 -0.8877  0.9859
  185SLPC  H18S21304   2.660   2.226   8.402  0.7860  0.7481  0.5116
  185SLPC  H18T21305   2.743   2.363   8.309  0.4031 -0.0431  0.1483
  185SLPC   C3321306   3.102   1.792   6.943  0.7836 -0.2456 -0.1465
  185SLPC   H3X21307   3.150   1.702   6.898  2.3135  0.9186 -0.9134
  185SLPC   H3Y21308   2.993   1.799   6.922  0.6191  4.1492  1.2018
  185SLPC   C3421309   3.109   1.787   7.096 -0.3884 -0.3252 -0.2357
  185SLPC   H4X21310   3.083   1.887   7.137 -1.0774 -0.8333  0.6031
  185SLPC   H4Y21311   3.211   1.771   7.136 -0.4553  0.5803  0.3257
  185SLPC   C3521312   3.005   1.691   7.155  0.2316  0.1948  0.2705
  185SLPC   H5X21313   3.007   1.601   7.091 -1.1398  0.7852 -0.6233
  185SLPC   H5Y21314   2.902   1.726   7.135 -0.0349 -0.7006  0.0242
  185SLPC   C3621315   3.027   1.646   7.296 -0.5155  0.5731  0.1488
  185SLPC   H6X21316   3.129   1.601   7.300 -0.7032  0.1540  3.6873
  185SLPC   H6Y21317   2.957   1.565   7.325  0.6149 -0.2189  0.7446
  185SLPC   C3721318   3.013   1.761   7.400 -0.0027  0.3719 -0.1304
  185SLPC   H7X21319   2.909   1.797   7.386 -0.3832 -0.5002  0.3457
  185SLPC   H7Y21320   3.085   1.845   7.388 -1.9751  2.7761  3.1326
  185SLPC   C3821321   3.005   1.723   7.552 -0.4767 -0.3028 -0.9328
  185SLPC   H8X21322   3.005   1.804   7.628 -0.8022 -1.2593  0.1204
  185SLPC   H8Y21323   3.103   1.673   7.571  0.1276  0.8023 -1.0349
  185SLPC   C3921324   2.886   1.630   7.577  0.1127  1.1408 -0.0729
  185SLPC   H9X21325   2.890   1.531   7.526 -0.1790  0.5055  1.1061
  185SLPC   H9Y21326   2.792   1.673   7.537  0.4649  1.5806 -0.4421
  185SLPC  C31021327   2.882   1.595   7.723 -0.1173  0.4516  0.4312
  185SLPC  H10X21328   2.885   1.691   7.780 -0.0007  1.0545 -0.5588
  185SLPC  H10Y21329   2.974   1.535   7.740 -0.2442  0.2450  0.3876
  185SLPC  C31121330   2.755   1.517   7.767 -0.2654 -0.6737  0.5199
  185SLPC  H11X21331   2.755   1.419   7.716 -0.8446  0.4514 -1.7849
  185SLPC  H11Y21332   2.664   1.578   7.746  1.6157  1.4968 -2.0735
  185SLPC  C31221333   2.745   1.498   7.920 -0.2486 -0.2244 -0.2501
  185SLPC  H12X21334   2.785   1.589   7.969 -0.6130  0.3114 -0.9365
  185SLPC  H12Y21335   2.810   1.411   7.946  1.2408  0.4255 -1.6299
  185SLPC  C31321336   2.600   1.488   7.976  0.0103 -0.2373  0.9852
  185SLPC  H13X21337   2.541   1.414   7.918  1.8116  1.1454 -2.9049
  185SLPC  H13Y21338   2.546   1.583   7.957 -0.0078 -0.4837 -0.2562
  185SLPC  C31421339   2.591   1.481   8.129 -0.6393 -0.0612 -0.3687
  185SLPC  H14X21340   2.642   1.570   8.172  1.2602 -1.5776  0.7224
  185SLPC  H14Y21341   2.654   1.392   8.153 -0.7614 -0.1141 -0.2394
  185SLPC  C31521342   2.449   1.458   8.179 -0.1882 -0.5696  0.0389
  185SLPC  H15X21343   2.389   1.548   8.155 -2.5858 -2.4267 -1.3091
  185SLPC  H15Y21344   2.447   1.452   8.290 -0.8066 -1.4185 -0.0079
  185SLPC  C31621345   2.381   1.331   8.125 -0.2543 -0.3659  0.5828
  185SLPC  H16X21346   2.441   1.240   8.144 -2.1937 -2.0843 -1.0861
  185SLPC  H16Y21347   2.369   1.344   8.016 -0.8719 -1.1350  0.5511
  185SLPC  C31721348   2.243   1.302   8.190 -0.5727 -0.5958 -0.1530
  185SLPC  H17X21349   2.182   1.387   8.152 -1.2451  0.2720  2.6568
  185SLPC  H17Y21350   2.236   1.316   8.300 -0.6158  1.7966 -0.4048
  185SLPC  C31821351   2.201   1.161   8.150 -0.1966  0.3371 -0.0771
  185SLPC  H18X21352   2.142   1.120   8.234  0.3495  1.3472  0.8126
  185SLPC  H18Y21353   2.276   1.078   8.140  1.4950  1.6166  1.3095
  185SLPC  H18Z21354   2.133   1.161   8.062  1.5419  4.5632 -1.6841
  186SLPC     N21355   3.491   4.101   6.288  0.0017  0.6224  0.5567
  186SLPC   C1321356   3.438   4.230   6.304 -0.5450 -0.1436  0.3206
  186SLPC  H13A21357   3.381   4.279   6.227  0.8406  1.9195  0.5363
  186SLPC  H13B21358   3.386   4.236   6.399 -0.4650 -0.1516  0.3647
  186SLPC  H13C21359   3.520   4.300   6.303 -2.1634  1.9703  2.5896
  186SLPC   C1421360   3.581   4.071   6.402 -0.0489  0.0947 -0.1824
  186SLPC  H14A21361   3.672   4.128   6.405  0.6899 -1.0729  1.9270
  186SLPC  H14B21362   3.535   4.088   6.498 -2.0317  1.6149 -1.3335
  186SLPC  H14C21363   3.624   3.972   6.395  0.2911  0.2063  0.2723
  186SLPC   C1521364   3.587   4.097   6.167  0.1199  0.0580 -0.2143
  186SLPC  H15A21365   3.670   4.166   6.163  1.1548 -1.1600 -0.2544
  186SLPC  H15B21366   3.630   3.998   6.164  0.7582  0.2892  0.7213
  186SLPC  H15C21367   3.528   4.114   6.078  0.1355  1.0489 -0.0476
  186SLPC   C1221368   3.389   3.989   6.276  0.4858  0.2646  0.6795
  186SLPC  H12A21369   3.437   3.902   6.234  0.4920  0.7613 -0.3812
  186SLPC  H12B21370   3.316   4.012   6.200  3.2663  3.4759 -1.3243
  186SLPC   C1121371   3.324   3.942   6.413  0.0717 -0.3451 -0.2243
  186SLPC  H11A21372   3.405   3.923   6.486  1.4348  0.0936 -1.5755
  186SLPC  H11B21373   3.283   3.842   6.388 -0.7258  0.7941 -4.0416
  186SLPC     P21374   3.077   4.029   6.395  0.0748 -0.1901  0.0956
  186SLPC   O1321375   2.988   4.126   6.465 -0.4375  0.3010 -0.8408
  186SLPC   O1421376   3.092   4.050   6.251  0.1438  0.5046 -0.7064
  186SLPC   O1221377   3.221   4.032   6.460  0.7078 -0.2592  0.5443
  186SLPC   O1121378   3.017   3.886   6.423  0.3430  0.4513  0.1288
  186SLPC    C121379   2.886   3.867   6.471 -0.3038  0.7223  0.1038
  186SLPC    HA21380   2.807   3.922   6.414 -1.3889  0.5302  1.3632
  186SLPC    HB21381   2.865   3.761   6.445  2.5218  0.4300 -1.3372
  186SLPC    C221382   2.867   3.890   6.629 -0.0090 -0.4165  0.0666
  186SLPC    HS21383   2.849   3.999   6.642  3.2012  0.1257  0.9567
  186SLPC   O2121384   2.982   3.848   6.708 -0.0600  0.0857 -0.2240
  186SLPC   C2121385   3.022   3.925   6.806  0.5481  0.1028  0.3384
  186SLPC   O2221386   2.963   4.028   6.840 -0.5199 -0.5584  0.5452
  186SLPC   C2221387   3.140   3.858   6.867 -1.0626 -0.0487  0.1086
  186SLPC   H2R21388   3.215   3.839   6.787  1.4152  3.5932  1.3102
  186SLPC   H2S21389   3.179   3.917   6.953  0.1798 -0.7701  0.0671
  186SLPC    C321390   2.734   3.821   6.678  0.2020  0.0730 -1.0613
  186SLPC    HX21391   2.715   3.859   6.780 -0.7008 -0.7429 -0.9214
  186SLPC    HY21392   2.752   3.712   6.672  0.6397  0.1937 -2.2054
  186SLPC   O3121393   2.632   3.851   6.587  0.0637 -0.3087  0.8087
  186SLPC   C3121394   2.554   3.961   6.611 -0.0805 -0.4902 -0.4051
  186SLPC   O3221395   2.570   4.036   6.706  0.3467  0.2041 -0.3472
  186SLPC   C3221396   2.463   3.973   6.495  0.8605 -0.2518  0.6128
  186SLPC   H2X21397   2.527   3.979   6.405  1.5783  4.1140  1.1922
  186SLPC   H2Y21398   2.413   4.072   6.504  1.3096  0.2557 -1.9340
  186SLPC   C2321399   3.098   3.726   6.930 -0.3080  0.2406 -0.1450
  186SLPC   H3R21400   3.107   3.644   6.856  0.1270 -0.0889  0.2681
  186SLPC   H3S21401   2.993   3.723   6.968 -0.3266  0.2998 -0.1913
  186SLPC   C2421402   3.185   3.674   7.043 -0.2549 -0.0398 -0.1249
  186SLPC   H4R21403   3.185   3.737   7.134 -2.0253 -0.5382  0.2538
  186SLPC   H4S21404   3.281   3.682   6.988 -0.8796  1.7674 -1.0184
  186SLPC   C2521405   3.160   3.529   7.094 -0.6537  0.4524  0.0171
  186SLPC   H5R21406   3.249   3.496   7.151 -0.0509 -0.2377 -1.2684
  186SLPC   H5S21407   3.152   3.462   7.006 -1.8425  0.0408  0.4265
  186SLPC   C2621408   3.034   3.503   7.172  0.1512  0.1032  0.2296
  186SLPC   H6R21409   3.046   3.398   7.205  0.5213  0.5277  1.5105
  186SLPC   H6S21410   2.948   3.503   7.102 -1.7449 -1.1133  2.4400
  186SLPC   C2721411   2.995   3.587   7.290 -0.5042 -0.2764 -0.7471
  186SLPC   H7R21412   2.910   3.540   7.344  0.8413 -0.3359  1.4608
  186SLPC   H7S21413   2.958   3.688   7.262 -0.2358  0.4000  1.1500
  186SLPC   C2821414   3.113   3.611   7.386 -0.1166 -0.8624 -0.0507
  186SLPC   H8R21415   3.084   3.694   7.454 -0.5103 -2.6925  2.1190
  186SLPC   H8S21416   3.200   3.654   7.332 -0.0531  1.6194  1.8756
  186SLPC   C2921417   3.154   3.487   7.451 -0.9732 -0.5398  0.0540
  186SLPC   H9R21418   3.178   3.405   7.382  4.7784  1.3030 -0.6616
  186SLPC  C21021419   3.168   3.456   7.586 -0.4475  0.1348  0.1014
  186SLPC  H10R21420   3.202   3.356   7.616 -1.7565  0.3125  2.3974
  186SLPC  C21121421   3.152   3.544   7.715  0.0926  0.9695  0.3045
  186SLPC  H11R21422   3.151   3.652   7.692 -0.2518  0.7936 -0.5670
  186SLPC  H11S21423   3.240   3.526   7.781 -0.7106 -0.0584  1.1342
  186SLPC  C21221424   3.023   3.512   7.792  0.1701 -0.4565 -0.0462
  186SLPC  H12R21425   2.932   3.556   7.749  0.6457 -2.6258 -3.7990
  186SLPC  C21321426   3.023   3.424   7.895  0.3003 -0.3940  0.0509
  186SLPC  H13R21427   2.922   3.401   7.932  1.2285 -1.4102  2.1837
  186SLPC  C21421428   3.141   3.352   7.956 -0.0615  0.7905  0.1126
  186SLPC  H14R21429   3.216   3.317   7.882 -0.8843 -0.8989  0.0161
  186SLPC  H14S21430   3.095   3.269   8.015  1.3070  1.0217  1.5599
  186SLPC  C21521431   3.218   3.442   8.064 -0.0819  0.2632  0.2419
  186SLPC  H15R21432   3.144   3.481   8.137  1.2754  2.3510  0.5986
  186SLPC  H15S21433   3.245   3.535   8.009  1.5777  0.3469  1.1215
  186SLPC  C21621434   3.338   3.364   8.120  0.0317  0.3928  0.1812
  186SLPC  H16R21435   3.414   3.341   8.042  0.4376  0.3477  0.5895
  186SLPC  H16S21436   3.298   3.266   8.156 -0.6829  0.3418 -0.7155
  186SLPC  C21721437   3.413   3.427   8.237 -0.4033 -0.1345  0.2702
  186SLPC  H17R21438   3.501   3.372   8.277  0.9654  1.5439 -0.3104
  186SLPC  H17S21439   3.338   3.414   8.317 -1.0360  0.4216 -0.2234
  186SLPC  C21821440   3.447   3.574   8.219 -0.7568 -0.3902  0.0568
  186SLPC  H18R21441   3.362   3.646   8.217  0.5781  1.2975  1.4655
  186SLPC  H18S21442   3.497   3.588   8.121 -0.0235 -0.7622  0.3690
  186SLPC  H18T21443   3.511   3.607   8.304  1.0576 -0.0737 -1.3821
  186SLPC   C3321444   2.378   3.856   6.452  0.5035  0.1160  0.1284
  186SLPC   H3X21445   2.438   3.761   6.453 -0.1030 -0.2663  0.9705
  186SLPC   H3Y21446   2.366   3.865   6.342  1.0231  1.8719  0.1825
  186SLPC   C3421447   2.253   3.835   6.532  0.3434  0.3826 -0.5148
  186SLPC   H4X21448   2.291   3.786   6.623  2.7114  1.1830 -0.9993
  186SLPC   H4Y21449   2.182   3.762   6.488 -1.9889  3.0659 -1.5514
  186SLPC   C3521450   2.172   3.972   6.554  0.2857  0.5201 -0.2097
  186SLPC   H5X21451   2.179   4.027   6.458  0.9930  2.0925  0.6947
  186SLPC   H5Y21452   2.225   4.034   6.630 -2.0071  2.3514  0.0317
  186SLPC   C3621453   2.030   3.943   6.601 -0.7573  0.2868  0.1150
  186SLPC   H6X21454   1.976   3.872   6.535 -0.2124 -1.0108  1.0226
  186SLPC   H6Y21455   1.974   4.039   6.604 -0.1361  0.6750 -0.4044
  186SLPC   C3721456   2.013   3.892   6.750 -0.0189  0.3189 -0.6073
  186SLPC   H7X21457   2.073   3.968   6.805 -0.5122  0.9391 -0.9099
  186SLPC   H7Y21458   2.066   3.795   6.755 -0.6136  0.0481  1.3923
  186SLPC   C3821459   1.867   3.889   6.800  0.0800  0.0017  0.0095
  186SLPC   H8X21460   1.817   3.817   6.732  1.5733 -1.4608  0.3877
  186SLPC   H8Y21461   1.824   3.990   6.783 -0.1121  0.0302  0.6651
  186SLPC   C3921462   1.863   3.857   6.951 -0.2081 -0.6590 -0.0329
  186SLPC   H9X21463   1.895   3.944   7.013  2.3948 -1.6121  0.1034
  186SLPC   H9Y21464   1.931   3.774   6.981  1.8633  1.4051  1.3815
  186SLPC  C31021465   1.721   3.827   6.997 -0.7732 -0.4000  0.1095
  186SLPC  H10X21466   1.690   3.741   6.932 -1.3724  1.1414 -1.7493
  186SLPC  H10Y21467   1.655   3.911   6.966  0.6155 -0.7636 -4.7834
  186SLPC  C31121468   1.693   3.797   7.149 -0.7212  0.4276  0.3009
  186SLPC  H11X21469   1.724   3.878   7.218  0.6432 -0.8839  1.2873
  186SLPC  H11Y21470   1.763   3.715   7.175  0.9734  2.4270  2.4581
  186SLPC  C31221471   1.548   3.758   7.178 -0.0453  0.6413 -0.1518
  186SLPC  H12X21472   1.532   3.649   7.173  0.9092  0.5087 -0.6975
  186SLPC  H12Y21473   1.477   3.795   7.101 -1.7169  0.9096  1.4650
  186SLPC  C31321474   1.502   3.807   7.315 -0.4001  0.3655 -0.6407
  186SLPC  H13X21475   1.392   3.816   7.318 -0.5185 -1.0318 -0.3720
  186SLPC  H13Y21476   1.532   3.911   7.341 -1.2350  0.2623  0.8694
  186SLPC  C31421477   1.551   3.702   7.420  0.1517 -0.2570  0.0321
  186SLPC  H14X21478   1.659   3.681   7.403  0.4344  1.4382 -0.4384
  186SLPC  H14Y21479   1.499   3.608   7.389  2.4344 -1.3882 -0.5854
  186SLPC  C31521480   1.525   3.726   7.570  0.1807  0.4653  0.0041
  186SLPC  H15X21481   1.415   3.724   7.588  0.0087  1.4765 -0.8474
  186SLPC  H15Y21482   1.558   3.829   7.597  2.6989 -1.0222  3.5019
  186SLPC  C31621483   1.598   3.633   7.661 -0.2463  0.2626 -0.4840
  186SLPC  H16X21484   1.708   3.634   7.642 -0.2111 -1.6436 -0.5436
  186SLPC  H16Y21485   1.569   3.529   7.636 -0.8475  0.6293 -1.3577
  186SLPC  C31721486   1.586   3.662   7.808  0.0553 -0.4627  0.3545
  186SLPC  H17X21487   1.480   3.663   7.843 -0.4788 -0.0855 -1.1906
  186SLPC  H17Y21488   1.621   3.763   7.836 -0.7983  0.2111 -0.9130
  186SLPC  C31821489   1.660   3.557   7.893  0.2102 -0.2769  0.2343
  186SLPC  H18X21490   1.770   3.551   7.884  0.1654 -0.1757 -0.4148
  186SLPC  H18Y21491   1.636   3.456   7.855  3.1932 -0.9789 -0.0128
  186SLPC  H18Z21492   1.629   3.565   8.000  0.7558 -0.3284  0.3967
  187SLPC     N21493   4.770   2.681   6.352 -0.2623 -0.4420 -0.9636
  187SLPC   C1321494   4.681   2.590   6.277 -0.2394  0.5121  0.5975
  187SLPC  H13A21495   4.582   2.630   6.266  0.1805  1.1749 -1.0867
  187SLPC  H13B21496   4.722   2.565   6.180 -0.9980  3.2173 -0.4958
  187SLPC  H13C21497   4.682   2.493   6.326 -0.6202  0.1438 -0.0996
  187SLPC   C1421498   4.681   2.747   6.459 -0.0620 -0.0209  0.1301
  187SLPC  H14A21499   4.601   2.796   6.406 -1.4976  0.4588  2.5976
  187SLPC  H14B21500   4.630   2.674   6.520 -0.4848 -0.6230 -0.9054
  187SLPC  H14C21501   4.740   2.813   6.521 -1.8952  0.2962  1.6044
  187SLPC   C1521502   4.816   2.795   6.263 -0.0029 -0.4136  0.2954
  187SLPC  H15A21503   4.877   2.758   6.182  0.1706 -0.7770  0.5905
  187SLPC  H15B21504   4.729   2.840   6.217 -1.2801 -2.0279  1.0365
  187SLPC  H15C21505   4.868   2.870   6.320  1.3085 -0.4037 -0.8722
  187SLPC   C1221506   4.888   2.623   6.424 -0.3657  0.3462  0.7820
  187SLPC  H12A21507   4.965   2.698   6.437  1.5150 -1.4486  0.4545
  187SLPC  H12B21508   4.940   2.549   6.365 -4.4952 -1.1687 -1.3518
  187SLPC   C1121509   4.860   2.559   6.556 -0.2852 -0.0119 -0.1797
  187SLPC  H11A21510   4.845   2.642   6.628  0.6025 -0.9752  1.1613
  187SLPC  H11B21511   4.954   2.504   6.580  0.8971  1.4554 -1.2162
  187SLPC     P21512   4.767   2.328   6.487 -0.2472  0.4065 -0.0594
  187SLPC   O1321513   4.646   2.292   6.419  0.3287  0.3038  0.2282
  187SLPC   O1421514   4.894   2.323   6.408  0.0528  0.1690 -0.4396
  187SLPC   O1221515   4.750   2.463   6.558 -0.2039 -0.8880 -0.2312
  187SLPC   O1121516   4.799   2.225   6.604 -0.4473 -0.0521  0.2726
  187SLPC    C121517   4.738   2.229   6.735  0.1765  0.0321 -0.6462
  187SLPC    HA21518   4.631   2.257   6.740  0.2929  0.2812  1.4839
  187SLPC    HB21519   4.745   2.131   6.787 -0.7043  0.7041  0.7947
  187SLPC    C221520   4.809   2.324   6.835  0.2776  0.4567  0.8582
  187SLPC    HS21521   4.809   2.426   6.791  0.2422  0.3886  0.6985
  187SLPC   O2121522   4.950   2.280   6.844  0.5609  0.5333 -0.3681
  187SLPC   C2121523   5.041   2.370   6.860 -0.8469 -0.0022 -0.3855
  187SLPC   O2221524   5.024   2.494   6.867 -0.0389 -0.1884 -0.1305
  187SLPC   C2221525   5.172   2.290   6.871  0.1208  0.4204  0.3718
  187SLPC   H2R21526   5.157   2.187   6.910 -2.5388  0.5917 -0.0491
  187SLPC   H2S21527   5.206   2.274   6.767 -0.7851 -1.5418  0.3260
  187SLPC    C321528   4.747   2.323   6.976 -0.3856 -0.1978  0.1709
  187SLPC    HX21529   4.768   2.217   6.999  0.7221 -0.6527 -2.5700
  187SLPC    HY21530   4.636   2.330   6.972 -0.4029 -0.3993  0.2841
  187SLPC   O3121531   4.811   2.403   7.076  0.6177  0.4780 -0.0038
  187SLPC   C3121532   4.785   2.530   7.059  0.4165  0.2615 -0.7510
  187SLPC   O3221533   4.712   2.582   6.980 -0.1447 -0.5317 -0.5163
  187SLPC   C3221534   4.877   2.607   7.158 -0.4642 -0.5337 -0.3804
  187SLPC   H2X21535   4.887   2.711   7.121 -1.0397  0.3740  1.8898
  187SLPC   H2Y21536   4.977   2.558   7.165 -0.4206 -0.3106  0.8229
  187SLPC   C2321537   5.280   2.348   6.956 -0.1690 -0.4332 -0.3968
  187SLPC   H3R21538   5.333   2.440   6.922  1.2972 -0.8334  0.6641
  187SLPC   H3S21539   5.350   2.262   6.957  0.5096  0.1056 -0.3929
  187SLPC   C2421540   5.232   2.383   7.101  0.4552  0.2601  0.3080
  187SLPC   H4R21541   5.148   2.322   7.139 -0.0266  0.8965  0.2808
  187SLPC   H4S21542   5.197   2.489   7.094 -0.0169  0.0177 -1.9642
  187SLPC   C2521543   5.338   2.379   7.204  0.3351  0.6756  0.1973
  187SLPC   H5R21544   5.411   2.462   7.190  0.2927  0.8550  0.9846
  187SLPC   H5S21545   5.397   2.286   7.192 -2.8284 -1.4707  0.1987
  187SLPC   C2621546   5.268   2.397   7.339 -0.1761  0.0627 -0.1416
  187SLPC   H6R21547   5.195   2.317   7.365 -0.5636  0.4215 -0.1200
  187SLPC   H6S21548   5.219   2.496   7.349 -0.3822 -0.0852  0.3676
  187SLPC   C2721549   5.372   2.378   7.450  0.1225 -0.3509 -0.5199
  187SLPC   H7R21550   5.430   2.473   7.456 -0.8523  0.3889 -2.0728
  187SLPC   H7S21551   5.442   2.295   7.426  0.7849  0.2589 -0.7547
  187SLPC   C2821552   5.314   2.336   7.587  0.3761 -0.3570 -0.1017
  187SLPC   H8R21553   5.260   2.238   7.587 -3.7414  1.6829  1.4254
  187SLPC   H8S21554   5.237   2.409   7.618 -1.4479 -1.2498 -2.2318
  187SLPC   C2921555   5.430   2.358   7.681 -0.5464  0.2993  0.5031
  187SLPC   H9R21556   5.463   2.463   7.686 -1.1922  0.4598  2.3530
  187SLPC  C21021557   5.492   2.262   7.755  0.5778 -0.1205 -0.5221
  187SLPC  H10R21558   5.584   2.292   7.808 -0.4929  1.4423  0.5199
  187SLPC  C21121559   5.457   2.117   7.755  0.2185 -0.1655  0.4608
  187SLPC  H11R21560   5.556   2.073   7.782  1.4678  0.9039 -2.0644
  187SLPC  H11S21561   5.454   2.092   7.647  1.5398  1.0655  0.1134
  187SLPC  C21221562   5.343   2.073   7.844  0.1175  0.0404 -0.6911
  187SLPC  H12R21563   5.250   2.055   7.789 -2.5096  0.6074  3.1842
  187SLPC  C21321564   5.339   2.060   7.980 -0.3323 -0.5148 -0.4699
  187SLPC  H13R21565   5.239   2.036   8.021 -0.3442 -0.0214 -0.2133
  187SLPC  C21421566   5.440   2.075   8.082 -0.3787 -0.1535  0.1919
  187SLPC  H14R21567   5.423   2.169   8.140 -1.7432  0.4397 -1.1143
  187SLPC  H14S21568   5.538   2.086   8.032 -0.4923 -0.0046  0.0021
  187SLPC  C21521569   5.445   1.957   8.185 -0.8638  0.6993  0.2241
  187SLPC  H15R21570   5.526   1.969   8.260 -0.7502  1.1811  0.0245
  187SLPC  H15S21571   5.470   1.872   8.117  0.0848  0.0501  1.3365
  187SLPC  C21621572   5.314   1.927   8.268 -0.0920  0.7166  0.3580
  187SLPC  H16R21573   5.233   1.895   8.199  0.3536 -1.2525  0.6929
  187SLPC  H16S21574   5.284   2.022   8.317  1.3556  1.2619  0.2356
  187SLPC  C21721575   5.340   1.819   8.365 -0.0135  0.3363  0.1300
  187SLPC  H17R21576   5.438   1.842   8.412 -0.3615 -0.3089  1.2022
  187SLPC  H17S21577   5.365   1.716   8.331  0.5696  1.0236 -1.6005
  187SLPC  C21821578   5.236   1.801   8.476 -0.3481  0.2749  0.3165
  187SLPC  H18R21579   5.135   1.782   8.435 -0.1590  0.9356 -0.5062
  187SLPC  H18S21580   5.236   1.891   8.542 -1.7060 -1.0389  2.2110
  187SLPC  H18T21581   5.269   1.719   8.543  2.6068  1.8135  0.9159
  187SLPC   C3321582   4.804   2.626   7.296  0.2472  0.1825 -0.4405
  187SLPC   H3X21583   4.707   2.673   7.270  0.5421  0.2042 -1.5285
  187SLPC   H3Y21584   4.849   2.699   7.367  0.0507 -0.3099  0.2077
  187SLPC   C3421585   4.790   2.504   7.393 -0.0685  0.0584  0.3815
  187SLPC   H4X21586   4.895   2.492   7.428  0.6957 -0.5641 -1.9462
  187SLPC   H4Y21587   4.764   2.418   7.327 -1.8359  2.4124 -2.1930
  187SLPC   C3521588   4.687   2.528   7.505  0.1625 -0.5303 -0.7195
  187SLPC   H5X21589   4.592   2.559   7.457 -0.4852  3.0651  2.3526
  187SLPC   H5Y21590   4.717   2.607   7.577  0.1051  0.6278 -1.9366
  187SLPC   C3621591   4.670   2.396   7.578 -0.0856 -0.1588 -0.6279
  187SLPC   H6X21592   4.770   2.375   7.623 -0.4220  0.5254  0.4676
  187SLPC   H6Y21593   4.649   2.322   7.498  3.4569  1.0541 -2.9801
  187SLPC   C3721594   4.564   2.389   7.689 -0.6300 -0.3052 -0.1005
  187SLPC   H7X21595   4.468   2.392   7.633  0.4798 -0.2974 -2.1100
  187SLPC   H7Y21596   4.574   2.291   7.741 -1.7480  0.3809  1.4735
  187SLPC   C3821597   4.583   2.498   7.795  1.1548 -0.4634 -0.1136
  187SLPC   H8X21598   4.544   2.591   7.750 -1.9926 -2.6364 -2.3609
  187SLPC   H8Y21599   4.690   2.498   7.825  1.0348  0.1288  0.3178
  187SLPC   C3921600   4.499   2.464   7.925 -0.4394 -0.8343 -0.2769
  187SLPC   H9X21601   4.533   2.365   7.963 -1.3054 -0.4676  1.5303
  187SLPC   H9Y21602   4.388   2.463   7.914 -1.0133 -0.9043  4.0181
  187SLPC  C31021603   4.523   2.567   8.035  0.1237  0.3398 -0.2562
  187SLPC  H10X21604   4.489   2.668   8.005 -2.4556 -0.4786 -0.3736
  187SLPC  H10Y21605   4.630   2.560   8.063 -0.1583  1.8702  1.3822
  187SLPC  C31121606   4.463   2.522   8.167 -0.2694 -0.1865  1.0665
  187SLPC  H11X21607   4.498   2.417   8.175  0.6606 -0.1626 -1.7380
  187SLPC  H11Y21608   4.354   2.529   8.147 -0.2513 -1.3964  0.4626
  187SLPC  C31221609   4.502   2.603   8.291  0.4030  0.6193  0.7306
  187SLPC  H12X21610   4.490   2.711   8.269 -0.7747  0.1208 -1.2776
  187SLPC  H12Y21611   4.605   2.575   8.323  1.1145  0.1530 -1.7986
  187SLPC  C31321612   4.402   2.570   8.405  0.0251  0.9133  0.0361
  187SLPC  H13X21613   4.411   2.460   8.419  0.5219  0.7311 -1.4877
  187SLPC  H13Y21614   4.299   2.589   8.369 -0.4535  0.6175  1.1791
  187SLPC  C31421615   4.423   2.643   8.540 -0.3751  0.0114 -0.0461
  187SLPC  H14X21616   4.520   2.621   8.589 -0.5539  0.3577  0.4719
  187SLPC  H14Y21617   4.342   2.600   8.603  0.9976 -0.6788  1.3270
  187SLPC  C31521618   4.399   2.791   8.522  0.3715  0.4801 -0.0693
  187SLPC  H15X21619   4.300   2.800   8.473  0.4659 -0.0106 -0.3575
  187SLPC  H15Y21620   4.480   2.822   8.452  0.8859 -1.7979 -0.5748
  187SLPC  C31621621   4.395   2.873   8.653  0.3744  0.2100  0.3172
  187SLPC  H16X21622   4.380   2.981   8.632 -0.0808  0.2257  0.7063
  187SLPC  H16Y21623   4.490   2.865   8.709 -0.0733  0.1071  1.0826
  187SLPC  C31721624   4.284   2.836   8.751  0.5617  0.3971 -0.1152
  187SLPC  H17X21625   4.304   2.732   8.785 -2.2917 -0.6964 -1.4362
  187SLPC  H17Y21626   4.185   2.830   8.700 -1.2180 -1.9613  3.1877
  187SLPC  C31821627   4.273   2.934   8.872  0.3858  0.1355  0.8221
  187SLPC  H18X21628   4.184   2.892   8.924 -2.0039 -0.2502 -3.2120
  187SLPC  H18Y21629   4.259   3.033   8.824  1.2617 -0.2860 -0.3559
  187SLPC  H18Z21630   4.355   2.928   8.948  0.0031  0.0491  1.2369
  188SLPC     N21631   4.664   4.052   6.349 -0.2354 -0.5628  0.0644
  188SLPC   C1321632   4.627   3.912   6.321  0.0843  0.5502 -0.8062
  188SLPC  H13A21633   4.714   3.859   6.286  0.3760  0.4906 -0.0168
  188SLPC  H13B21634   4.602   3.860   6.413 -1.3868  0.2113 -1.3720
  188SLPC  H13C21635   4.546   3.913   6.249 -2.1966 -1.4228  1.4842
  188SLPC   C1421636   4.706   4.118   6.221 -0.4901 -0.2778  0.2928
  188SLPC  H14A21637   4.797   4.069   6.189  0.4617  0.0274  2.3567
  188SLPC  H14B21638   4.635   4.107   6.140 -2.1438 -2.2875  1.8920
  188SLPC  H14C21639   4.737   4.220   6.238  3.2317 -1.4582  1.7262
  188SLPC   C1521640   4.779   4.055   6.442 -0.0024 -0.5420 -0.3062
  188SLPC  H15A21641   4.800   4.160   6.460 -1.5480 -0.4113  0.9891
  188SLPC  H15B21642   4.742   4.016   6.535  1.0476  0.0378  0.3686
  188SLPC  H15C21643   4.866   4.000   6.411  0.8005  0.6094 -0.1372
  188SLPC   C1221644   4.551   4.133   6.404  0.4484 -0.5186 -0.4266
  188SLPC  H12A21645   4.499   4.063   6.468  1.4587  1.0081  2.2290
  188SLPC  H12B21646   4.483   4.149   6.322 -0.4573 -0.9212  0.2229
  188SLPC   C1121647   4.577   4.262   6.475 -0.3100  0.1278 -0.0766
  188SLPC  H11A21648   4.645   4.240   6.560 -0.2041  0.8623  0.0352
  188SLPC  H11B21649   4.481   4.305   6.510  0.5622  1.1713  1.1625
  188SLPC     P21650   4.554   4.468   6.305  0.4126  0.1104  0.6241
  188SLPC   O1321651   4.635   4.544   6.205  0.1818 -0.3598 -1.1291
  188SLPC   O1421652   4.420   4.419   6.256 -0.2552  0.4007 -0.0984
  188SLPC   O1221653   4.638   4.359   6.385  0.2563  0.0711  0.7377
  188SLPC   O1121654   4.518   4.581   6.414  0.0396  0.7150  0.1137
  188SLPC    C121655   4.628   4.643   6.481  0.5285  0.1356 -0.0343
  188SLPC    HA21656   4.717   4.656   6.416  0.8049  3.0510  0.8163
  188SLPC    HB21657   4.588   4.746   6.487  0.6896  0.1488  0.9569
  188SLPC    C221658   4.659   4.593   6.621 -0.2693  0.0503  0.2075
  188SLPC    HS21659   4.665   4.483   6.610 -0.1266  0.0707  0.0884
  188SLPC   O2121660   4.553   4.645   6.703  0.2490 -0.0126  0.0418
  188SLPC   C2121661   4.516   4.552   6.802 -0.7064  0.1565  0.2850
  188SLPC   O2221662   4.569   4.444   6.814 -0.1489  1.1580  0.0788
  188SLPC   C2221663   4.401   4.606   6.889  0.3855 -0.1322  0.0109
  188SLPC   H2R21664   4.411   4.709   6.930 -1.4474 -0.2173  0.7766
  188SLPC   H2S21665   4.312   4.614   6.823 -0.5504 -0.5537  1.1859
  188SLPC    C321666   4.794   4.652   6.667 -0.0897  0.5943  0.0577
  188SLPC    HX21667   4.774   4.758   6.697 -0.4514 -0.2692  3.1875
  188SLPC    HY21668   4.867   4.646   6.584 -0.0392  1.5689  0.0132
  188SLPC   O3121669   4.842   4.583   6.784  0.0251  0.2520 -0.2745
  188SLPC   C3121670   4.887   4.456   6.754 -0.8203 -0.2765 -0.0645
  188SLPC   O3221671   4.895   4.406   6.644  0.1894 -0.4335 -0.7485
  188SLPC   C3221672   4.910   4.382   6.882  0.0898 -0.2978  0.1076
  188SLPC   H2X21673   5.019   4.374   6.903 -0.1156 -1.1782  0.9337
  188SLPC   H2Y21674   4.865   4.281   6.890  0.8601 -0.7112 -0.5449
  188SLPC   C2321675   4.381   4.518   7.010 -0.2816 -0.2227 -0.2641
  188SLPC   H3R21676   4.478   4.505   7.063 -0.3352 -2.4382 -0.6254
  188SLPC   H3S21677   4.348   4.417   6.979  1.4288 -0.7764 -0.4077
  188SLPC   C2421678   4.281   4.564   7.111  0.2272 -0.2955 -0.1967
  188SLPC   H4R21679   4.184   4.584   7.061  0.4313 -1.7279 -1.2561
  188SLPC   H4S21680   4.324   4.660   7.146 -0.2562  0.5125 -1.7268
  188SLPC   C2521681   4.262   4.459   7.221  0.2017 -0.3751  0.1171
  188SLPC   H5R21682   4.358   4.403   7.230 -0.1498 -1.0983 -0.4968
  188SLPC   H5S21683   4.195   4.376   7.189  0.8855 -1.2129  0.7859
  188SLPC   C2621684   4.211   4.527   7.346 -0.5106 -0.5462 -0.1460
  188SLPC   H6R21685   4.107   4.562   7.337  0.4507  2.3650 -0.9945
  188SLPC   H6S21686   4.267   4.621   7.365 -1.4142  0.0825 -0.5492
  188SLPC   C2721687   4.217   4.440   7.475 -0.2175  0.4682  0.0206
  188SLPC   H7R21688   4.319   4.405   7.503 -0.7777 -2.4082 -1.1811
  188SLPC   H7S21689   4.168   4.347   7.438  1.6835 -0.9404  0.8581
  188SLPC   C2821690   4.148   4.509   7.592  0.0805 -1.5731 -0.2920
  188SLPC   H8R21691   4.050   4.557   7.572  1.0204  1.1722  1.1308
  188SLPC   H8S21692   4.212   4.595   7.622  0.1406 -1.2248 -1.3644
  188SLPC   C2921693   4.123   4.429   7.714 -0.0159 -0.6517  0.0860
  188SLPC   H9R21694   4.020   4.389   7.722 -1.0186  1.3880 -1.4750
  188SLPC  C21021695   4.203   4.401   7.823 -1.1891  0.4283  0.4904
  188SLPC  H10R21696   4.162   4.336   7.902 -1.2726 -1.3439 -0.9408
  188SLPC  C21121697   4.349   4.446   7.834 -0.0491  0.6342  0.2324
  188SLPC  H11R21698   4.357   4.542   7.889  0.6645  1.5341 -1.3467
  188SLPC  H11S21699   4.393   4.477   7.736 -1.8527  0.4106 -0.6884
  188SLPC  C21221700   4.436   4.339   7.899 -0.3703 -0.0808  0.2053
  188SLPC  H12R21701   4.483   4.268   7.829  3.1495  2.5405 -0.3901
  188SLPC  C21321702   4.450   4.320   8.034  0.1817  0.0120  0.5329
  188SLPC  H13R21703   4.530   4.253   8.068  1.8130  1.9415  0.7075
  188SLPC  C21421704   4.392   4.406   8.143  0.0347  0.5609  0.0623
  188SLPC  H14R21705   4.405   4.355   8.241  1.2348  3.0428  1.2767
  188SLPC  H14S21706   4.281   4.418   8.136  0.0648  0.2899 -1.2092
  188SLPC  C21521707   4.463   4.548   8.157 -0.3047  0.2113 -0.1619
  188SLPC  H15R21708   4.428   4.618   8.078 -1.4251 -0.1809 -0.0208
  188SLPC  H15S21709   4.574   4.552   8.148  0.1368 -3.0473  2.1779
  188SLPC  C21621710   4.422   4.614   8.288 -0.3001  0.1747  0.3416
  188SLPC  H16R21711   4.465   4.546   8.365 -2.5596 -1.5770  0.1787
  188SLPC  H16S21712   4.312   4.623   8.295 -0.6074 -1.4202 -1.5601
  188SLPC  C21721713   4.489   4.755   8.310  0.5795  0.0882  0.0891
  188SLPC  H17R21714   4.455   4.818   8.224 -1.6977 -1.5806 -0.3220
  188SLPC  H17S21715   4.599   4.744   8.315  0.6233 -0.1345 -0.9800
  188SLPC  C21821716   4.445   4.826   8.443  0.5848  0.1059  1.0550
  188SLPC  H18R21717   4.489   4.928   8.450 -0.2922  0.4878  1.2148
  188SLPC  H18S21718   4.476   4.767   8.532  1.5180  0.1304  0.7537
  188SLPC  H18T21719   4.334   4.836   8.442  0.6413  1.8010 -2.4415
  188SLPC   C3321720   4.848   4.464   7.005  0.5558  0.2573 -0.7488
  188SLPC   H3X21721   4.747   4.502   6.981  1.2246  1.6917 -1.3777
  188SLPC   H3Y21722   4.908   4.554   7.028 -0.9844  0.8724  1.1601
  188SLPC   C3421723   4.839   4.389   7.136  0.1143 -0.7490  0.0840
  188SLPC   H4X21724   4.942   4.373   7.174 -0.0004 -1.7719 -0.0087
  188SLPC   H4Y21725   4.798   4.287   7.119 -0.7450 -0.6919  1.6608
  188SLPC   C3521726   4.747   4.458   7.245  0.3902  0.4813  0.5241
  188SLPC   H5X21727   4.642   4.450   7.212  0.8250  2.5893 -1.7174
  188SLPC   H5Y21728   4.768   4.565   7.265 -1.6546  0.6707  1.8798
  188SLPC   C3621729   4.762   4.386   7.378  0.2698  0.3280  0.4057
  188SLPC   H6X21730   4.866   4.395   7.416  0.7652  0.0238 -0.8323
  188SLPC   H6Y21731   4.730   4.280   7.363 -0.5932  0.7365 -0.8565
  188SLPC   C3721732   4.672   4.441   7.494  0.5815  0.4170  0.3799
  188SLPC   H7X21733   4.565   4.419   7.475  0.7563 -1.0403  0.9682
  188SLPC   H7Y21734   4.681   4.551   7.505 -1.0483  0.3692  3.1247
  188SLPC   C3821735   4.726   4.390   7.627  0.0872 -0.0992  0.2927
  188SLPC   H8X21736   4.800   4.309   7.608 -1.5381 -0.8997 -3.8291
  188SLPC   H8Y21737   4.638   4.336   7.669  0.2766 -1.0080 -0.4460
  188SLPC   C3921738   4.764   4.492   7.731  0.0711  0.6032  0.2630
  188SLPC   H9X21739   4.670   4.545   7.755 -1.2089 -2.3697  2.4102
  188SLPC   H9Y21740   4.849   4.557   7.698  0.4956 -0.2525 -0.3631
  188SLPC  C31021741   4.800   4.410   7.853  0.4971 -0.1479 -0.7736
  188SLPC  H10X21742   4.893   4.351   7.838  0.4323  0.2988 -3.5440
  188SLPC  H10Y21743   4.712   4.344   7.875  0.0641  1.5023  3.3890
  188SLPC  C31121744   4.815   4.503   7.978 -0.0403  0.2592 -0.4895
  188SLPC  H11X21745   4.716   4.535   8.018  0.1252 -0.3235  0.4191
  188SLPC  H11Y21746   4.862   4.603   7.965  0.0797  0.0828 -1.4742
  188SLPC  C31221747   4.889   4.436   8.094  0.7351  0.3625 -0.2765
  188SLPC  H12X21748   4.987   4.402   8.053  0.9236 -2.2361  2.0073
  188SLPC  H12Y21749   4.842   4.346   8.137  0.7086  0.5581  0.1106
  188SLPC  C31321750   4.921   4.536   8.210  0.7614 -0.3494 -0.6686
  188SLPC  H13X21751   4.821   4.567   8.248  0.0173  0.2986 -2.9477
  188SLPC  H13Y21752   4.979   4.620   8.167  1.0797  1.0020  2.2292
  188SLPC  C31421753   5.008   4.469   8.321  0.5922 -0.6984  0.0920
  188SLPC  H14X21754   5.090   4.416   8.269 -1.4543 -3.0727 -0.9252
  188SLPC  H14Y21755   4.955   4.390   8.379 -0.7377  0.0133 -0.1064
  188SLPC  C31521756   5.048   4.587   8.416 -0.1874  0.7350 -0.3537
  188SLPC  H15X21757   4.957   4.636   8.456 -0.0635  1.2533 -0.7045
  188SLPC  H15Y21758   5.107   4.668   8.367  0.9821  1.5584  2.2222
  188SLPC  C31621759   5.125   4.554   8.548 -0.1611 -0.5725  0.5909
  188SLPC  H16X21760   5.045   4.504   8.608 -0.0285 -1.7663 -0.1794
  188SLPC  H16Y21761   5.167   4.649   8.587  0.6582 -1.7302  2.7200
  188SLPC  C31721762   5.239   4.451   8.534 -0.4579  0.4525  0.7577
  188SLPC  H17X21763   5.316   4.491   8.465  0.4541 -0.0613  1.4536
  188SLPC  H17Y21764   5.190   4.362   8.489  0.5248  0.0632  0.4310
  188SLPC  C31821765   5.301   4.426   8.675 -0.0945  0.9013 -0.1907
  188SLPC  H18X21766   5.352   4.521   8.702  0.7652  0.2940  0.3867
  188SLPC  H18Y21767   5.381   4.348   8.671 -0.4799  0.5187 -0.6517
  188SLPC  H18Z21768   5.224   4.401   8.751  0.5282  0.8055  0.4192
  189SLPC     N21769   0.816   5.433   5.818 -0.2064 -0.3103  1.0014
  189SLPC   C1321770   0.668   5.465   5.810 -0.0780  0.5067  0.0687
  189SLPC  H13A21771   0.656   5.570   5.831  0.8320  0.5946  0.2091
  189SLPC  H13B21772   0.631   5.440   5.711  0.9009 -0.3653 -0.0952
  189SLPC  H13C21773   0.614   5.403   5.880 -0.7946 -1.1704 -1.8663
  189SLPC   C1421774   0.883   5.483   5.942 -1.0789 -1.0747  0.2435
  189SLPC  H14A21775   0.989   5.494   5.929 -1.0746 -1.4306 -0.0493
  189SLPC  H14B21776   0.846   5.583   5.961  0.2107 -0.4086 -0.6169
  189SLPC  H14C21777   0.861   5.422   6.029 -1.5258 -0.4301  0.5895
  189SLPC   C1521778   0.882   5.509   5.709  0.6968 -0.2116  0.7645
  189SLPC  H15A21779   0.877   5.615   5.731 -0.9483 -0.1714  0.3202
  189SLPC  H15B21780   0.989   5.500   5.706  0.7514  0.2867  1.0639
  189SLPC  H15C21781   0.840   5.494   5.611 -0.6538  0.8880  1.1419
  189SLPC   C1221782   0.849   5.292   5.789 -0.1510  0.2827 -0.6786
  189SLPC  H12A21783   0.953   5.275   5.813  0.5628 -0.2554 -3.7499
  189SLPC  H12B21784   0.840   5.277   5.683  1.3689 -1.6836 -0.5862
  189SLPC   C1121785   0.755   5.195   5.862 -0.2317  0.9919 -0.6283
  189SLPC  H11A21786   0.775   5.089   5.838 -1.8656  0.1655  1.3335
  189SLPC  H11B21787   0.653   5.194   5.818 -1.0301  0.1615  1.1295
  189SLPC     P21788   0.632   5.204   6.100  0.0247 -0.3346  0.0499
  189SLPC   O1321789   0.542   5.325   6.097 -0.4423  0.4282 -0.5596
  189SLPC   O1421790   0.568   5.075   6.071  0.2912 -0.0712 -0.1073
  189SLPC   O1221791   0.760   5.214   6.005  0.0996 -0.0876  0.4785
  189SLPC   O1121792   0.698   5.199   6.242  0.5143  0.2563 -0.0915
  189SLPC    C121793   0.730   5.084   6.325 -0.4566  0.8316 -0.0797
  189SLPC    HA21794   0.652   5.004   6.318 -0.3687  0.7263  0.1466
  189SLPC    HB21795   0.828   5.041   6.297  0.2041  2.5173 -0.4685
  189SLPC    C221796   0.722   5.117   6.481  0.4316 -0.1608  0.7160
  189SLPC    HS21797   0.715   5.017   6.530 -0.0848 -2.5314 -3.7146
  189SLPC   O2121798   0.612   5.201   6.513  0.7747 -0.6275 -0.9387
  189SLPC   C2121799   0.487   5.152   6.508  1.1334  0.3211 -0.0763
  189SLPC   O2221800   0.458   5.043   6.465 -0.2545  0.4032  0.9407
  189SLPC   C2221801   0.379   5.249   6.558 -0.0397 -0.0406 -0.5036
  189SLPC   H2R21802   0.419   5.352   6.543  0.3183  0.0027  0.6390
  189SLPC   H2S21803   0.287   5.235   6.498  0.4860  0.8144 -1.5392
  189SLPC    C321804   0.845   5.192   6.532  0.1357  0.5560  0.1829
  189SLPC    HX21805   0.850   5.276   6.461  3.4439  0.2612 -0.0827
  189SLPC    HY21806   0.936   5.129   6.520 -0.1819  0.4134 -1.6832
  189SLPC   O3121807   0.823   5.239   6.667  0.7110  0.0151  0.0857
  189SLPC   C3121808   0.891   5.345   6.711 -0.0142  0.4502 -0.4918
  189SLPC   O3221809   0.973   5.407   6.646  0.0770 -0.0205 -0.0461
  189SLPC   C3221810   0.855   5.356   6.858  0.2190 -0.3879  0.1163
  189SLPC   H2X21811   0.845   5.257   6.906 -2.2338  0.4240  1.4605
  189SLPC   H2Y21812   0.749   5.390   6.856  0.0029 -1.0019  0.7753
  189SLPC   C2321813   0.348   5.214   6.704 -0.5266  0.0247  0.3006
  189SLPC   H3R21814   0.323   5.106   6.710 -0.0271 -0.0609  1.1953
  189SLPC   H3S21815   0.260   5.274   6.733 -0.0264  0.5832  0.6917
  189SLPC   C2421816   0.458   5.254   6.810 -0.1204 -0.0688 -0.6225
  189SLPC   H4R21817   0.479   5.360   6.785 -0.0171 -0.8776 -4.6482
  189SLPC   H4S21818   0.552   5.197   6.790  1.8879  2.8028 -0.0224
  189SLPC   C2521819   0.399   5.219   6.947  0.2939  0.2340  0.2761
  189SLPC   H5R21820   0.380   5.110   6.953  1.3642  0.0477  0.5324
  189SLPC   H5S21821   0.300   5.269   6.956 -0.6130 -1.6618  1.4092
  189SLPC   C2621822   0.491   5.268   7.055 -0.4594  0.8603  0.0528
  189SLPC   H6R21823   0.496   5.377   7.037  0.0155  0.5327 -2.0815
  189SLPC   H6S21824   0.597   5.238   7.040  0.0591  2.8511 -0.5043
  189SLPC   C2721825   0.436   5.241   7.193 -0.6038 -0.4529 -0.6884
  189SLPC   H7R21826   0.456   5.134   7.217 -0.0774 -0.2969 -0.4222
  189SLPC   H7S21827   0.326   5.256   7.200 -0.4357  0.2123  0.8186
  189SLPC   C2821828   0.487   5.329   7.307  0.0273 -0.0396  0.7574
  189SLPC   H8R21829   0.405   5.344   7.380 -0.5688 -0.6444  0.2281
  189SLPC   H8S21830   0.512   5.427   7.261 -1.1785 -1.0428 -2.3244
  189SLPC   C2921831   0.603   5.278   7.381  0.5980  0.1377 -0.0272
  189SLPC   H9R21832   0.692   5.252   7.322  1.6623 -0.6882  1.8517
  189SLPC  C21021833   0.599   5.256   7.511 -0.3130 -0.4877 -0.2487
  189SLPC  H10R21834   0.693   5.224   7.560 -0.4966 -2.1465 -0.9109
  189SLPC  C21121835   0.493   5.277   7.610 -0.0092  0.3348  0.7792
  189SLPC  H11R21836   0.512   5.212   7.699 -1.1861 -0.8949  0.1663
  189SLPC  H11S21837   0.394   5.251   7.567 -0.1448  0.6280  0.9038
  189SLPC  C21221838   0.500   5.420   7.661 -0.1478  0.7600  0.2029
  189SLPC  H12R21839   0.507   5.498   7.584  0.2508  0.2015 -0.3299
  189SLPC  C21321840   0.475   5.452   7.788 -0.9202 -0.2808 -0.0434
  189SLPC  H13R21841   0.490   5.557   7.818 -0.5486  0.1320 -1.6195
  189SLPC  C21421842   0.451   5.361   7.904 -0.6436  0.2326 -0.3303
  189SLPC  H14R21843   0.515   5.401   7.985 -2.3713  1.2367  0.5741
  189SLPC  H14S21844   0.497   5.261   7.887 -0.8005 -0.1358  1.2676
  189SLPC  C21521845   0.310   5.337   7.960  0.1517 -0.1679  0.2827
  189SLPC  H15R21846   0.246   5.286   7.885  0.8647  2.1891 -2.0991
  189SLPC  H15S21847   0.268   5.439   7.980 -0.4273 -0.1133 -1.0545
  189SLPC  C21621848   0.311   5.256   8.092  0.0542 -0.4310 -0.7763
  189SLPC  H16R21849   0.398   5.291   8.151 -2.5019  2.7593  1.3848
  189SLPC  H16S21850   0.311   5.147   8.070  0.0201 -0.1776 -2.1463
  189SLPC  C21721851   0.196   5.287   8.191  0.1487 -0.1286 -0.3114
  189SLPC  H17R21852   0.213   5.387   8.236  0.6253 -1.7929  3.5608
  189SLPC  H17S21853   0.199   5.229   8.286 -3.0106 -0.7696 -0.4986
  189SLPC  C21821854   0.054   5.277   8.148  0.3560  0.1318  0.6545
  189SLPC  H18R21855  -0.023   5.326   8.211 -0.5957 -1.1547  0.5093
  189SLPC  H18S21856   0.027   5.170   8.153  1.7969 -0.6081 -3.3789
  189SLPC  H18T21857   0.049   5.309   8.041 -0.8105 -0.6184  0.4708
  189SLPC   C3321858   0.936   5.457   6.941  0.2332  0.1243 -0.1139
  189SLPC   H3X21859   0.937   5.560   6.898 -0.4523  0.0193 -0.3887
  189SLPC   H3Y21860   1.046   5.441   6.944 -0.0626 -1.9444  0.7510
  189SLPC   C3421861   0.881   5.462   7.092  0.5119  0.5122 -0.1267
  189SLPC   H4X21862   0.890   5.360   7.135 -0.3186  0.5561  0.1549
  189SLPC   H4Y21863   0.771   5.461   7.084  0.3667  0.2144  1.5940
  189SLPC   C3521864   0.924   5.581   7.177 -0.1153 -0.2712 -0.1608
  189SLPC   H5X21865   0.873   5.670   7.136 -3.0829 -1.8544 -0.2127
  189SLPC   H5Y21866   1.034   5.599   7.175 -0.3442  1.1186 -2.1121
  189SLPC   C3621867   0.876   5.563   7.326 -0.6779  0.0947 -0.2105
  189SLPC   H6X21868   0.941   5.483   7.368  0.9673  2.2224  1.5276
  189SLPC   H6Y21869   0.773   5.524   7.337 -0.1048 -1.3649  0.2157
  189SLPC   C3721870   0.897   5.684   7.418 -0.2970  0.9955  0.7907
  189SLPC   H7X21871   0.846   5.774   7.376 -2.8553 -1.7006 -2.4143
  189SLPC   H7Y21872   1.007   5.700   7.418  0.0372 -0.9910 -0.1187
  189SLPC   C3821873   0.861   5.669   7.574 -0.0289  0.6364  0.6255
  189SLPC   H8X21874   0.753   5.644   7.572  0.2979 -0.8345 -0.8307
  189SLPC   H8Y21875   0.866   5.769   7.622 -1.5613 -0.0644  2.3686
  189SLPC   C3921876   0.933   5.563   7.652  0.0141  0.3097 -0.3318
  189SLPC   H9X21877   1.042   5.581   7.638 -0.0721  1.4956  0.3923
  189SLPC   H9Y21878   0.916   5.461   7.611 -1.3989  0.3262  0.1802
  189SLPC  C31021879   0.886   5.561   7.803  0.6272 -0.1736  0.7052
  189SLPC  H10X21880   0.775   5.568   7.796  0.3786 -3.5242 -0.3503
  189SLPC  H10Y21881   0.930   5.654   7.845  0.5052  0.9551 -1.5327
  189SLPC  C31121882   0.923   5.429   7.879 -0.5465 -0.1912  0.4823
  189SLPC  H11X21883   1.033   5.414   7.886 -0.4695  0.6459  1.2678
  189SLPC  H11Y21884   0.880   5.346   7.819 -1.2071 -1.4649  2.6068
  189SLPC  C31221885   0.877   5.418   8.025 -0.4828  0.1647 -0.0039
  189SLPC  H12X21886   0.769   5.438   8.039 -0.5280 -1.3640  2.4162
  189SLPC  H12Y21887   0.933   5.493   8.086 -0.7928 -1.0604  1.8674
  189SLPC  C31321888   0.907   5.284   8.085 -0.2085  0.1307 -0.1954
  189SLPC  H13X21889   1.014   5.257   8.075  0.7262  3.3597 -0.1859
  189SLPC  H13Y21890   0.855   5.206   8.026 -0.1909 -1.6622  2.0326
  189SLPC  C31421891   0.875   5.256   8.232 -0.1526 -1.1876  0.2202
  189SLPC  H14X21892   0.928   5.334   8.291  2.9366  0.1658 -3.8753
  189SLPC  H14Y21893   0.920   5.162   8.272  0.9495  0.5730  3.5030
  189SLPC  C31521894   0.727   5.256   8.272 -0.4440 -0.0263  0.5029
  189SLPC  H15X21895   0.672   5.173   8.221  0.5048  0.0542 -0.6949
  189SLPC  H15Y21896   0.677   5.341   8.221  0.2677 -0.8958 -1.7727
  189SLPC  C31621897   0.695   5.259   8.422 -0.0740  0.3233  0.5516
  189SLPC  H16X21898   0.746   5.346   8.468  0.1257  1.2535 -1.3680
  189SLPC  H16Y21899   0.731   5.167   8.473  1.1927  0.2890 -0.3708
  189SLPC  C31721900   0.546   5.267   8.451 -0.6888 -0.2513  0.0532
  189SLPC  H17X21901   0.517   5.359   8.395 -0.6874  1.3853  2.5714
  189SLPC  H17Y21902   0.522   5.285   8.558 -1.5642 -3.8557  0.5828
  189SLPC  C31821903   0.476   5.147   8.396  0.4968  0.5399  0.0931
  189SLPC  H18X21904   0.478   5.131   8.286 -0.0348 -1.9476  0.3792
  189SLPC  H18Y21905   0.366   5.146   8.415  0.2908  4.2634 -0.2170
  189SLPC  H18Z21906   0.505   5.044   8.425  0.5998 -0.7625 -4.0217
  190SLPC     N21907   1.437   6.069   6.283 -0.4201 -0.4820 -0.2443
  190SLPC   C1321908   1.358   6.041   6.155 -0.3623 -0.1214 -0.1907
  190SLPC  H13A21909   1.417   6.013   6.069 -1.3391 -0.1241 -0.8773
  190SLPC  H13B21910   1.289   5.958   6.164  0.1525 -0.3920  1.6612
  190SLPC  H13C21911   1.301   6.129   6.128 -0.9977 -0.1258  1.0821
  190SLPC   C1421912   1.546   6.178   6.259  0.0941 -0.8208 -0.3302
  190SLPC  H14A21913   1.519   6.246   6.180 -1.7291 -0.8525  0.2060
  190SLPC  H14B21914   1.551   6.235   6.351 -0.8460 -0.5566 -0.4293
  190SLPC  H14C21915   1.645   6.140   6.242  0.3861 -0.3404  0.2496
  190SLPC   C1521916   1.513   5.945   6.335 -0.1682 -0.2709  0.3567
  190SLPC  H15A21917   1.565   5.885   6.261 -1.0632 -0.4804 -0.1202
  190SLPC  H15B21918   1.583   5.975   6.411  0.8760 -1.2197 -0.2085
  190SLPC  H15C21919   1.442   5.872   6.373 -1.1818  0.4581 -0.0727
  190SLPC   C1221920   1.342   6.120   6.385 -0.2225  0.2619 -0.0491
  190SLPC  H12A21921   1.399   6.147   6.473  1.7860 -2.9837 -0.1788
  190SLPC  H12B21922   1.291   6.034   6.426 -0.1720  0.0074 -0.5138
  190SLPC   C1121923   1.248   6.236   6.360 -0.7319 -0.8166 -0.0212
  190SLPC  H11A21924   1.305   6.324   6.325  1.1464 -2.7882 -2.3514
  190SLPC  H11B21925   1.198   6.272   6.452 -1.6749  1.8994 -1.4923
  190SLPC     P21926   1.048   6.090   6.294  0.2648  0.3116  0.1630
  190SLPC   O1321927   0.913   6.113   6.238 -0.5431  0.2387 -0.2871
  190SLPC   O1421928   1.103   5.962   6.253 -0.2064  0.0953 -0.0452
  190SLPC   O1221929   1.153   6.203   6.262 -0.0790 -0.4496 -0.4188
  190SLPC   O1121930   1.033   6.086   6.454 -0.1240  0.3959  0.3591
  190SLPC    C121931   0.934   6.153   6.530  0.3761 -0.0799  0.2777
  190SLPC    HA21932   0.909   6.250   6.483  0.5089 -1.1366 -2.1421
  190SLPC    HB21933   0.840   6.094   6.532  0.7086 -0.7252 -1.5319
  190SLPC    C221934   0.987   6.157   6.675 -0.1194 -0.0734 -0.8466
  190SLPC    HS21935   1.065   6.233   6.699 -1.0418  0.2198  1.4872
  190SLPC   O2121936   1.012   6.022   6.726 -0.3962  0.4393  0.1970
  190SLPC   C2121937   1.137   5.990   6.711 -0.4827 -0.0260  0.1128
  190SLPC   O2221938   1.226   6.057   6.655 -0.8203  0.4362 -0.2117
  190SLPC   C2221939   1.153   5.854   6.777  0.1074 -0.3301 -0.2806
  190SLPC   H2R21940   1.054   5.808   6.757 -0.6338  0.9897  0.2148
  190SLPC   H2S21941   1.229   5.796   6.720 -1.1995 -1.0657 -1.3337
  190SLPC    C321942   0.879   6.216   6.771 -0.5102  0.2432 -0.3928
  190SLPC    HX21943   0.791   6.148   6.777 -0.8654  0.7614  0.6808
  190SLPC    HY21944   0.849   6.316   6.733  2.3930  2.2757  2.1551
  190SLPC   O3121945   0.933   6.227   6.911  0.5111  0.6548  0.5049
  190SLPC   C3121946   0.857   6.191   7.011  0.1742  0.2311 -0.2168
  190SLPC   O3221947   0.743   6.152   7.002  0.7393 -0.6717  0.3544
  190SLPC   C3221948   0.944   6.175   7.136 -0.2269  0.1284  0.0640
  190SLPC   H2X21949   1.040   6.229   7.120  0.8692 -1.6300  0.4216
  190SLPC   H2Y21950   0.971   6.067   7.146  4.9677  1.2617  1.7506
  190SLPC   C2321951   1.189   5.859   6.925  0.0115  0.7215 -0.4144
  190SLPC   H3R21952   1.201   5.758   6.971 -0.1587  0.8715 -0.0354
  190SLPC   H3S21953   1.102   5.900   6.981  0.0012 -0.0195  0.1352
  190SLPC   C2421954   1.313   5.948   6.947  0.2409 -0.5150  0.0463
  190SLPC   H4R21955   1.292   6.053   6.916 -0.6127 -0.2486  1.4294
  190SLPC   H4S21956   1.397   5.913   6.884  0.9561 -0.5700  1.0117
  190SLPC   C2521957   1.377   5.927   7.085  0.4453  0.0622  0.3976
  190SLPC   H5R21958   1.475   5.978   7.096  0.6708 -0.4222  0.6464
  190SLPC   H5S21959   1.390   5.817   7.091 -0.5691 -0.0613  0.6083
  190SLPC   C2621960   1.288   5.973   7.202  0.3250 -0.1772  0.0429
  190SLPC   H6R21961   1.197   5.910   7.190  1.2686 -1.5590 -0.1555
  190SLPC   H6S21962   1.254   6.079   7.202 -1.1042 -0.6103  1.1599
  190SLPC   C2721963   1.364   5.946   7.336  0.0307  0.2897  0.2974
  190SLPC   H7R21964   1.465   5.991   7.323  0.2960 -0.7730 -1.7665
  190SLPC   H7S21965   1.375   5.838   7.355 -1.5966 -0.0298 -0.4290
  190SLPC   C2821966   1.292   5.985   7.467  0.5588 -0.1126 -0.9788
  190SLPC   H8R21967   1.196   5.930   7.474  0.6188 -0.2557 -1.2557
  190SLPC   H8S21968   1.250   6.086   7.446 -0.2680  0.1970  1.8406
  190SLPC   C2921969   1.383   5.980   7.586  0.1123  0.6467 -0.2539
  190SLPC   H9R21970   1.473   6.042   7.576  0.3259  1.0488  2.9425
  190SLPC  C21021971   1.374   5.908   7.700 -0.4597  0.4635 -0.2284
  190SLPC  H10R21972   1.445   5.922   7.783 -0.0664  1.7294 -0.7505
  190SLPC  C21121973   1.254   5.823   7.734  0.2126  0.0066 -0.2803
  190SLPC  H11R21974   1.286   5.730   7.786 -0.9224 -0.1207  0.1995
  190SLPC  H11S21975   1.210   5.788   7.638  0.0245  1.5207 -0.7674
  190SLPC  C21221976   1.150   5.901   7.805  0.1950 -0.8748  0.1122
  190SLPC  H12R21977   1.118   5.995   7.758 -0.8469 -1.2331  0.0683
  190SLPC  C21321978   1.102   5.881   7.930  0.3949 -0.0963 -0.6190
  190SLPC  H13R21979   1.031   5.955   7.971  1.2016 -0.9776  2.6121
  190SLPC  C21421980   1.135   5.765   8.031 -0.2451 -0.1598  0.2859
  190SLPC  H14R21981   1.159   5.672   7.973 -4.2534 -0.7776 -0.6715
  190SLPC  H14S21982   1.046   5.747   8.095 -0.1047  0.1119  0.5559
  190SLPC  C21521983   1.246   5.818   8.120 -0.9823 -0.7861 -0.7222
  190SLPC  H15R21984   1.207   5.904   8.179  3.2038  1.2783 -0.5351
  190SLPC  H15S21985   1.336   5.858   8.068  1.2996 -0.8807  2.7728
  190SLPC  C21621986   1.301   5.705   8.213  0.0748  0.2780  0.3739
  190SLPC  H16R21987   1.348   5.643   8.133  1.7148  0.3628  1.2484
  190SLPC  H16S21988   1.213   5.656   8.261  0.8062 -0.0872  1.3649
  190SLPC  C21721989   1.407   5.754   8.306 -0.1261 -0.7709 -0.2059
  190SLPC  H17R21990   1.362   5.835   8.367  1.7632  0.3385 -0.2047
  190SLPC  H17S21991   1.484   5.806   8.245  0.9758 -1.1244  0.8679
  190SLPC  C21821992   1.477   5.650   8.399 -0.5019 -0.2360  0.0564
  190SLPC  H18R21993   1.506   5.562   8.338 -0.7802  0.2956 -0.8653
  190SLPC  H18S21994   1.401   5.608   8.469 -1.3585  0.2100 -0.5846
  190SLPC  H18T21995   1.566   5.684   8.456 -0.9130  1.0107 -0.0120
  190SLPC   C3321996   0.862   6.194   7.269 -0.0109 -0.0526 -0.4982
  190SLPC   H3X21997   0.769   6.134   7.256 -1.4233  1.7755  0.4835
  190SLPC   H3Y21998   0.837   6.300   7.290  0.1974 -0.0036 -0.4998
  190SLPC   C3421999   0.944   6.146   7.396 -0.1984  0.3578  0.6944
  190SLPC   H4X22000   1.046   6.188   7.378  0.0281 -0.1798  0.7088
  190SLPC   H4Y22001   0.952   6.035   7.396 -1.6765  0.2406  0.2730
  190SLPC   C3522002   0.895   6.189   7.531 -0.2945  0.0514  0.1445
  190SLPC   H5X22003   0.904   6.300   7.541 -0.2979  0.0627  0.0324
  190SLPC   H5Y22004   0.961   6.136   7.603 -0.9474 -1.1250 -0.1039
  190SLPC   C3622005   0.753   6.154   7.567  0.2263 -0.0761  0.2325
  190SLPC   H6X22006   0.731   6.047   7.543  0.0244  0.1617 -0.6980
  190SLPC   H6Y22007   0.686   6.216   7.503 -3.5441 -2.5866  1.4015
  190SLPC   C3722008   0.728   6.173   7.712 -0.2442 -0.1917  0.3584
  190SLPC   H7X22009   0.750   6.281   7.731  2.1610 -0.5745 -0.0280
  190SLPC   H7Y22010   0.807   6.124   7.772  0.5323 -1.4123 -1.5938
  190SLPC   C3822011   0.584   6.138   7.751 -0.2122  0.0635 -0.0041
  190SLPC   H8X22012   0.507   6.182   7.685 -2.5431  0.9170  3.0832
  190SLPC   H8Y22013   0.565   6.199   7.842  0.0409 -1.1357  0.8700
  190SLPC   C3922014   0.548   5.990   7.774 -0.2959  1.0274  0.0698
  190SLPC   H9X22015   0.629   5.933   7.825  0.8488  1.7622 -0.8797
  190SLPC   H9Y22016   0.543   5.940   7.675  2.0452  1.4384 -0.3301
  190SLPC  C31022017   0.412   5.974   7.840 -0.1681 -0.4411 -0.3592
  190SLPC  H10X22018   0.348   5.898   7.791 -0.6817 -0.2501  0.0097
  190SLPC  H10Y22019   0.356   6.069   7.824 -1.3729 -0.8889  1.0854
  190SLPC  C31122020   0.417   5.924   7.982 -0.4500  0.1909 -0.9868
  190SLPC  H11X22021   0.312   5.942   8.012 -2.1011 -5.5856 -2.1583
  190SLPC  H11Y22022   0.484   5.995   8.037 -2.0864 -0.5536  2.1964
  190SLPC  C31222023   0.462   5.773   7.999 -0.7273  0.0555 -0.5051
  190SLPC  H12X22024   0.566   5.778   7.961 -0.6856  0.5502 -0.3352
  190SLPC  H12Y22025   0.407   5.717   7.920 -0.4909 -0.1753 -0.5035
  190SLPC  C31322026   0.445   5.713   8.138  0.2244 -0.3699  0.3275
  190SLPC  H13X22027   0.370   5.631   8.130 -1.5512  1.1018  1.1218
  190SLPC  H13Y22028   0.398   5.797   8.193  0.5465 -0.5028  0.8142
  190SLPC  C31422029   0.578   5.667   8.213 -0.0664  0.1941 -0.4150
  190SLPC  H14X22030   0.624   5.587   8.151  1.0372 -0.2306  0.9148
  190SLPC  H14Y22031   0.549   5.620   8.309 -1.2773  2.4655  0.4158
  190SLPC  C31522032   0.677   5.775   8.258 -0.7117 -0.4768 -0.3805
  190SLPC  H15X22033   0.616   5.841   8.324 -1.8520 -0.4327 -1.4350
  190SLPC  H15Y22034   0.706   5.834   8.168 -1.0102 -0.6785 -0.6133
  190SLPC  C31622035   0.808   5.723   8.331 -0.5045  0.1088  0.0112
  190SLPC  H16X22036   0.891   5.795   8.344  0.0218 -0.6237  0.8310
  190SLPC  H16Y22037   0.839   5.641   8.261 -0.7835  1.2179 -1.4622
  190SLPC  C31722038   0.780   5.665   8.470  0.2044  0.5140  0.5284
  190SLPC  H17X22039   0.695   5.593   8.475  1.0226 -0.3878  1.9642
  190SLPC  H17Y22040   0.749   5.743   8.543  1.9016  1.3212  0.4282
  190SLPC  C31822041   0.896   5.583   8.515  0.7084  0.3140 -0.6702
  190SLPC  H18X22042   0.860   5.544   8.613  1.1055  0.2532 -0.5495
  190SLPC  H18Y22043   0.981   5.646   8.550  1.3105 -1.1870  0.7267
  190SLPC  H18Z22044   0.929   5.502   8.447  2.5753  0.3932  0.0840
  191SLPC     N22045   0.117   0.057   5.800 -0.1916  0.7065 -0.4374
  191SLPC   C1322046   0.230   0.014   5.890 -0.1994 -0.4071  0.2388
  191SLPC  H13A22047   0.323   0.047   5.845  0.6054 -2.2063  0.5160
  191SLPC  H13B22048   0.225   0.074   5.980 -0.8271 -1.6501  1.0635
  191SLPC  H13C22049   0.241  -0.088   5.922 -0.0598  0.1563  2.1502
  191SLPC   C1422050   0.128  -0.010   5.665  0.1130  0.1449 -0.7090
  191SLPC  H14A22051   0.126  -0.118   5.664  2.5274  0.0583 -1.2676
  191SLPC  H14B22052   0.045   0.029   5.608  0.4231  0.0935 -1.1994
  191SLPC  H14C22053   0.212   0.027   5.609 -1.0753 -0.9577 -3.3943
  191SLPC   C1522054   0.134   0.200   5.768  0.4513 -0.2436  0.0709
  191SLPC  H15A22055   0.056   0.235   5.701  0.2832  1.3942  1.0685
  191SLPC  H15B22056   0.106   0.254   5.857  0.3247 -2.4041  1.3891
  191SLPC  H15C22057   0.231   0.224   5.728  0.0602  2.3743  0.4799
  191SLPC   C1222058  -0.020   0.033   5.864 -0.2989 -0.1514  0.7492
  191SLPC  H12A22059  -0.027  -0.074   5.850 -0.2562  0.0519 -1.1577
  191SLPC  H12B22060  -0.096   0.067   5.795 -2.2728 -2.1925  1.7825
  191SLPC   C1122061  -0.049   0.072   6.006 -0.0359 -0.2428 -0.5777
  191SLPC  H11A22062   0.024   0.018   6.070  0.7621  0.6889 -0.6746
  191SLPC  H11B22063  -0.145   0.030   6.042 -0.0200 -1.2769 -1.6702
  191SLPC     P22064  -0.153   0.304   5.982  0.2416 -0.0279  0.0181
  191SLPC   O1322065  -0.160   0.307   5.836 -0.7673 -0.0494 -0.6021
  191SLPC   O1422066  -0.276   0.271   6.053  0.3803 -0.0404 -0.1919
  191SLPC   O1222067  -0.037   0.211   6.029 -0.3625  0.1142  0.4226
  191SLPC   O1122068  -0.094   0.447   6.030  0.4759  0.3473  0.0517
  191SLPC    C122069  -0.003   0.453   6.147  0.7012 -0.1291  0.1889
  191SLPC    HA22070   0.081   0.381   6.143  1.2767  0.5090  0.5181
  191SLPC    HB22071   0.048   0.552   6.138 -0.4461  0.3848 -1.0218
  191SLPC    C222072  -0.076   0.461   6.288 -0.1423  0.9232 -0.2206
  191SLPC    HS22073   0.002   0.504   6.354 -0.3925  1.0172  0.0149
  191SLPC   O2122074  -0.112   0.323   6.333 -0.3478 -0.1865  0.0665
  191SLPC   C2122075  -0.007   0.248   6.363  0.1251  0.8327 -0.4197
  191SLPC   O2222076   0.109   0.288   6.378  0.2298 -0.1917 -0.3772
  191SLPC   C2222077  -0.055   0.104   6.386 -0.0086 -0.3105 -0.4561
  191SLPC   H2R22078  -0.166   0.106   6.379 -0.0313  1.0795 -0.1225
  191SLPC   H2S22079  -0.012   0.042   6.304 -1.1861 -0.9032 -0.6412
  191SLPC    C322080  -0.201   0.553   6.273  0.3501  0.2059  0.3856
  191SLPC    HX22081  -0.269   0.514   6.194  0.7667 -0.2438  0.2402
  191SLPC    HY22082  -0.177   0.651   6.228  1.5275 -0.7302 -1.1593
  191SLPC   O3122083  -0.271   0.573   6.399  0.3573  0.4863  0.9253
  191SLPC   C3122084  -0.196   0.626   6.490  0.3586  0.6254 -0.2843
  191SLPC   O3222085  -0.079   0.663   6.477 -0.2596 -0.1064 -0.3871
  191SLPC   C3222086  -0.281   0.644   6.616 -0.6543  0.0263  0.7066
  191SLPC   H2X22087  -0.386   0.668   6.588 -0.7046 -0.5592  0.3862
  191SLPC   H2Y22088  -0.227   0.724   6.672  0.9994 -0.4782 -0.1193
  191SLPC   C2322089  -0.007   0.046   6.519 -0.2832  0.0503 -1.0480
  191SLPC   H3R22090   0.103   0.030   6.514 -0.0110  0.2902  2.0569
  191SLPC   H3S22091  -0.057  -0.053   6.525 -2.6823  1.0881 -2.3616
  191SLPC   C2422092  -0.048   0.128   6.644 -0.3426 -0.5842 -0.4046
  191SLPC   H4R22093  -0.157   0.136   6.664 -0.2392 -1.1429  0.4579
  191SLPC   H4S22094   0.002   0.227   6.634 -0.6285 -0.4662 -0.6826
  191SLPC   C2522095   0.001   0.068   6.783  0.0962  0.5904 -0.4418
  191SLPC   H5R22096   0.101   0.026   6.758 -1.6503 -4.0432 -0.6008
  191SLPC   H5S22097  -0.059  -0.020   6.813 -1.4493  1.8623  0.3668
  191SLPC   C2622098  -0.006   0.173   6.900  0.9568 -0.3373 -0.7933
  191SLPC   H6R22099  -0.110   0.209   6.914  1.2789  0.2386  0.2972
  191SLPC   H6S22100   0.051   0.267   6.883  1.9041 -0.5351  1.0183
  191SLPC   C2722101   0.057   0.123   7.031 -0.3943  0.7281  0.1712
  191SLPC   H7R22102   0.159   0.087   7.006 -0.7252  0.8471 -1.4384
  191SLPC   H7S22103  -0.006   0.037   7.062 -0.3446  0.7808  0.4216
  191SLPC   C2822104   0.047   0.226   7.141 -0.5962 -0.1109 -0.2417
  191SLPC   H8R22105  -0.058   0.257   7.157 -1.1306 -1.5709 -0.8035
  191SLPC   H8S22106   0.111   0.314   7.117  0.8433 -0.0510  3.1914
  191SLPC   C2922107   0.097   0.169   7.269 -0.7949  0.6102  0.0322
  191SLPC   H9R22108   0.202   0.137   7.267 -1.4200 -1.8761 -3.4805
  191SLPC  C21022109   0.025   0.119   7.368  0.5146 -0.6817 -0.3905
  191SLPC  H10R22110   0.064   0.075   7.460  1.6805  1.1251  0.0392
  191SLPC  C21122111  -0.125   0.133   7.384  0.5714  0.1776 -0.3266
  191SLPC  H11R22112  -0.183   0.047   7.425  1.4141  0.2580  1.1178
  191SLPC  H11S22113  -0.175   0.146   7.286 -0.4938  0.2906  0.2139
  191SLPC  C21222114  -0.171   0.247   7.472  0.0113  0.6693  0.3735
  191SLPC  H12R22115  -0.176   0.351   7.437  0.8120  0.9011  0.9085
  191SLPC  C21322116  -0.201   0.233   7.601  0.2480  0.8083 -0.0407
  191SLPC  H13R22117  -0.226   0.320   7.663  2.1759  1.4355 -0.0778
  191SLPC  C21422118  -0.192   0.110   7.689 -0.8218  0.0691 -0.0798
  191SLPC  H14R22119  -0.158   0.018   7.638  1.3965  1.0030 -0.3899
  191SLPC  H14S22120  -0.293   0.089   7.732 -0.0178  2.0478  3.1421
  191SLPC  C21522121  -0.118   0.117   7.820  0.2270  0.3581  0.0351
  191SLPC  H15R22122  -0.173   0.189   7.884 -0.2604  1.0553 -1.1331
  191SLPC  H15S22123  -0.018   0.160   7.801  0.5192 -0.2854  0.0931
  191SLPC  C21622124  -0.109  -0.022   7.892 -0.6095  0.0581  1.0239
  191SLPC  H16R22125  -0.023  -0.075   7.847 -0.4281  1.0048  0.2212
  191SLPC  H16S22126  -0.203  -0.075   7.867 -1.5459  1.9715  0.3076
  191SLPC  C21722127  -0.063  -0.018   8.033  0.0893 -0.2511  0.0581
  191SLPC  H17R22128  -0.132   0.049   8.090 -0.5518  0.7391 -1.8077
  191SLPC  H17S22129   0.038   0.026   8.021 -0.1958  0.1292 -1.0021
  191SLPC  C21822130  -0.052  -0.158   8.094  0.3313 -0.6954 -0.0324
  191SLPC  H18R22131  -0.150  -0.209   8.099 -1.3138  2.2509  0.3591
  191SLPC  H18S22132  -0.016  -0.133   8.196 -1.7942  2.0846  0.1575
  191SLPC  H18T22133   0.029  -0.209   8.038  1.2961  0.7351 -0.0048
  191SLPC   C3322134  -0.293   0.511   6.686 -0.3128  0.2972  0.3608
  191SLPC   H3X22135  -0.334   0.429   6.624  1.0263 -0.9554  1.0489
  191SLPC   H3Y22136  -0.370   0.519   6.765  0.8488  0.6847  1.4957
  191SLPC   C3422137  -0.167   0.457   6.751 -0.0692 -0.4826 -0.7576
  191SLPC   H4X22138  -0.081   0.446   6.681  1.3763  1.2237  0.6399
  191SLPC   H4Y22139  -0.195   0.363   6.803 -0.1731 -1.0716 -1.8530
  191SLPC   C3522140  -0.107   0.550   6.862 -0.0477  0.4748  0.1028
  191SLPC   H5X22141  -0.093   0.656   6.829 -0.4449  0.2873 -0.7016
  191SLPC   H5Y22142  -0.002   0.516   6.869 -0.0546 -0.3102 -2.5213
  191SLPC   C3622143  -0.183   0.541   7.001 -0.2695 -0.0092  0.3164
  191SLPC   H6X22144  -0.206   0.433   7.015 -0.2747 -0.4820 -2.6017
  191SLPC   H6Y22145  -0.274   0.602   6.982  0.0049  0.7018  1.1942
  191SLPC   C3722146  -0.108   0.586   7.127 -0.0547 -0.6161  0.1847
  191SLPC   H7X22147  -0.057   0.680   7.099 -0.2860  0.4431  3.0814
  191SLPC   H7Y22148  -0.026   0.513   7.141  1.3517  0.3364 -2.3691
  191SLPC   C3822149  -0.200   0.600   7.248  0.5068  0.3362 -0.5436
  191SLPC   H8X22150  -0.256   0.506   7.269 -0.8547  1.6086  1.9972
  191SLPC   H8Y22151  -0.269   0.684   7.224 -2.1814 -1.6793 -0.2970
  191SLPC   C3922152  -0.144   0.659   7.385  0.3110  0.0431 -0.1878
  191SLPC   H9X22153  -0.134   0.768   7.367  0.9332  0.0867  0.4020
  191SLPC   H9Y22154  -0.045   0.617   7.411  0.1640  0.8953  1.8844
  191SLPC  C31022155  -0.249   0.627   7.502  0.1736 -0.4919  0.3093
  191SLPC  H10X22156  -0.269   0.519   7.481  1.5816 -0.9382  1.1440
  191SLPC  H10Y22157  -0.334   0.695   7.480  2.0569  1.6698 -0.7026
  191SLPC  C31122158  -0.198   0.662   7.640  0.8250 -0.1209 -0.2299
  191SLPC  H11X22159  -0.175   0.769   7.656 -0.0118 -0.1799  1.5325
  191SLPC  H11Y22160  -0.100   0.610   7.648  0.1073 -1.6083 -0.7692
  191SLPC  C31222161  -0.298   0.612   7.746  0.1655 -0.7623  0.0380
  191SLPC  H12X22162  -0.327   0.507   7.723 -1.1183 -0.1883 -1.0994
  191SLPC  H12Y22163  -0.389   0.676   7.746  1.3706  1.0272 -0.3357
  191SLPC  C31322164  -0.227   0.610   7.885  0.6642 -0.3120  0.4188
  191SLPC  H13X22165  -0.303   0.592   7.963  0.1705  0.4732  0.1286
  191SLPC  H13Y22166  -0.194   0.716   7.893 -2.4470  0.6635  1.5061
  191SLPC  C31422167  -0.113   0.504   7.900  0.7246  0.2318 -0.0348
  191SLPC  H14X22168  -0.026   0.521   7.833  0.1958 -0.7438 -1.0003
  191SLPC  H14Y22169  -0.150   0.401   7.882  1.4317  0.0853 -0.7121
  191SLPC  C31522170  -0.048   0.503   8.038  0.0338  0.0383 -0.4483
  191SLPC  H15X22171  -0.030   0.609   8.063  1.4563 -0.1168 -0.7337
  191SLPC  H15Y22172   0.047   0.446   8.041 -0.0905 -0.2044 -1.0028
  191SLPC  C31622173  -0.136   0.448   8.150  0.5128  0.3068 -0.1606
  191SLPC  H16X22174  -0.166   0.342   8.143 -0.3177  0.4830  0.5713
  191SLPC  H16Y22175  -0.227   0.511   8.139 -0.1670 -0.7340 -0.6243
  191SLPC  C31722176  -0.079   0.494   8.286  0.2618  0.3316 -0.0870
  191SLPC  H17X22177  -0.148   0.470   8.369  0.6899 -1.8219 -0.2801
  191SLPC  H17Y22178  -0.075   0.605   8.289 -1.5751  0.4426 -0.5482
  191SLPC  C31822179   0.047   0.413   8.314 -0.0121 -0.6354 -0.0069
  191SLPC  H18X22180   0.073   0.415   8.422 -1.0689 -1.5657  0.2862
  191SLPC  H18Y22181   0.124   0.463   8.252  1.4308 -0.1684  2.0247
  191SLPC  H18Z22182   0.041   0.307   8.284  1.1947 -1.1217  1.3730
  192SLPC     N22183   2.481   1.225   6.177 -0.7644 -0.2956 -0.1922
  192SLPC   C1322184   2.583   1.300   6.089  0.7592  0.3091 -0.1938
  192SLPC  H13A22185   2.607   1.400   6.122  0.6506 -0.6418  3.0980
  192SLPC  H13B22186   2.666   1.231   6.086  0.4679 -0.0089 -1.6948
  192SLPC  H13C22187   2.548   1.309   5.987 -1.7305 -0.0899  0.5497
  192SLPC   C1422188   2.468   1.082   6.132  0.2548  0.1854 -0.4597
  192SLPC  H14A22189   2.562   1.030   6.148  0.0093 -0.0128  0.4347
  192SLPC  H14B22190   2.395   1.034   6.195  3.2544 -1.2029  2.2633
  192SLPC  H14C22191   2.448   1.060   6.029  1.5090 -4.2226 -0.0056
  192SLPC   C1522192   2.345   1.284   6.164 -0.2628 -0.2092  0.2078
  192SLPC  H15A22193   2.334   1.388   6.192  1.5873 -0.0372  0.4306
  192SLPC  H15B22194   2.322   1.267   6.060  1.2919 -0.1224 -0.1765
  192SLPC  H15C22195   2.277   1.230   6.228  0.7899  0.9291  2.3980
  192SLPC   C1222196   2.507   1.229   6.324  0.2442 -0.2975 -0.5838
  192SLPC  H12A22197   2.421   1.186   6.374  0.7975 -1.1360 -0.3222
  192SLPC  H12B22198   2.519   1.329   6.362 -1.9368  0.0439 -0.6753
  192SLPC   C1122199   2.636   1.149   6.371 -1.0533 -0.4623  0.7194
  192SLPC  H11A22200   2.616   1.048   6.330  0.1228 -0.0740 -0.9035
  192SLPC  H11B22201   2.621   1.142   6.481  1.4814 -3.9309  0.9889
  192SLPC     P22202   2.833   1.328   6.392 -0.1155  0.1693  0.0309
  192SLPC   O1322203   2.971   1.295   6.380  0.5339  0.1744  0.3345
  192SLPC   O1422204   2.783   1.457   6.339 -0.2782 -0.1288  0.2190
  192SLPC   O1222205   2.754   1.210   6.318 -0.2267  0.4718  0.2367
  192SLPC   O1122206   2.782   1.306   6.543 -0.3276 -0.0459  0.0325
  192SLPC    C122207   2.864   1.230   6.627 -0.3721 -0.0709  0.3111
  192SLPC    HA22208   2.875   1.128   6.584  0.7258 -0.9966  2.6182
  192SLPC    HB22209   2.960   1.279   6.653 -1.0374  0.3345  2.1912
  192SLPC    C222210   2.796   1.191   6.764 -0.3708 -0.1274  0.7521
  192SLPC    HS22211   2.692   1.161   6.736  0.1407 -0.5262 -0.8100
  192SLPC   O2122212   2.791   1.308   6.846  0.6007 -0.1851  0.6196
  192SLPC   C2122213   2.713   1.304   6.947  0.4616 -0.1280  0.3161
  192SLPC   O2222214   2.628   1.219   6.976 -0.5136  0.2114 -0.1528
  192SLPC   C2222215   2.730   1.424   7.030 -0.7281 -0.2867  0.0862
  192SLPC   H2R22216   2.828   1.419   7.082  0.5640  2.9660 -1.7586
  192SLPC   H2S22217   2.729   1.517   6.969  0.9372 -1.2130 -1.4530
  192SLPC    C322218   2.866   1.071   6.828 -0.2058  0.3397  0.0675
  192SLPC    HX22219   2.830   1.035   6.927  3.7891 -1.1593  1.1995
  192SLPC    HY22220   2.972   1.098   6.849 -0.1317  1.3179 -1.4450
  192SLPC   O3122221   2.872   0.958   6.742  0.3278 -0.2262 -0.1889
  192SLPC   C3122222   2.760   0.885   6.745  0.2871 -0.0920 -0.5554
  192SLPC   O3222223   2.666   0.898   6.819  0.3157 -0.2520  0.2296
  192SLPC   C3222224   2.773   0.765   6.648  0.3199  0.0784 -0.2936
  192SLPC   H2X22225   2.879   0.742   6.625 -0.3403  0.2193 -4.0794
  192SLPC   H2Y22226   2.713   0.794   6.559 -1.3501 -0.1117  0.7207
  192SLPC   C2322227   2.616   1.434   7.136 -0.4039 -0.3813  0.1482
  192SLPC   H3R22228   2.629   1.527   7.196 -2.6756 -0.7101  1.2705
  192SLPC   H3S22229   2.627   1.353   7.211  1.9874 -0.1245  0.1310
  192SLPC   C2422230   2.467   1.434   7.090  0.0260 -0.2542  0.4856
  192SLPC   H4R22231   2.437   1.341   7.038 -0.3285 -0.1985  0.5850
  192SLPC   H4S22232   2.452   1.518   7.019  3.1762  1.6942  1.8962
  192SLPC   C2522233   2.355   1.452   7.194 -0.0034 -0.0732 -0.9356
  192SLPC   H5R22234   2.376   1.546   7.250 -1.4581  0.5509 -1.3838
  192SLPC   H5S22235   2.361   1.369   7.268 -0.7874  0.5507 -0.1404
  192SLPC   C2622236   2.211   1.465   7.138  0.5202  0.4496  0.4320
  192SLPC   H6R22237   2.197   1.366   7.088  0.7996  0.4452  0.3646
  192SLPC   H6S22238   2.198   1.546   7.063 -1.6000  0.2089  0.4690
  192SLPC   C2722239   2.100   1.501   7.233  0.1285  0.2843 -0.0848
  192SLPC   H7R22240   2.004   1.516   7.179 -0.6001  0.3292  1.1705
  192SLPC   H7S22241   2.116   1.604   7.270 -1.3774  1.2776 -2.0289
  192SLPC   C2822242   2.081   1.397   7.338 -0.0214 -0.3037 -0.2024
  192SLPC   H8R22243   2.168   1.392   7.407  0.1511  0.7627 -0.3227
  192SLPC   H8S22244   2.063   1.299   7.289  2.2713 -0.8940  0.0353
  192SLPC   C2922245   1.963   1.444   7.426  0.5293  0.0994  0.3557
  192SLPC   H9R22246   1.981   1.523   7.500 -3.1884  1.5649 -0.1065
  192SLPC  C21022247   1.834   1.412   7.409 -0.6421  0.3988 -1.0567
  192SLPC  H10R22248   1.766   1.443   7.489 -2.2326 -0.4347 -2.0162
  192SLPC  C21122249   1.782   1.315   7.311 -0.2799  0.1787  0.5151
  192SLPC  H11R22250   1.821   1.213   7.332 -1.0123 -0.4308 -0.9544
  192SLPC  H11S22251   1.810   1.336   7.206 -3.5717 -0.8085 -0.6712
  192SLPC  C21222252   1.630   1.313   7.304 -0.2439 -0.3570 -0.2400
  192SLPC  H12R22253   1.596   1.339   7.203  0.9645  0.2287 -0.5222
  192SLPC  C21322254   1.545   1.278   7.411  0.3912 -0.3165  0.1714
  192SLPC  H13R22255   1.438   1.273   7.386  0.5703  1.0525 -0.9761
  192SLPC  C21422256   1.572   1.245   7.552 -0.0102 -0.1918 -0.2181
  192SLPC  H14R22257   1.578   1.341   7.608 -1.5146  0.6096 -1.3688
  192SLPC  H14S22258   1.675   1.204   7.560 -0.2764 -0.9138 -0.3481
  192SLPC  C21522259   1.464   1.159   7.620  0.1685 -0.5283  0.0151
  192SLPC  H15R22260   1.509   1.079   7.682  1.4195 -0.4730 -0.8002
  192SLPC  H15S22261   1.399   1.102   7.550 -0.3111 -2.0112  1.5969
  192SLPC  C21622262   1.362   1.234   7.696  0.5542 -0.9286 -0.3244
  192SLPC  H16R22263   1.259   1.191   7.704 -0.0195  0.6045  1.0266
  192SLPC  H16S22264   1.335   1.329   7.644  1.5096 -1.1760 -1.3082
  192SLPC  C21722265   1.417   1.281   7.835  0.4280 -0.7386 -0.1311
  192SLPC  H17R22266   1.436   1.181   7.880  0.3648 -2.0420 -2.7725
  192SLPC  H17S22267   1.517   1.330   7.824  1.2436 -2.2635  0.2429
  192SLPC  C21822268   1.308   1.362   7.916  0.4066  0.2984 -0.3709
  192SLPC  H18R22269   1.348   1.415   8.005  0.9056 -0.5967 -0.0441
  192SLPC  H18S22270   1.247   1.281   7.961  0.0618 -0.0537 -1.4346
  192SLPC  H18T22271   1.261   1.437   7.850 -0.6339 -0.5476 -0.6031
  192SLPC   C3322272   2.718   0.632   6.714  0.2473 -0.9197  0.2286
  192SLPC   H3X22273   2.756   0.558   6.641  0.3357  0.4307 -1.1427
  192SLPC   H3Y22274   2.607   0.629   6.727  0.2813 -2.8488  0.2847
  192SLPC   C3422275   2.776   0.600   6.852 -0.0258 -0.9277 -0.3262
  192SLPC   H4X22276   2.730   0.670   6.925  0.6737  1.0921 -1.7223
  192SLPC   H4Y22277   2.880   0.638   6.851  0.3903 -2.0394 -0.9109
  192SLPC   C3522278   2.771   0.457   6.892 -0.2866  0.7178  0.0618
  192SLPC   H5X22279   2.809   0.392   6.810 -0.2525  0.3904  0.3362
  192SLPC   H5Y22280   2.664   0.430   6.901  0.5594 -2.9622  0.5243
  192SLPC   C3622281   2.845   0.430   7.026  0.6019  0.0393 -0.6920
  192SLPC   H6X22282   2.785   0.470   7.110  1.3603  2.1701 -1.1083
  192SLPC   H6Y22283   2.935   0.495   7.019 -1.0580  3.0135  2.5575
  192SLPC   C3722284   2.895   0.285   7.047  0.4965  0.1989 -0.1507
  192SLPC   H7X22285   2.982   0.281   6.978  0.8430  1.0110  0.2313
  192SLPC   H7Y22286   2.820   0.212   7.008 -0.1324  1.1019 -0.6608
  192SLPC   C3822287   2.937   0.254   7.189  0.6738 -0.2794 -0.3492
  192SLPC   H8X22288   2.986   0.154   7.196 -0.9224 -1.0685  0.0653
  192SLPC   H8Y22289   2.847   0.250   7.253 -1.0109 -0.7609 -2.6216
  192SLPC   C3922290   3.026   0.353   7.267 -0.7621 -0.2734 -0.4153
  192SLPC   H9X22291   2.961   0.441   7.287  0.1516  0.4380 -0.4867
  192SLPC   H9Y22292   3.103   0.387   7.194 -1.6213  1.4188 -0.5817
  192SLPC  C31022293   3.085   0.288   7.398 -0.3435  0.6239  0.1578
  192SLPC  H10X22294   3.161   0.218   7.357 -0.4953  1.8181 -2.4271
  192SLPC  H10Y22295   3.017   0.241   7.471  0.8490 -0.1632  0.7891
  192SLPC  C31122296   3.153   0.391   7.482  0.6140 -0.1132  0.0449
  192SLPC  H11X22297   3.102   0.486   7.509 -0.7250 -1.0146  0.8088
  192SLPC  H11Y22298   3.243   0.424   7.425  1.5778 -1.0261  1.0031
  192SLPC  C31222299   3.198   0.343   7.616 -0.7855  1.2040 -0.3289
  192SLPC  H12X22300   3.280   0.411   7.649  0.4824 -0.5694  0.3073
  192SLPC  H12Y22301   3.245   0.243   7.604 -0.8260  0.9566  1.3793
  192SLPC  C31322302   3.087   0.332   7.722  0.8098  0.3099 -0.4791
  192SLPC  H13X22303   2.992   0.289   7.685  2.6832 -1.9787 -3.0539
  192SLPC  H13Y22304   3.053   0.436   7.745  0.6154  0.0705  0.3462
  192SLPC  C31422305   3.123   0.260   7.859  0.5255 -0.9985  0.0355
  192SLPC  H14X22306   3.221   0.298   7.893 -0.5533  0.8853  1.2338
  192SLPC  H14Y22307   3.131   0.149   7.855  2.6586 -0.9684  1.7694
  192SLPC  C31522308   3.026   0.296   7.975 -0.2340  0.4768 -0.0643
  192SLPC  H15X22309   2.927   0.251   7.952 -0.7803 -1.0061  4.2764
  192SLPC  H15Y22310   3.016   0.406   7.986  2.9094  0.7693  0.7243
  192SLPC  C31622311   3.075   0.239   8.108  0.0062  0.5006  0.4834
  192SLPC  H16X22312   3.179   0.267   8.134  1.2218 -1.5773 -1.7459
  192SLPC  H16Y22313   3.079   0.128   8.103  1.0487  0.2747  4.0637
  192SLPC  C31722314   2.976   0.265   8.235 -0.4541  0.3854  0.5169
  192SLPC  H17X22315   2.880   0.225   8.197 -0.3942  0.1664  0.5904
  192SLPC  H17Y22316   2.977   0.375   8.245  0.8648  0.2948  1.7771
  192SLPC  C31822317   3.026   0.208   8.368 -0.0025  0.4030 -0.2886
  192SLPC  H18X22318   3.118   0.264   8.397  0.6566 -1.2460  0.9631
  192SLPC  H18Y22319   3.052   0.100   8.362  3.1947  0.8453  2.5129
  192SLPC  H18Z22320   2.949   0.228   8.446 -1.1360  1.0526 -1.5320
  193SOD    SOD22321   2.026   4.555  13.874 -0.3490 -0.3570 -0.1635
  194SOD    SOD22322   4.453   2.637   2.677 -0.0892 -0.3738 -0.1951
  195SOD    SOD22323   0.246   4.655  13.142  0.8088  0.0544  0.1525
  196SOD    SOD22324   4.254   4.047  13.814  0.5319 -0.2123  0.4888
  197SOD    SOD22325   3.829   2.818  11.524  0.1491  0.3606 -0.4653
  198SOD    SOD22326   5.829   1.737   5.324 -0.0706  0.1999  0.3240
  199SOD    SOD22327   6.476   0.702   4.286 -0.0359  0.1595  0.1387
  200SOD    SOD22328   5.735   6.401   5.613  0.3079  0.1721  0.0337
  201SOD    SOD22329   0.546   2.752   3.944 -0.2625 -0.2608 -0.1709
  202SOD    SOD22330   5.396   5.547   5.564 -0.2792 -0.0871 -0.4738
  203SOD    SOD22331   3.390   1.622  13.037 -0.0798 -0.0105 -0.0463
  204SOD    SOD22332   2.917   4.054  14.747  0.6115 -0.1271 -0.4385
  205SOD    SOD22333   2.993   1.435  14.387  0.3092 -0.2540  0.4569
  206SOD    SOD22334   6.714   1.459   5.042  0.3483  0.2525 -0.2435
  207SOD    SOD22335   6.056   2.206   6.279  0.1993  0.3120 -0.0095
  208SOD    SOD22336   4.091   2.825   4.756 -0.0713  0.1680  0.1453
  209SOD    SOD22337   2.542   5.863  11.888  0.1805  0.3881 -0.4467
  210SOD    SOD22338   2.218   1.728   6.096 -0.3144 -0.1288 -0.3103
  211SOD    SOD22339   2.599   5.723  14.722  0.4607  0.0202 -0.3897
  212SOD    SOD22340   2.001   4.404   4.910  0.1230  0.0508  0.6021
  213SOD    SOD22341   0.563   1.987  11.894 -0.0490 -0.0791 -0.2461
  214SOD    SOD22342   3.423   2.369  15.833  0.1306 -0.4301 -0.3008
  215SOD    SOD22343   2.256   6.532  13.444 -0.1843  0.1157  0.0943
  216SOD    SOD22344   5.238   0.565  15.873  0.3123 -0.0051  0.4213
  217SOD    SOD22345   6.796   3.392   6.424  0.5397  0.2188  0.4764
  218SOD    SOD22346   2.851   1.233  10.841 -0.4146  0.1010  0.4762
  219SOD    SOD22347   3.638   0.204   3.642 -0.0519 -0.2968  0.0080
  220SOD    SOD22348   0.086   3.006  16.109  0.3841  0.0059  0.3735
  221SOD    SOD22349   6.028   2.279   3.014 -0.0433 -0.4746 -0.1029
  222SOD    SOD22350   3.961   5.629  13.881  0.0052  0.3753 -0.5772
  223SOD    SOD22351   0.179   0.410   1.845 -0.4801  0.5789  0.1235
  224SOD    SOD22352   5.666   3.202   0.121 -0.1568 -0.2497 -0.2164
  225SOD    SOD22353   6.262   0.664  12.258 -0.1196 -0.2114  0.1195
  226SOD    SOD22354   1.298   3.882   6.288  0.0176  0.4719  0.3755
  227SOD    SOD22355   6.457   5.496   0.042  0.0769 -0.0367  0.1246
  228SOD    SOD22356   4.445   2.159  13.527 -0.2259  0.3972  0.0642
  229SOD    SOD22357   2.926   2.089   1.339 -0.2413 -0.3045 -0.2079
  230SOD    SOD22358   0.518   2.541   1.224  0.3240  0.2684 -0.4560
  231SOD    SOD22359   3.540   1.907  14.948  0.1922 -0.4906  0.2432
  232SOD    SOD22360   0.136   5.142   4.541  0.3756  0.0524 -0.0199
  233SOD    SOD22361   4.100   0.539  11.444  0.2448 -0.5801  0.1268
  234SOD    SOD22362   4.313   4.921  11.237 -0.0017 -0.5677 -0.0838
  235SOD    SOD22363   6.294   4.886  16.390 -0.7207  0.3056  0.6181
  236SOD    SOD22364   4.970   4.443  14.910 -0.0577  0.4553 -0.1563
  237SOD    SOD22365   6.556   1.274   0.692  0.0937 -0.3842 -0.2690
  238SOD    SOD22366   1.324   4.535   3.854  0.4584 -0.1004 -0.2744
  239SOD    SOD22367   4.660   0.248  11.301  0.2056 -0.2173 -0.2400
  240SOD    SOD22368   0.390   6.537   2.954  0.6973  0.2585 -0.0779
  241SOD    SOD22369   0.848   0.767  10.466  0.1490 -0.3670  0.2996
  242SOD    SOD22370   5.019   3.354  15.201 -0.0276 -0.7978  0.0208
  243SOD    SOD22371   0.638   1.894   3.165 -0.4934 -0.0201  0.5212
  244SOD    SOD22372   4.420   4.414  12.649 -0.5502  0.4605 -0.2278
  245SOD    SOD22373   2.533   0.296   5.469  0.5779 -0.2022  0.0783
  246SOD    SOD22374   6.167   0.355   5.372  0.3687  0.3145 -0.5762
  247SOD    SOD22375   5.234   0.932   3.060 -0.2466  0.1705  0.0812
  248SOD    SOD22376   0.481   4.801  10.556 -0.0695 -0.0229  0.7288
  249SOD    SOD22377   4.208   5.597   0.508  0.5603 -0.0061  0.0708
  250SOD    SOD22378   6.782   2.358  11.518 -0.4014  0.4585 -0.0199
  251SOD    SOD22379   3.710   4.100   5.588 -0.5676  0.1392 -0.5944
  252SOD    SOD22380   0.522   1.356  11.005 -0.1845 -0.2943  0.1965
  253SOD    SOD22381   6.388   2.527   5.389  0.1107  0.6770  0.6398
  254SOD    SOD22382   1.309   4.198  11.883  0.1964  0.6000  0.2475
  255SOD    SOD22383   2.069   2.664   3.422 -0.2275 -0.3801 -0.0579
  256SOD    SOD22384   3.860   4.247   3.839 -0.0456 -0.5283 -0.4901
  257SOD    SOD22385   2.235   6.396   5.676 -0.0330  0.1968  0.0448
  258SOD    SOD22386   3.314   5.506  14.273  0.0040  0.1372  0.7351
  259SOD    SOD22387   6.815   2.465  13.012  0.2015 -0.4790 -0.5705
  260SOD    SOD22388   0.858   2.201  14.823 -0.0968 -0.1561  0.5148
  261SOD    SOD22389   5.502   2.237  11.404 -0.8357  0.1239  0.1355
  262SOD    SOD22390   5.843   5.243  17.190 -0.4452 -0.1885 -0.0258
  263SOD    SOD22391   3.818   4.729  12.225 -0.0956  0.0652 -0.1406
  264SOD    SOD22392   0.810   5.699  12.557  0.4332  0.2287  0.0789
  265SOD    SOD22393   4.939   4.124  11.916 -0.1683  0.3687  0.4624
  266CLA    CLA22394   3.403   2.066   3.925 -0.1343 -0.3981  0.0109
  267CLA    CLA22395   6.235   4.373   0.597 -0.0300 -0.0676 -0.4956
  268CLA    CLA22396   1.659   4.750  11.712 -0.0120  0.0249  0.1001
  269CLA    CLA22397   5.918   5.679  12.314 -0.1488  0.2461  0.0952
  270CLA    CLA22398   5.595   6.321   3.964 -0.1213 -0.1054 -0.0242
  271CLA    CLA22399   3.352   5.444  16.780 -0.3235 -0.2307  0.2314
  272CLA    CLA22400   5.367   4.271  15.287  0.2761  0.1122  0.2535
  273CLA    CLA22401   5.715   6.798  14.201 -0.2110  0.2960 -0.0561
  274CLA    CLA22402   5.160   6.564   3.287  0.1250  0.1864 -0.6860
  275CLA    CLA22403   4.619   2.195   3.563  0.3408 -0.7444 -0.1874
  276CLA    CLA22404   1.384   1.645  16.327 -0.1764  0.0219 -0.1385
  277CLA    CLA22405   4.606   3.953  12.850  0.2346  0.1238  0.6957
  278CLA    CLA22406   4.396   1.321   5.396 -0.3179 -0.3559 -0.0387
  279CLA    CLA22407   3.006   4.546  14.531  0.0339 -0.1134  0.1453
  280CLA    CLA22408   0.167   1.797  16.850  0.1811  0.3058 -0.2598
  281CLA    CLA22409   0.467   4.098  11.850 -0.3284 -0.1684 -0.2273
  282CLA    CLA22410   4.864   5.826  12.728 -0.3791  0.2855 -0.2617
  283CLA    CLA22411   4.340   4.073  14.846 -0.2281  0.2648  0.1511
  284CLA    CLA22412   4.336   3.517  13.802 -0.1911  0.3131  0.0001
  285CLA    CLA22413   6.104   2.597  15.125  0.3211  0.0307  0.3814
  286CLA    CLA22414   2.400   5.439  16.119  0.1883 -0.4194  0.4699
  287CLA    CLA22415   5.359   0.144  15.940  0.3533 -0.2144 -0.2035
  288CLA    CLA22416   1.561   6.054   2.812  0.1691  0.2215 -0.2901
  289CLA    CLA22417   6.747   5.160  13.925  0.0922 -0.6497  0.1815
  290CLA    CLA22418   0.672   6.700   2.090 -0.0350  0.2804  0.5692
  291CLA    CLA22419   6.731   1.175   3.671  0.1815 -0.3344  0.2451
  292CLA    CLA22420   0.394   4.637  13.634  0.0876  0.4407  0.4961
  293CLA    CLA22421   2.147   5.805  14.211 -0.0228  0.3160  0.1730
  294CLA    CLA22422   4.361   4.046  12.417  0.4270 -0.2089  0.3257
  295CLA    CLA22423   0.066   4.459   0.415 -0.1233  0.0965  0.0124
  296CLA    CLA22424   2.926   5.897  13.160  0.2682  0.0173  0.4803
  297CLA    CLA22425   6.025   1.067  17.053  0.1500  0.3525  0.6062
  298CLA    CLA22426   5.275   0.194   1.839  0.0461 -0.0785  0.1478
  299CLA    CLA22427   1.892   2.379   3.678  0.1914 -0.4644 -0.1876
  300CLA    CLA22428   1.456   2.348  14.220 -0.4530  0.4432 -0.5040
  301CLA    CLA22429   5.363   5.095  13.753  0.1196 -0.0696  0.2469
  302CLA    CLA22430   2.079   6.587   1.643  0.1698 -0.3579  0.0818
  303CLA    CLA22431   1.972   2.728   1.159  0.0724  0.2761  0.0117
  304CLA    CLA22432   3.742   6.440   5.854  0.3135  0.2240 -0.2609
  305CLA    CLA22433   3.860   2.737   3.229 -0.2770  0.1733 -0.0105
  306CLA    CLA22434   2.641   2.385  11.870  0.0529 -0.2286  0.5623
  307CLA    CLA22435   3.682   2.058  13.269  0.0039  0.0136 -0.3602
  308CLA    CLA22436   3.193   3.796  12.346 -0.3930 -0.6168  0.2271
  309CLA    CLA22437   3.504   2.368  11.617 -0.1966  0.0022  0.0061
  310CLA    CLA22438   2.113   2.923  16.477  0.2948  0.1558  0.3329
  311CLA    CLA22439   1.226   1.296   1.191 -0.1181  0.1579 -0.0549
  312CLA    CLA22440   3.711   4.945   5.799  0.1206 -0.0525  0.1521
  313CLA    CLA22441   4.746   2.390   5.326 -0.1684  0.2435 -0.0295
  314CLA    CLA22442   6.260   2.019  14.885  0.3200  0.3196 -0.2599
  315CLA    CLA22443   5.983   3.205   5.403  0.1945  0.0688  0.0466
  316CLA    CLA22444   3.248   0.860   3.677  0.1291  0.1993 -0.2920
  317CLA    CLA22445   6.742   0.661  14.447 -0.6325  0.0417  0.1204
  318CLA    CLA22446   3.624   1.911   1.176  0.1704 -0.4227  0.1524
  319TIP3   OH222447   4.153   2.722   3.081  0.3873 -0.4512  0.2699
  319TIP3    H122448   4.071   2.740   3.128 -0.3533 -1.0889 -0.7472
  319TIP3    H222449   4.220   2.769   3.132 -0.6142  0.1909  1.0442
  320TIP3   OH222450   4.564   5.935  11.897 -0.2153 -0.1613  0.1792
  320TIP3    H122451   4.619   5.999  11.851 -1.0558  0.6569  0.2776
  320TIP3    H222452   4.614   5.853  11.893  0.2692  0.1690 -1.1340
  321TIP3   OH222453   4.934   1.872  13.740 -0.5626 -0.5936 -0.5163
  321TIP3    H122454   5.026   1.887  13.719 -0.7262  0.4551 -0.5130
  321TIP3    H222455   4.936   1.822  13.821  0.0133  1.6733  0.9657
  322TIP3   OH222456   3.204   4.814  14.754  0.5765  0.2968  0.1364
  322TIP3    H122457   3.217   4.824  14.660  1.1179 -0.3079  0.1399
  322TIP3    H222458   3.286   4.777  14.786 -0.1127 -0.9003  0.6137
  323TIP3   OH222459   6.807   3.291   6.216 -0.2601  0.3687  0.3145
  323TIP3    H122460   6.792   3.200   6.242  0.4753 -0.0505 -0.6676
  323TIP3    H222461   6.732   3.313   6.161 -0.1055  0.1380  0.0106
  324TIP3   OH222462   1.619   4.077  12.411  0.5383 -0.0920  0.1777
  324TIP3    H122463   1.535   4.099  12.371  0.0663  2.0384  2.0948
  324TIP3    H222464   1.681   4.078  12.339 -0.7780  0.0903 -1.0101
  325TIP3   OH222465   1.450   3.732   6.404  0.0413  0.3186 -0.0550
  325TIP3    H122466   1.518   3.677   6.364  0.2821  1.5300 -1.3853
  325TIP3    H222467   1.424   3.684   6.482  0.4013 -1.5879 -1.0385
  326TIP3   OH222468   5.832   3.817   5.948 -0.5883 -0.5223  0.2774
  326TIP3    H122469   5.797   3.867   6.022  1.6756  0.1234  1.0005
  326TIP3    H222470   5.874   3.883   5.892  1.1989 -1.3921  0.5084
  327TIP3   OH222471   6.017   4.055   1.009 -0.0278  0.6544  0.4830
  327TIP3    H122472   6.092   4.108   0.981  0.5889 -0.9251 -1.0403
  327TIP3    H222473   5.952   4.068   0.940  0.3016 -0.8518 -0.1491
  328TIP3   OH222474   5.108   0.316  12.380 -0.3757  0.7374  0.2098
  328TIP3    H122475   5.189   0.331  12.429  0.2033 -0.2026 -0.4033
  328TIP3    H222476   5.066   0.242  12.424 -0.8704  1.1918  0.4953
  329TIP3   OH222477   2.047   5.202   3.330 -0.3498  0.2451 -0.4154
  329TIP3    H122478   2.103   5.257   3.276  0.3208 -2.4280 -2.6854
  329TIP3    H222479   2.101   5.178   3.405 -0.0675  1.2305 -0.2912
  330TIP3   OH222480   2.326   4.705  16.535 -0.1618 -0.6335 -0.1980
  330TIP3    H122481   2.401   4.647  16.520  1.1731  1.3163 -1.6764
  330TIP3    H222482   2.254   4.666  16.487  0.4205 -1.5984 -0.2987
  331TIP3   OH222483   5.842   5.959  12.502 -0.2968  0.1930 -0.5749
  331TIP3    H122484   5.923   6.010  12.508 -0.9244  1.2572 -0.8171
  331TIP3    H222485   5.868   5.877  12.460  1.1567 -0.6506  1.8071
  332TIP3   OH222486   1.503   2.776   3.066 -0.2693 -0.2202 -0.1095
  332TIP3    H122487   1.509   2.748   3.157 -3.1549  0.6064  0.4424
  332TIP3    H222488   1.550   2.708   3.016  2.3499 -0.1108  1.9946
  333TIP3   OH222489   2.524   1.626  11.429  0.4442 -0.7117  0.1137
  333TIP3    H122490   2.532   1.538  11.465 -0.0574 -0.3799  1.0637
  333TIP3    H222491   2.506   1.681  11.505 -1.4882 -0.0988 -0.7345
  334TIP3   OH222492   6.378   3.624   0.161  0.4541  0.0032 -0.3695
  334TIP3    H122493   6.432   3.655   0.234 -0.4449  1.8428 -0.4259
  334TIP3    H222494   6.363   3.531   0.179 -0.4642  0.5947  2.2786
  335TIP3   OH222495   4.965   5.300   0.923 -0.1379 -0.3498 -0.0320
  335TIP3    H122496   5.053   5.300   0.887 -0.6021  0.2140 -1.1901
  335TIP3    H222497   4.922   5.225   0.882 -0.5364  0.0339 -0.3220
  336TIP3   OH222498   4.627   6.005   4.888  0.1061  0.0342  0.0407
  336TIP3    H122499   4.691   5.937   4.865 -0.8854 -0.8002 -0.3088
  336TIP3    H222500   4.653   6.032   4.976  1.2971  0.1447 -0.3168
  337TIP3   OH222501   0.857   0.824   5.803 -0.1546 -0.4733  0.4819
  337TIP3    H122502   0.850   0.913   5.839  0.5830 -0.3394  0.3163
  337TIP3    H222503   0.915   0.779   5.864  0.3548 -0.5157 -0.0231
  338TIP3   OH222504   4.026   1.657  15.038  0.0592  0.0508 -0.5626
  338TIP3    H122505   3.963   1.664  14.967  1.8011  0.3399 -2.1659
  338TIP3    H222506   4.058   1.567  15.034  0.5596  0.2203 -0.5115
  339TIP3   OH222507   1.901   4.323  15.081  0.0439  0.0677 -0.6077
  339TIP3    H122508   1.808   4.326  15.059  0.2458 -0.9707 -1.7386
  339TIP3    H222509   1.928   4.234  15.060  0.9835 -0.0817  1.1046
  340TIP3   OH222510   4.038   6.612  15.119  0.0491  0.1256 -0.0738
  340TIP3    H122511   4.091   6.558  15.178  0.0576  2.2229  1.9974
  340TIP3    H222512   3.962   6.638  15.172 -0.8485  0.6797 -1.5734
  341TIP3   OH222513   6.340   0.764  12.077 -0.0175 -0.3499 -0.6500
  341TIP3    H122514   6.327   0.747  11.983 -0.5686  0.2338 -0.6857
  341TIP3    H222515   6.409   0.830  12.081  1.4699 -1.8419 -0.5445
  342TIP3   OH222516   1.655   2.837   1.128  0.4875 -0.4715  0.3013
  342TIP3    H122517   1.731   2.894   1.116 -0.2231  0.1063 -2.0009
  342TIP3    H222518   1.692   2.749   1.133  1.4427 -0.0247  1.5212
  343TIP3   OH222519   2.780   5.105   5.683 -0.2176 -0.4550  0.1191
  343TIP3    H122520   2.777   5.010   5.698  0.2853 -0.4721  0.1204
  343TIP3    H222521   2.769   5.143   5.770 -0.2423 -0.5157  0.1428
  344TIP3   OH222522   4.946   2.181  13.482 -0.2237  0.1484  0.3426
  344TIP3    H122523   4.928   2.260  13.431 -2.2371 -0.5250 -0.1194
  344TIP3    H222524   4.900   2.195  13.565  0.1057 -0.1946  0.5870
  345TIP3   OH222525   5.631   1.176   5.729  0.5498  0.2940  0.6392
  345TIP3    H122526   5.584   1.257   5.710  2.0687  1.1873  0.5284
  345TIP3    H222527   5.616   1.162   5.823 -1.1722 -0.3032  0.3171
  346TIP3   OH222528   1.588   1.152  14.788  0.4111  0.1046 -0.0144
  346TIP3    H122529   1.618   1.080  14.843  2.1287  0.3232 -0.5925
  346TIP3    H222530   1.497   1.131  14.768  0.4784 -1.2017  0.9305
  347TIP3   OH222531   0.549   0.953   3.576 -0.4355  0.2372  0.5569
  347TIP3    H122532   0.545   0.929   3.483 -2.6110 -0.6557  0.8272
  347TIP3    H222533   0.505   1.038   3.580  0.1779  0.5505  0.6965
  348TIP3   OH222534   2.154   0.628   2.545  0.0780  0.0654 -0.0614
  348TIP3    H122535   2.207   0.622   2.465 -0.7617  0.1910 -0.6480
  348TIP3    H222536   2.072   0.667   2.515  0.1262  1.0781  1.0553
  349TIP3   OH222537   2.021   3.833  15.359 -0.4993  0.4255 -0.2153
  349TIP3    H122538   1.965   3.756  15.369 -0.4428  0.3170 -0.6828
  349TIP3    H222539   2.052   3.828  15.268 -1.2664  1.5170 -0.5593
  350TIP3   OH222540   5.920   2.348   4.811  0.4959 -0.2384 -0.3291
  350TIP3    H122541   5.989   2.282   4.811  1.3525  0.6340  0.7141
  350TIP3    H222542   5.964   2.429   4.787 -0.0288  0.4563  0.9849
  351TIP3   OH222543   3.911   1.689   2.700  0.0746  0.3467  0.0519
  351TIP3    H122544   3.847   1.619   2.688 -1.6214  1.6965  0.7732
  351TIP3    H222545   3.930   1.690   2.794 -0.1240  1.0111  0.0929
  352TIP3   OH222546   1.289   6.541   5.023 -0.1368  0.6006  0.0844
  352TIP3    H122547   1.381   6.534   4.997 -0.2643 -0.9639 -0.0334
  352TIP3    H222548   1.241   6.494   4.955 -0.7912 -0.5727  1.2988
  353TIP3   OH222549   5.453   5.653  10.865  0.3310 -1.0867 -0.3732
  353TIP3    H122550   5.455   5.675  10.771  3.6091  1.6023  0.1132
  353TIP3    H222551   5.531   5.599  10.878  1.1572  0.3489  1.0377
  354TIP3   OH222552   2.308   3.556  12.634  0.1811  0.1684 -0.2015
  354TIP3    H122553   2.272   3.587  12.551  0.1920  0.2007 -0.1943
  354TIP3    H222554   2.363   3.481  12.610 -0.7427 -0.5633 -0.1075
  355TIP3   OH222555   2.502   2.977   4.966  0.4117  0.7050 -1.1910
  355TIP3    H122556   2.489   2.893   5.010 -2.4214  1.0258 -1.2612
  355TIP3    H222557   2.536   2.954   4.879 -1.4483 -0.4954 -1.6449
  356TIP3   OH222558   2.245   4.777  15.120  0.1998 -0.4213 -0.4117
  356TIP3    H122559   2.153   4.751  15.119 -0.1076  0.5714  0.3827
  356TIP3    H222560   2.244   4.866  15.157  1.6678 -1.2240  1.7281
  357TIP3   OH222561   6.538   6.661  11.998  0.0461 -0.0850 -1.0018
  357TIP3    H122562   6.473   6.607  12.043  1.4541 -0.9270  0.0997
  357TIP3    H222563   6.535   6.745  12.044  0.7562 -0.6060  0.0276
  358TIP3   OH222564   3.740   0.619   5.350  0.4167 -0.4444  0.2040
  358TIP3    H122565   3.797   0.632   5.425  0.8038  0.5017 -0.2477
  358TIP3    H222566   3.764   0.533   5.316  1.7781  0.0617 -0.1542
  359TIP3   OH222567   0.664   1.693   3.030  0.4989 -0.0036 -0.6433
  359TIP3    H122568   0.729   1.674   2.963  0.0083 -0.6565 -0.9364
  359TIP3    H222569   0.591   1.635   3.011  0.0143  0.3886 -0.0359
  360TIP3   OH222570   4.507   0.822  14.337 -0.2596 -0.0972 -0.0625
  360TIP3    H122571   4.430   0.815  14.393 -0.2312  0.0345 -0.0081
  360TIP3    H222572   4.535   0.913  14.344 -0.7094  0.1122 -0.8907
  361TIP3   OH222573   3.129   4.441  16.543  0.2042 -0.5079 -0.1147
  361TIP3    H122574   3.139   4.491  16.462 -0.6182  1.2197  0.7953
  361TIP3    H222575   3.218   4.428  16.575  0.4168  0.7916 -0.1474
  362TIP3   OH222576   3.211   1.206  11.575  0.1704  0.0396 -0.2043
  362TIP3    H122577   3.194   1.297  11.550  0.1368 -0.3992 -1.9252
  362TIP3    H222578   3.159   1.192  11.654 -0.0073  1.4404 -0.0509
  363TIP3   OH222579   6.547   0.663  14.868  0.0825 -0.3011 -0.4147
  363TIP3    H122580   6.622   0.622  14.824  1.0441  0.8565  0.0884
  363TIP3    H222581   6.567   0.655  14.961  0.3658  1.3866 -0.3084
  364TIP3   OH222582   2.216   4.587  15.503  0.0802 -0.1017 -0.7592
  364TIP3    H122583   2.226   4.679  15.482 -1.2080  0.7321  1.9033
  364TIP3    H222584   2.148   4.555  15.443 -1.0578  1.2667 -0.2342
  365TIP3   OH222585   5.274   6.268  15.580  0.6061  0.2756  0.2372
  365TIP3    H122586   5.366   6.288  15.562  0.7690 -0.3049  0.3765
  365TIP3    H222587   5.271   6.172  15.583  0.0761  0.3008  0.6434
  366TIP3   OH222588   1.572   4.378   1.528 -0.0723  0.1095  0.1089
  366TIP3    H122589   1.517   4.346   1.599 -1.3698 -0.0828 -0.9413
  366TIP3    H222590   1.627   4.445   1.569 -1.0375  0.2615  1.2196
  367TIP3   OH222591   0.508   3.963  16.710 -0.1735 -0.4254  0.0464
  367TIP3    H122592   0.426   4.008  16.686  0.4129 -0.2573 -1.7757
  367TIP3    H222593   0.571   3.990  16.643  1.0558 -1.5158  0.7159
  368TIP3   OH222594   2.991   5.372   5.991 -0.2100  0.0578  0.2591
  368TIP3    H122595   3.031   5.437   5.934  1.1541 -0.0906  1.0112
  368TIP3    H222596   2.921   5.333   5.938  0.7808  0.1810 -1.1697
  369TIP3   OH222597   2.383   2.969  14.677  0.2402  0.2246 -0.0761
  369TIP3    H122598   2.427   3.047  14.642 -0.6097  0.6113 -0.3039
  369TIP3    H222599   2.409   2.967  14.769 -1.4802  2.0844  0.5323
  370TIP3   OH222600   3.264   4.414  14.615 -0.4869 -0.1553  0.3118
  370TIP3    H122601   3.300   4.443  14.699  0.3959  0.6073 -0.3054
  370TIP3    H222602   3.191   4.473  14.598  1.0429  1.5236 -0.7404
  371TIP3   OH222603   5.134   0.308   2.479 -0.3058 -0.8005 -0.3343
  371TIP3    H122604   5.160   0.230   2.529 -1.6172 -1.5067 -0.7244
  371TIP3    H222605   5.213   0.332   2.431  0.4335 -1.2324  0.6260
  372TIP3   OH222606   2.236   5.503   0.580  0.0959  0.0750  0.2107
  372TIP3    H122607   2.317   5.551   0.595 -0.2675  0.6091  0.5153
  372TIP3    H222608   2.198   5.492   0.668 -0.6529  0.7181 -0.0225
  373TIP3   OH222609   3.663   0.974   4.377 -0.4995  0.2108 -0.1890
  373TIP3    H122610   3.704   0.891   4.403  0.5157  0.4217 -1.0371
  373TIP3    H222611   3.600   0.992   4.446  1.6486  0.4691  1.8348
  374TIP3   OH222612   5.329   4.469   1.739  0.8658  0.5895 -0.2085
  374TIP3    H122613   5.359   4.527   1.808  0.5927  0.4996 -0.0105
  374TIP3    H222614   5.248   4.432   1.773  1.4610 -0.5390  0.0077
  375TIP3   OH222615   5.363   1.703   5.829 -0.0442 -0.5790 -0.3458
  375TIP3    H122616   5.449   1.745   5.824 -0.2234 -0.1774 -0.1459
  375TIP3    H222617   5.365   1.637   5.761 -0.4584  1.0873 -2.0648
  376TIP3   OH222618   2.362   4.446   4.359 -0.1963 -0.6632 -0.3425
  376TIP3    H122619   2.278   4.459   4.315  0.4263 -1.2450 -1.7906
  376TIP3    H222620   2.402   4.373   4.312  1.6445  0.3937 -0.5307
  377TIP3   OH222621   5.767   1.273   3.122  0.8090 -0.1062  0.5383
  377TIP3    H122622   5.843   1.278   3.064  1.0440  1.0756  0.9167
  377TIP3    H222623   5.785   1.199   3.179  0.6642 -1.1776 -0.7473
  378TIP3   OH222624   5.907   6.611   0.999 -0.2114 -0.4325  0.4340
  378TIP3    H122625   5.913   6.587   1.091  0.1165  2.8535  1.3998
  378TIP3    H222626   5.930   6.704   0.997 -1.4031 -0.0822 -2.8085
  379TIP3   OH222627   0.470   5.055   4.960  0.0271 -0.3390 -0.2338
  379TIP3    H122628   0.561   5.029   4.973 -0.2015 -0.5884  1.0480
  379TIP3    H222629   0.422   5.008   5.029 -0.8691  0.8873  0.0069
  380TIP3   OH222630   3.840   2.367  14.356 -0.5725 -0.0949 -0.1147
  380TIP3    H122631   3.791   2.308  14.299  0.2834 -0.2909 -0.6681
  380TIP3    H222632   3.871   2.437  14.297  1.0375 -0.7438 -0.0889
  381TIP3   OH222633   2.800   0.778  13.400  0.4078  0.0551 -0.3419
  381TIP3    H122634   2.711   0.744  13.404  1.2691 -2.3345  0.0316
  381TIP3    H222635   2.834   0.768  13.489  1.4942 -0.3447 -0.7879
  382TIP3   OH222636   2.112   5.644  11.720  0.0513 -0.0820 -0.4771
  382TIP3    H122637   2.093   5.729  11.760  1.1466 -0.2404  0.4132
  382TIP3    H222638   2.143   5.665  11.632  4.1715  0.8147  0.9872
  383TIP3   OH222639   2.174   2.577   0.538 -0.3531 -0.7222  0.6147
  383TIP3    H122640   2.241   2.582   0.606 -0.3849  0.4597  0.5806
  383TIP3    H222641   2.202   2.641   0.473 -0.1371 -2.0711 -0.6815
  384TIP3   OH222642   2.628   4.913   2.858  0.0102  0.1650  0.1158
  384TIP3    H122643   2.632   4.876   2.770  0.3273  1.2438 -0.3429
  384TIP3    H222644   2.715   4.952   2.873 -0.4473  1.1470  0.3623
  385TIP3   OH222645   1.884   6.619  16.038 -0.2433 -0.3996  1.2226
  385TIP3    H122646   1.836   6.590  15.960  0.9068 -0.3223  0.4627
  385TIP3    H222647   1.960   6.665  16.003  0.8633 -1.2848  2.3743
  386TIP3   OH222648   4.306   5.657  12.861  0.2709 -0.1227 -0.2000
  386TIP3    H122649   4.363   5.624  12.931 -0.2714 -2.4654 -0.7687
  386TIP3    H222650   4.246   5.716  12.906  0.4865 -0.8936  1.1849
  387TIP3   OH222651   5.407   1.739  16.928 -0.4783  0.3196  0.6603
  387TIP3    H122652   5.376   1.791  17.002 -0.4162 -1.4585  2.0002
  387TIP3    H222653   5.466   1.674  16.968 -0.7701 -0.9470 -0.8812
  388TIP3   OH222654   5.107   0.757  12.318 -0.5761  0.0325  0.3463
  388TIP3    H122655   5.040   0.700  12.281 -0.0464 -1.3471  1.4160
  388TIP3    H222656   5.150   0.703  12.384  1.0609  1.1462  0.2447
  389TIP3   OH222657   1.650   5.848  11.361  0.4693 -0.4962  0.9785
  389TIP3    H122658   1.700   5.768  11.344  0.0874 -0.8979  1.7245
  389TIP3    H222659   1.581   5.847  11.295  0.2845 -0.9433  1.1729
  390TIP3   OH222660   3.778   4.421  14.730  0.2190  0.4605  0.3253
  390TIP3    H122661   3.730   4.503  14.721  0.1662  0.4854  0.8128
  390TIP3    H222662   3.768   4.378  14.645  2.2377  2.0262 -0.8094
  391TIP3   OH222663   6.104   5.876   4.896 -0.0062  0.4793 -0.3033
  391TIP3    H122664   6.098   5.899   4.989  1.0926 -0.4053 -0.0019
  391TIP3    H222665   6.017   5.896   4.862 -0.5583  0.4494  0.9989
  392TIP3   OH222666   5.184   6.186   3.631 -0.3020 -0.3416 -0.3916
  392TIP3    H122667   5.175   6.281   3.624  1.4611 -0.1521 -0.6013
  392TIP3    H222668   5.119   6.151   3.571 -2.4532  0.6489  1.2558
  393TIP3   OH222669   6.068   5.058   5.496  0.0298  0.1277  0.7104
  393TIP3    H122670   6.006   5.054   5.569  0.1439  0.7781  0.8494
  393TIP3    H222671   6.039   5.134   5.445 -0.0925 -0.3618  0.0366
  394TIP3   OH222672   4.778   3.306   5.610  0.3238  0.3436  0.1175
  394TIP3    H122673   4.801   3.221   5.648  1.9010  0.3710 -0.7005
  394TIP3    H222674   4.708   3.338   5.666 -0.0440 -1.3170  0.6804
  395TIP3   OH222675   6.650   6.116   2.216 -0.0381 -0.2183  0.2526
  395TIP3    H122676   6.709   6.120   2.141  1.4826  0.1178  1.4139
  395TIP3    H222677   6.615   6.205   2.224 -0.4568 -0.3353 -0.2426
  396TIP3   OH222678   5.600   1.579   0.571  0.0660 -0.2561 -0.2009
  396TIP3    H122679   5.544   1.518   0.619  0.7621 -0.2993  0.5794
  396TIP3    H222680   5.619   1.649   0.634  1.6775 -0.7329 -0.1163
  397TIP3   OH222681   4.029   3.907  14.822 -0.7156  0.1290 -0.6758
  397TIP3    H122682   4.027   3.999  14.846  0.9249  0.6347 -2.2318
  397TIP3    H222683   4.121   3.890  14.801 -0.6906 -2.2637  0.9298
  398TIP3   OH222684   1.078   2.732   2.412 -0.6272  0.0950  0.4726
  398TIP3    H122685   0.984   2.733   2.395 -0.2712 -1.7110 -2.4071
  398TIP3    H222686   1.111   2.658   2.359  2.1102 -0.8794  3.2291
  399TIP3   OH222687   0.024   5.835   2.821  0.5503  0.0274 -0.4601
  399TIP3    H122688   0.069   5.841   2.905 -0.5732 -0.0633  0.1653
  399TIP3    H222689  -0.058   5.882   2.834  0.3235 -0.0659 -1.4812
  400TIP3   OH222690   0.374   1.369   0.693  0.3545  0.3554 -0.0023
  400TIP3    H122691   0.417   1.383   0.608 -2.6211 -1.1292 -1.9109
  400TIP3    H222692   0.333   1.453   0.713 -1.0160  0.0691 -1.3887
  401TIP3   OH222693   6.487   3.158   4.526 -0.1274 -0.3746  0.7774
  401TIP3    H122694   6.504   3.067   4.549 -0.5529 -0.7433 -0.2859
  401TIP3    H222695   6.402   3.177   4.565 -1.1609 -1.2029 -0.9446
  402TIP3   OH222696   2.830   0.456   0.766 -0.3193  0.6963  0.1821
  402TIP3    H122697   2.752   0.402   0.781 -0.4192  0.6367 -0.5322
  402TIP3    H222698   2.799   0.546   0.777 -0.6728  0.7130 -0.8340
  403TIP3   OH222699   5.755   6.212   3.636  0.1773  0.6607 -0.1903
  403TIP3    H122700   5.742   6.229   3.543 -1.3831  1.0211  0.0632
  403TIP3    H222701   5.667   6.192   3.669  0.8233 -0.2447  1.0534
  404TIP3   OH222702   2.125   5.190   1.621  0.2133 -0.1712  0.1971
  404TIP3    H122703   2.127   5.239   1.704  2.3832 -0.2062  0.2133
  404TIP3    H222704   2.032   5.190   1.596 -0.0452  3.2349  0.6352
  405TIP3   OH222705   4.697   4.975  16.281 -0.0452 -0.2004 -0.2234
  405TIP3    H122706   4.660   5.063  16.277  0.0083 -0.0743  1.2143
  405TIP3    H222707   4.642   4.929  16.344  1.3948 -0.3947  0.9780
  406TIP3   OH222708   1.851   3.972  16.781  0.6459 -0.0325  1.2359
  406TIP3    H122709   1.824   4.035  16.848  0.4244  0.4996  0.6631
  406TIP3    H222710   1.782   3.906  16.781 -0.6871  1.2642 -0.1435
  407TIP3   OH222711   4.721   0.617  13.219 -0.5761  0.4207 -0.8835
  407TIP3    H122712   4.710   0.526  13.246 -1.2827  0.1492 -2.0157
  407TIP3    H222713   4.720   0.666  13.300  0.9532 -0.6762 -0.1552
  408TIP3   OH222714   3.858   4.484   3.007 -0.1143  0.1407 -0.1505
  408TIP3    H122715   3.950   4.479   3.033  0.1234 -0.0559 -0.9903
  408TIP3    H222716   3.861   4.522   2.919 -0.7052 -1.4573 -0.9020
  409TIP3   OH222717   5.814   0.876  15.865  0.3683 -0.3210 -0.2778
  409TIP3    H122718   5.884   0.910  15.809  1.3289 -1.8104 -0.0515
  409TIP3    H222719   5.841   0.786  15.884  0.0313  0.0679  2.4783
  410TIP3   OH222720   0.794   6.777   0.926 -0.1305  0.1028 -0.6935
  410TIP3    H122721   0.818   6.686   0.942  0.4211  0.2599 -0.6110
  410TIP3    H222722   0.699   6.779   0.938 -0.2114 -0.5549 -1.1627
  411TIP3   OH222723   0.309   1.591  12.406  0.2362  0.0321 -0.7221
  411TIP3    H122724   0.230   1.550  12.441 -1.0364  2.2727 -0.8365
  411TIP3    H222725   0.379   1.527  12.424 -1.6555 -2.3103 -1.2290
  412TIP3   OH222726   1.677   5.099   4.421 -0.5661 -0.1787  0.0479
  412TIP3    H122727   1.743   5.030   4.423 -0.8179 -0.3989  1.1176
  412TIP3    H222728   1.723   5.179   4.447 -0.7740 -0.3943  1.1277
  413TIP3   OH222729   1.045   6.576   5.483 -0.0291 -1.4046 -0.0497
  413TIP3    H122730   1.058   6.668   5.460  0.0822 -1.0714  1.2795
  413TIP3    H222731   0.954   6.558   5.460  0.7493 -1.8834 -3.2383
  414TIP3   OH222732   5.579   3.184  11.062 -0.1578 -0.3138  0.8176
  414TIP3    H122733   5.590   3.272  11.099  0.6960  0.6300 -1.4812
  414TIP3    H222734   5.484   3.174  11.053 -0.2247  1.5114 -1.2602
  415TIP3   OH222735   2.208   2.637  14.587  0.2018 -0.0220 -0.0979
  415TIP3    H122736   2.191   2.694  14.513 -2.7932 -0.3623  0.2019
  415TIP3    H222737   2.216   2.696  14.662 -1.9426  0.1508  0.0603
  416TIP3   OH222738   2.473   5.695   5.688  0.6309 -0.3893  0.0848
  416TIP3    H122739   2.386   5.695   5.649  1.1362 -1.4327 -1.1282
  416TIP3    H222740   2.458   5.688   5.782 -0.5895  0.1475 -0.0566
  417TIP3   OH222741   4.319   4.431   0.294  0.4480 -0.6052 -0.4517
  417TIP3    H122742   4.318   4.507   0.236  0.3630 -0.1420  0.1434
  417TIP3    H222743   4.230   4.426   0.329  1.0167  0.4222  1.2730
  418TIP3   OH222744   2.584   0.997   5.477 -0.6439 -0.7802 -0.4536
  418TIP3    H122745   2.653   1.007   5.411 -0.1243 -0.9377  0.0643
  418TIP3    H222746   2.627   0.954   5.551 -1.3741 -1.1687 -0.2499
  419TIP3   OH222747   3.401   6.339  12.485 -0.3713 -0.2171  0.2460
  419TIP3    H122748   3.493   6.340  12.510  0.4024 -0.1134 -2.3153
  419TIP3    H222749   3.402   6.345  12.389 -2.8488 -4.4654 -0.3304
  420TIP3   OH222750   5.508   1.278  15.135  0.5348  0.5119 -0.0157
  420TIP3    H122751   5.446   1.332  15.086  0.4137  1.1194  0.7701
  420TIP3    H222752   5.574   1.253  15.071  2.0873  3.8601  0.0797
  421TIP3   OH222753   0.865   3.066  15.668 -0.3241  0.4341  0.3445
  421TIP3    H122754   0.812   3.002  15.620 -1.4090 -0.1848  2.2542
  421TIP3    H222755   0.822   3.150  15.650 -1.1615  0.1138  0.7541
  422TIP3   OH222756   1.289   3.691  15.656 -0.3280 -0.1024 -0.4467
  422TIP3    H122757   1.302   3.699  15.751 -1.5265 -1.8176 -0.0875
  422TIP3    H222758   1.253   3.776  15.630 -4.8719 -1.0366  1.6279
  423TIP3   OH222759   5.257   5.910  10.405  0.0690  0.1056 -0.0431
  423TIP3    H122760   5.201   5.972  10.453 -1.8884 -0.4807 -1.4583
  423TIP3    H222761   5.304   5.965  10.342  1.7728  0.7103  1.6429
  424TIP3   OH222762   3.419   2.418   1.315 -0.3121 -0.3831 -0.1049
  424TIP3    H122763   3.446   2.346   1.258  2.4718 -0.5872  1.3206
  424TIP3    H222764   3.393   2.487   1.254  0.0551 -1.4715 -1.5737
  425TIP3   OH222765   2.063   2.985  11.560 -0.4382  0.3976  0.6075
  425TIP3    H122766   1.977   2.942  11.559 -0.5338  0.5847  0.4106
  425TIP3    H222767   2.043   3.076  11.536 -0.2949  0.6503  1.4085
  426TIP3   OH222768   4.160   6.752  16.027  0.2129 -0.0603  0.4802
  426TIP3    H122769   4.148   6.843  16.056  0.8758  0.0380  0.4655
  426TIP3    H222770   4.240   6.724  16.071 -0.6504 -1.0530  1.4597
  427TIP3   OH222771   2.362   6.566  16.357  0.0577 -0.1337  0.4011
  427TIP3    H122772   2.426   6.559  16.428 -0.1410  1.8013  0.8108
  427TIP3    H222773   2.316   6.648  16.373  0.4476  0.7188 -2.3233
  428TIP3   OH222774   6.420   2.750   5.444  0.4861 -0.4324  0.3901
  428TIP3    H122775   6.458   2.817   5.387  0.3397 -0.3051  0.4404
  428TIP3    H222776   6.367   2.800   5.506  1.4710 -0.4801  1.3017
  429TIP3   OH222777   3.651   3.060   5.791  0.2424  0.8153 -0.0942
  429TIP3    H122778   3.653   3.014   5.707 -2.5164  2.1213 -1.0127
  429TIP3    H222779   3.704   3.138   5.777  1.2676  0.1492  0.0001
  430TIP3   OH222780   4.392   2.632  11.960 -1.0091 -0.3737  0.3524
  430TIP3    H122781   4.417   2.561  12.019 -1.8995 -0.5014  0.5758
  430TIP3    H222782   4.455   2.625  11.887 -0.9723 -1.2745  0.4597
  431TIP3   OH222783   6.298   0.489   6.397  0.5267 -0.4595  0.1609
  431TIP3    H122784   6.377   0.542   6.408  0.3101 -0.3111  1.0151
  431TIP3    H222785   6.226   0.552   6.394  0.1499 -0.7170  2.2907
  432TIP3   OH222786   1.852   1.818   5.168  0.0267 -0.2044 -0.4198
  432TIP3    H122787   1.788   1.851   5.105 -1.5828 -1.1163  0.6645
  432TIP3    H222788   1.865   1.726   5.143  3.3975  0.6574 -2.5557
  433TIP3   OH222789   1.992   1.483   1.827  0.2855  0.0149 -0.0788
  433TIP3    H122790   1.923   1.424   1.797 -0.1554  0.5843 -0.2073
  433TIP3    H222791   2.012   1.537   1.750 -0.0790  0.7512  0.3293
  434TIP3   OH222792   4.643   2.062  12.138 -0.1825  0.1918 -0.0575
  434TIP3    H122793   4.640   2.134  12.075  2.1125 -0.5342 -1.1096
  434TIP3    H222794   4.551   2.045  12.159 -0.8443  2.8880 -0.3366
  435TIP3   OH222795   2.051   3.419  12.710  0.3313 -0.3635 -0.3558
  435TIP3    H122796   2.139   3.427  12.673 -0.2115 -0.8392 -1.8428
  435TIP3    H222797   2.004   3.495  12.677 -0.0290 -0.5132 -0.1919
  436TIP3   OH222798   5.734   1.790  16.342 -0.3195  0.0174  0.2616
  436TIP3    H122799   5.804   1.728  16.364  0.6249  0.4799 -1.2940
  436TIP3    H222800   5.679   1.793  16.420  0.7053 -1.3042  1.0665
  437TIP3   OH222801   6.560   1.507  15.013  0.1828 -0.0852  0.0794
  437TIP3    H122802   6.626   1.574  15.032 -0.1190  0.0686  0.5886
  437TIP3    H222803   6.602   1.451  14.947 -0.5379  2.1752 -2.4642
  438TIP3   OH222804   3.470   3.413   4.121 -0.5432  0.1719  0.0524
  438TIP3    H122805   3.546   3.447   4.074 -0.0642  0.8312  1.2595
  438TIP3    H222806   3.482   3.442   4.212 -2.7567  1.1762  0.0968
  439TIP3   OH222807   4.004   5.257   3.277  0.4592 -0.4243  0.3792
  439TIP3    H122808   4.019   5.309   3.198 -1.3796 -2.2384 -1.2752
  439TIP3    H222809   3.997   5.322   3.348  1.1746  1.3199 -1.0638
  440TIP3   OH222810   6.279   4.765  16.189 -1.0018 -0.4340 -0.1738
  440TIP3    H122811   6.322   4.810  16.116  0.9420 -2.0036 -0.0809
  440TIP3    H222812   6.294   4.672  16.172  0.1786 -0.8363  2.5986
  441TIP3   OH222813   5.059   4.348   6.137 -0.2521  0.7992 -0.9000
  441TIP3    H122814   5.054   4.255   6.116  4.0751  0.1735 -0.0872
  441TIP3    H222815   5.019   4.356   6.223  0.2357 -0.5171 -0.5422
  442TIP3   OH222816   2.088   4.538   4.056 -0.2622 -0.4272 -0.0188
  442TIP3    H122817   2.155   4.494   4.004  0.2523 -0.2239  0.4674
  442TIP3    H222818   2.065   4.474   4.124  0.4173 -0.0004  0.6303
  443TIP3   OH222819   0.741   6.826   2.681 -0.1627  0.1629  0.2712
  443TIP3    H122820   0.661   6.855   2.724 -0.3822 -0.0394  0.0061
  443TIP3    H222821   0.809   6.834   2.748 -0.5252 -0.3100  0.7053
  444TIP3   OH222822   0.881   0.743  11.066 -0.5688  0.0782 -0.3442
  444TIP3    H122823   0.892   0.686  10.990 -2.6454  1.5958 -1.9084
  444TIP3    H222824   0.831   0.818  11.033 -0.2668  1.5323  2.2075
  445TIP3   OH222825   5.914   6.826   1.876 -0.1014  0.1278 -0.1071
  445TIP3    H122826   5.938   6.884   1.947 -1.7603  0.0554  0.5437
  445TIP3    H222827   5.979   6.843   1.808  1.7722 -0.0819  1.5294
  446TIP3   OH222828   4.849   3.208  10.620  0.3781  0.5087 -0.1701
  446TIP3    H122829   4.792   3.149  10.571  0.6387 -0.3548  0.5640
  446TIP3    H222830   4.811   3.295  10.605 -0.7100  0.0270 -0.2645
  447TIP3   OH222831   2.446   4.323  15.291 -0.0230  0.1832  0.4910
  447TIP3    H122832   2.531   4.360  15.310 -0.2319  0.1298  1.5609
  447TIP3    H222833   2.391   4.398  15.268 -0.0162  0.3591  1.0430
  448TIP3   OH222834   2.745   2.844   4.395  0.5060 -0.1592  0.4364
  448TIP3    H122835   2.663   2.891   4.411  0.4152 -0.6584  1.5928
  448TIP3    H222836   2.758   2.848   4.300 -0.2889  0.8553  0.3583
  449TIP3   OH222837   2.081   0.202   1.637 -0.3836  0.2112  0.1753
  449TIP3    H122838   2.008   0.258   1.664 -2.6500 -2.1840 -0.4658
  449TIP3    H222839   2.041   0.138   1.577  2.4446 -0.7501 -0.8669
  450TIP3   OH222840   0.467   0.849   4.164  0.3252 -0.2974 -0.5832
  450TIP3    H122841   0.556   0.820   4.183 -0.0206 -0.5428  0.7073
  450TIP3    H222842   0.445   0.806   4.081  1.3040 -0.4335 -0.7845
  451TIP3   OH222843   0.351   4.436  17.208 -0.0841  0.1143 -0.1773
  451TIP3    H122844   0.415   4.437  17.279  0.4346  1.3839 -0.6308
  451TIP3    H222845   0.385   4.372  17.146 -0.0985 -0.3787  0.3149
  452TIP3   OH222846   0.215   5.648  11.434  0.5459  0.2312  0.2347
  452TIP3    H122847   0.141   5.663  11.492  0.0192 -0.7321 -0.1550
  452TIP3    H222848   0.265   5.578  11.476  0.0197 -0.6563 -0.5779
  453TIP3   OH222849   5.121   0.066   2.161 -0.2268  0.0326  0.1778
  453TIP3    H122850   5.123   0.011   2.083 -3.1339  0.6216 -0.4218
  453TIP3    H222851   5.211   0.098   2.170  0.3965 -0.7595 -2.3831
  454TIP3   OH222852   2.537   5.288   5.609 -0.1153 -0.3774 -0.2223
  454TIP3    H122853   2.568   5.356   5.549  2.3500 -0.6913  0.5903
  454TIP3    H222854   2.594   5.213   5.592 -0.8345 -1.2449  0.9749
  455TIP3   OH222855   5.728   2.742   1.950 -0.0127 -0.1900  0.4339
  455TIP3    H122856   5.774   2.700   2.022  1.0279 -0.2460 -0.2505
  455TIP3    H222857   5.719   2.834   1.978  1.0987 -0.0280  0.3149
  456TIP3   OH222858   4.510   4.495  14.607 -0.0723  0.0067  0.1279
  456TIP3    H122859   4.593   4.543  14.597 -0.3386  0.1618 -1.7037
  456TIP3    H222860   4.494   4.457  14.521  0.8626 -4.7482  1.7554
  457TIP3   OH222861   0.641   1.183  16.579 -0.3909  0.3377 -0.1943
  457TIP3    H122862   0.600   1.237  16.511  0.9068  0.0919 -1.2053
  457TIP3    H222863   0.733   1.181  16.556 -0.1961 -1.1877  0.6177
  458TIP3   OH222864   3.116   0.421  15.219  0.1755  0.0366 -0.9951
  458TIP3    H122865   3.201   0.456  15.243  0.0037 -0.9029  1.2692
  458TIP3    H222866   3.135   0.333  15.186  0.1129 -0.0144 -0.8952
  459TIP3   OH222867   1.531   2.209  10.933 -0.1411 -0.7550 -0.1905
  459TIP3    H122868   1.514   2.220  10.839  1.6963 -0.0795 -0.4981
  459TIP3    H222869   1.501   2.291  10.972 -0.1266 -0.6841 -0.3263
  460TIP3   OH222870   6.196   0.603   6.124 -0.1348 -0.0387 -0.7913
  460TIP3    H122871   6.114   0.555   6.125  0.3268 -0.8567  0.9771
  460TIP3    H222872   6.201   0.646   6.209  1.9497 -1.2399 -0.2258
  461TIP3   OH222873   2.198   4.194   2.680 -0.2208 -0.1689  0.5125
  461TIP3    H122874   2.139   4.269   2.671 -1.8784 -1.5683 -1.0393
  461TIP3    H222875   2.286   4.232   2.672 -0.9348  1.7709  1.2350
  462TIP3   OH222876   3.171   0.971  13.531 -0.6885  0.6127  0.2599
  462TIP3    H122877   3.088   0.992  13.574 -1.7647 -0.8725 -0.9935
  462TIP3    H222878   3.161   1.008  13.443 -0.2726 -0.1028 -0.0921
  463TIP3   OH222879   6.772   4.910  13.726  0.3196 -0.0196 -0.2989
  463TIP3    H122880   6.819   4.935  13.646  0.8374 -1.3849 -0.4638
  463TIP3    H222881   6.730   4.990  13.756 -0.9033  0.2879 -2.6057
  464TIP3   OH222882   2.622   2.044  15.302 -0.8731  0.4592 -0.1855
  464TIP3    H122883   2.563   1.974  15.274  1.2632 -2.1900  1.4305
  464TIP3    H222884   2.625   2.104  15.228 -3.4337 -0.7011 -1.3534
  465TIP3   OH222885   5.657   1.675   0.910  0.0051  0.4152 -0.2661
  465TIP3    H122886   5.561   1.671   0.914 -0.0108  0.4379 -0.5750
  465TIP3    H222887   5.675   1.729   0.832  0.2962 -2.7593 -2.5973
  466TIP3   OH222888   5.705   4.778  12.652  0.5018 -0.3725 -0.1837
  466TIP3    H122889   5.651   4.847  12.613 -1.1698 -0.8727  1.1377
  466TIP3    H222890   5.778   4.767  12.591 -0.6908  0.6003 -1.8470
  467TIP3   OH222891   6.679   2.809   1.021  0.1126  0.1837 -0.5350
  467TIP3    H122892   6.584   2.800   1.011  0.1278 -0.7563  0.0749
  467TIP3    H222893   6.713   2.802   0.932 -0.2568 -1.4020 -0.5772
  468TIP3   OH222894   3.632   3.885   0.221 -0.5408 -0.6759  0.8653
  468TIP3    H122895   3.676   3.870   0.304  0.3216  0.6333  0.6820
  468TIP3    H222896   3.595   3.800   0.197  2.0012 -1.8847  0.9736
  469TIP3   OH222897   3.898   3.051   2.533 -0.2272 -0.2522  0.1641
  469TIP3    H122898   3.854   3.053   2.618 -1.6378 -0.3882 -0.5268
  469TIP3    H222899   3.881   2.963   2.499 -2.1498  0.6411 -1.4401
  470TIP3   OH222900   0.659   5.926  17.014  0.4986 -0.0289 -0.0090
  470TIP3    H122901   0.735   5.880  17.050  1.0718  0.8006 -0.1344
  470TIP3    H222902   0.695   5.986  16.949 -0.3809 -0.4233 -0.8942
  471TIP3   OH222903   3.225   4.632   2.840 -0.2586 -0.0069  0.2365
  471TIP3    H122904   3.216   4.624   2.745 -0.0851 -0.0739  0.2256
  471TIP3    H222905   3.142   4.671   2.868 -0.8131 -1.1409  0.2112
  472TIP3   OH222906   0.547   0.133  13.818  0.0498 -0.2399  0.1463
  472TIP3    H122907   0.610   0.087  13.873  1.5325 -0.3058 -1.5237
  472TIP3    H222908   0.577   0.224  13.818  1.9902 -0.7431 -2.9311
  473TIP3   OH222909   2.524   3.875  15.522  0.2606 -0.3244 -0.3036
  473TIP3    H122910   2.476   3.934  15.580 -0.7105 -0.1221 -1.2824
  473TIP3    H222911   2.615   3.879  15.553 -0.0947  0.3920  0.6817
  474TIP3   OH222912   5.746   2.336   0.323  0.1398 -0.2358  0.0334
  474TIP3    H122913   5.832   2.358   0.288 -0.4453  2.2251  0.0169
  474TIP3    H222914   5.684   2.364   0.256 -0.7460 -1.4268  0.3008
  475TIP3   OH222915   3.527   2.200   2.521 -0.6308  0.3665 -0.0142
  475TIP3    H122916   3.609   2.216   2.475 -0.5449  2.5440  0.7696
  475TIP3    H222917   3.461   2.191   2.452 -0.0008  0.2910 -0.6062
  476TIP3   OH222918   0.410   2.024   3.696 -0.2677 -0.9879  0.0922
  476TIP3    H122919   0.397   1.943   3.746  1.2547 -0.1759  1.8890
  476TIP3    H222920   0.343   2.020   3.627 -0.3600 -3.6601  0.2423
  477TIP3   OH222921   2.323   4.990   3.155  0.0889  0.1215  0.0070
  477TIP3    H122922   2.366   4.935   3.221  0.4471 -2.0569 -1.9079
  477TIP3    H222923   2.230   4.985   3.176 -0.2650 -3.7362 -1.6923
  478TIP3   OH222924   1.559   2.487   3.630  0.1734  0.6169 -0.2997
  478TIP3    H122925   1.592   2.493   3.719 -1.8324  1.3215  0.4482
  478TIP3    H222926   1.624   2.433   3.584  1.6095  0.8320  1.3711
  479TIP3   OH222927   2.718   2.160   1.238  0.7348  0.4616 -0.1564
  479TIP3    H122928   2.630   2.121   1.242  0.9287  0.0903  1.2835
  479TIP3    H222929   2.703   2.251   1.213  0.1563 -0.1347 -2.2006
  480TIP3   OH222930   5.527   4.621  12.824  0.0111  0.3321  0.3085
  480TIP3    H122931   5.586   4.666  12.763  2.0933 -1.3094  0.9828
  480TIP3    H222932   5.446   4.609  12.774  1.0319  0.5855 -1.5286
  481TIP3   OH222933   3.819   0.753  16.875  0.1727  0.9033 -0.4612
  481TIP3    H122934   3.777   0.764  16.961 -0.8162  0.4213 -0.8640
  481TIP3    H222935   3.817   0.839  16.835 -0.6345  0.8418 -0.5589
  482TIP3   OH222936   3.182   6.747   4.424 -0.1092 -1.0935  0.1574
  482TIP3    H122937   3.177   6.656   4.396  1.5975 -0.5180 -2.4350
  482TIP3    H222938   3.265   6.753   4.471 -0.4811 -0.9655  0.8102
  483TIP3   OH222939   2.630   4.938   4.724  0.3710 -0.0938 -0.0523
  483TIP3    H122940   2.606   5.030   4.710 -0.0919 -0.2051 -0.0199
  483TIP3    H222941   2.725   4.937   4.717  0.2535  0.0103 -2.3134
  484TIP3   OH222942   3.886   4.749   5.601  0.2858 -0.3079 -0.9756
  484TIP3    H122943   3.807   4.727   5.553 -1.0607  2.2521 -0.1162
  484TIP3    H222944   3.862   4.825   5.654  4.0090  2.3455 -2.6610
  485TIP3   OH222945   4.285   2.262  13.879 -0.0876 -0.5004 -0.0685
  485TIP3    H122946   4.204   2.310  13.900  0.2259 -0.2755  0.6482
  485TIP3    H222947   4.297   2.277  13.785 -1.0513 -0.8080 -0.2582
  486TIP3   OH222948   6.163   3.878   1.857 -0.4321 -1.0692  0.0835
  486TIP3    H122949   6.222   3.833   1.917  1.7226  0.6810 -0.5790
  486TIP3    H222950   6.207   3.872   1.772 -0.1830  1.8472 -0.0910
  487TIP3   OH222951   5.786   2.088  16.496  0.2028  0.2507 -0.7225
  487TIP3    H122952   5.817   2.142  16.423  0.9522 -0.5977 -1.0421
  487TIP3    H222953   5.853   2.022  16.508  1.1064  1.5380  2.0819
  488TIP3   OH222954   3.521   2.754  16.045  0.1500  0.3490 -0.8404
  488TIP3    H122955   3.510   2.807  16.125 -0.4263 -0.3662 -0.4370
  488TIP3    H222956   3.583   2.685  16.070 -0.7781 -0.4517 -0.7167
  489TIP3   OH222957   5.996   0.290  12.961  0.4326 -0.0077  0.1841
  489TIP3    H122958   5.969   0.357  12.898  2.9682  0.3476 -0.6312
  489TIP3    H222959   5.948   0.211  12.934  0.2166  0.5570 -1.1708
  490TIP3   OH222960   4.692   4.968  14.907  0.2783 -0.1503 -0.0919
  490TIP3    H122961   4.615   5.019  14.882  1.0815  1.6083  0.8081
  490TIP3    H222962   4.740   4.955  14.826  0.3202  1.0360 -0.2764
  491TIP3   OH222963   1.505   4.695   5.861  0.4005 -0.1619  0.6242
  491TIP3    H122964   1.478   4.716   5.951 -0.1307  0.4103  0.3401
  491TIP3    H222965   1.571   4.626   5.871 -0.3041 -0.7353  1.4027
  492TIP3   OH222966   0.052   5.867   0.197  0.3520 -0.4679 -0.2407
  492TIP3    H122967   0.113   5.939   0.180 -1.9457  1.6015 -0.3932
  492TIP3    H222968  -0.000   5.860   0.117 -0.2448 -1.5036  0.2181
  493TIP3   OH222969   4.617   0.393   5.501 -0.1728  0.1656 -0.2855
  493TIP3    H122970   4.673   0.423   5.573 -1.2885  0.2241  0.6036
  493TIP3    H222971   4.578   0.312   5.534 -0.1869 -0.1652 -1.1049
  494TIP3   OH222972   4.194   4.154   0.235  0.1316  0.1354  0.2609
  494TIP3    H122973   4.125   4.144   0.300 -0.1030  1.0929  0.1743
  494TIP3    H222974   4.265   4.197   0.282 -0.1696  1.1473 -0.1918
  495TIP3   OH222975   0.828   6.769  15.593  0.2361 -0.1667 -0.3880
  495TIP3    H122976   0.854   6.852  15.552  1.5961 -0.7466 -0.7489
  495TIP3    H222977   0.789   6.795  15.676 -0.5859  0.9086 -1.0810
  496TIP3   OH222978   5.874   1.250  12.995  0.1749  0.1688 -0.3205
  496TIP3    H122979   5.849   1.223  12.907  1.1886 -1.4874 -0.1480
  496TIP3    H222980   5.902   1.169  13.038  1.6753  1.2374  0.8512
  497TIP3   OH222981   5.474   3.772   1.916 -0.4408  0.1983 -0.3922
  497TIP3    H122982   5.482   3.701   1.979  1.8088 -0.3244 -1.1915
  497TIP3    H222983   5.516   3.847   1.958 -1.5922  0.7087 -0.1082
  498TIP3   OH222984   6.376   4.570  11.328  0.1271  0.4874 -0.0088
  498TIP3    H122985   6.332   4.495  11.367 -0.4919 -0.6159 -2.5987
  498TIP3    H222986   6.305   4.632  11.309  0.2880  0.6128 -0.1993
  499TIP3   OH222987   3.234   6.807   1.995  0.0450  0.9006  0.0151
  499TIP3    H122988   3.163   6.744   1.979 -0.2607  0.4425  2.6757
  499TIP3    H222989   3.306   6.776   1.941 -0.7051 -0.6852 -0.1349
  500TIP3   OH222990   4.410   3.070  15.238  0.2326  0.6482  0.3191
  500TIP3    H122991   4.359   3.048  15.160  0.5034  0.7629  0.1060
  500TIP3    H222992   4.478   3.003  15.241 -0.2189  0.2116  0.8771
  501TIP3   OH222993   3.939   5.309  12.588  0.5380  0.9015 -0.1977
  501TIP3    H122994   4.021   5.358  12.599 -0.4299  3.0965 -1.8875
  501TIP3    H222995   3.874   5.376  12.567 -1.1023 -1.0372 -1.6932
  502TIP3   OH222996   1.603   0.416   3.878 -0.1910 -0.5082 -0.5649
  502TIP3    H122997   1.639   0.488   3.826  1.0839  0.0462  1.0077
  502TIP3    H222998   1.667   0.345   3.869  2.8476  1.2114  4.0321
  503TIP3   OH222999   2.467   5.513  10.630  0.4981 -0.1872  0.3715
  503TIP3    H123000   2.484   5.453  10.703  0.2192 -2.2027 -1.1484
  503TIP3    H223001   2.533   5.491  10.564 -0.5461  0.1350 -0.8256
  504TIP3   OH223002   1.030   5.826   2.216  0.1266  0.1067 -0.3980
  504TIP3    H123003   1.084   5.780   2.151  0.9341  0.0317  0.2990
  504TIP3    H223004   1.069   5.801   2.300 -0.5373  0.6670  0.0832
  505TIP3   OH223005   6.363   5.538   1.864  0.6080  0.0921  0.0488
  505TIP3    H123006   6.315   5.619   1.884 -1.2882 -1.2650  1.2901
  505TIP3    H223007   6.296   5.471   1.860  1.8697 -1.1722 -2.9646
  506TIP3   OH223008   2.777   2.363   5.893  1.0674 -0.0774 -0.3005
  506TIP3    H123009   2.831   2.433   5.858  1.0178  0.5917  0.9084
  506TIP3    H223010   2.810   2.348   5.981  0.8606 -1.3586 -0.4159
  507TIP3   OH223011   2.764   1.172  14.906 -0.5372 -0.3541  0.9735
  507TIP3    H123012   2.777   1.086  14.947 -1.3937 -0.6878  0.5833
  507TIP3    H223013   2.750   1.151  14.813  0.7778  0.3364  0.6039
  508TIP3   OH223014   4.663   4.576  13.034  0.1847 -0.6759 -0.2751
  508TIP3    H123015   4.592   4.516  13.056 -1.1266  0.6725 -0.6475
  508TIP3    H223016   4.740   4.540  13.079 -0.6433 -2.3397 -0.1120
  509TIP3   OH223017   1.563   2.551   1.085 -0.1098  0.1079  0.0340
  509TIP3    H123018   1.543   2.550   0.991  0.5482 -0.5531 -0.1051
  509TIP3    H223019   1.478   2.543   1.128 -0.4138  0.4104 -0.5027
  510TIP3   OH223020   4.670   1.849  14.629 -0.5033  0.0199 -0.1148
  510TIP3    H123021   4.612   1.910  14.583  1.6182  0.9713 -1.7483
  510TIP3    H223022   4.698   1.896  14.707  2.3017  1.9886 -2.1012
  511TIP3   OH223023   5.095   0.972  13.329  0.3519 -0.3995  0.1431
  511TIP3    H123024   5.131   0.942  13.412  0.0158 -0.3958  0.2941
  511TIP3    H223025   5.165   0.959  13.265  0.5971 -0.4396  0.4204
  512TIP3   OH223026   2.543   6.286   5.096 -0.1322 -0.5110 -0.4349
  512TIP3    H123027   2.556   6.209   5.041 -0.3230 -0.2274 -0.8885
  512TIP3    H223028   2.470   6.333   5.056  0.3635  0.2140 -0.5277
  513TIP3   OH223029   6.215   1.053   6.271 -0.4366  0.6196 -1.6176
  513TIP3    H123030   6.171   1.106   6.338  0.3332  1.1228 -1.4901
  513TIP3    H223031   6.308   1.072   6.284 -0.2277  0.0795 -2.2990
  514TIP3   OH223032   4.246   1.314   5.819  0.2901  0.1789 -0.2871
  514TIP3    H123033   4.309   1.273   5.759 -0.4690  1.3756 -1.9670
  514TIP3    H223034   4.174   1.251   5.825  0.9162 -0.4881  0.3708
  515TIP3   OH223035   6.455   0.092   0.758  0.2248 -0.2554  0.3875
  515TIP3    H123036   6.382   0.087   0.696  0.7428  0.1266 -0.2720
  515TIP3    H223037   6.528   0.050   0.712  0.6720  0.2287  0.6421
  516TIP3   OH223038   3.394   1.332  13.407 -0.2090  0.5283  0.3320
  516TIP3    H123039   3.361   1.318  13.318  0.9276 -1.0749  0.1256
  516TIP3    H223040   3.332   1.394  13.446 -1.2659  0.5219 -1.2569
  517TIP3   OH223041   2.541   4.231  14.845  0.0917 -0.4028  0.6671
  517TIP3    H123042   2.503   4.216  14.931  1.6075  1.0007  1.6424
  517TIP3    H223043   2.487   4.300  14.807 -0.2789 -0.6796  0.6815
  518TIP3   OH223044   4.757   6.401   4.068 -0.1095 -0.0886  0.6316
  518TIP3    H123045   4.689   6.413   4.002  0.8129 -0.0182 -0.3364
  518TIP3    H223046   4.837   6.428   4.025  0.9480 -2.6069  0.8434
  519TIP3   OH223047   6.582   2.493   5.268  0.4619 -0.2968 -0.1434
  519TIP3    H123048   6.583   2.536   5.182  0.8790  0.5839  0.2927
  519TIP3    H223049   6.660   2.438   5.268  0.2435 -0.6196 -0.4732
  520TIP3   OH223050   4.924   3.408  12.781  0.1326  0.3840 -0.0916
  520TIP3    H123051   4.915   3.490  12.733 -1.6336  0.7445  0.7603
  520TIP3    H223052   5.012   3.412  12.818  0.0244  1.9911  0.0809
  521TIP3   OH223053   1.884   6.654   4.717  0.0589  0.5146  0.0050
  521TIP3    H123054   1.790   6.648   4.698  0.1210  2.6225 -1.2151
  521TIP3    H223055   1.888   6.696   4.803 -0.0913 -0.8338  0.7019
  522TIP3   OH223056   0.881   6.044   4.344 -0.2512 -0.3003 -0.0399
  522TIP3    H123057   0.958   6.097   4.323  1.1128 -2.0704  0.1921
  522TIP3    H223058   0.812   6.077   4.287  0.5399  1.6285  0.0547
  523TIP3   OH223059   5.898   2.186   3.532 -0.3467  0.1969 -0.2577
  523TIP3    H123060   5.974   2.145   3.490 -1.2067 -1.3817 -0.3597
  523TIP3    H223061   5.932   2.217   3.617  0.6164  0.3865 -0.6989
  524TIP3   OH223062   3.605   5.856  11.939 -0.5125  0.4447  0.2151
  524TIP3    H123063   3.636   5.901  12.017  0.1786  0.8141 -0.2637
  524TIP3    H223064   3.637   5.910  11.866  0.5598 -0.9647 -0.3869
  525TIP3   OH223065   4.846   3.495   0.946 -0.3336  0.5893  0.3023
  525TIP3    H123066   4.786   3.568   0.961 -0.3248  1.0073 -1.5395
  525TIP3    H223067   4.933   3.534   0.953 -0.3307  0.8241 -0.9095
  526TIP3   OH223068   5.866   4.015  15.907  0.3563 -0.3548  0.1494
  526TIP3    H123069   5.775   3.986  15.901  0.6322 -1.0926 -0.6970
  526TIP3    H223070   5.884   4.055  15.822 -0.2111  3.0042  1.4797
  527TIP3   OH223071   1.001   4.622   6.146  0.1484  0.7686  0.6963
  527TIP3    H123072   0.990   4.673   6.066  0.7011 -2.4540 -1.6754
  527TIP3    H223073   0.911   4.601   6.173 -0.0300  0.7059  0.0714
  528TIP3   OH223074   5.640   5.792   1.355  0.0929  0.5817 -0.1286
  528TIP3    H123075   5.548   5.817   1.361 -0.9645 -2.0444 -2.6909
  528TIP3    H223076   5.669   5.824   1.269 -0.0276 -2.6568 -1.5374
  529TIP3   OH223077   5.612   6.077  12.214 -0.6489 -0.7515 -0.1706
  529TIP3    H123078   5.564   6.159  12.219 -0.1405 -0.2635 -2.2859
  529TIP3    H223079   5.563   6.017  12.272 -1.4878  0.7781  0.7744
  530TIP3   OH223080   0.345   0.193  16.262  0.5145  0.1266  0.7426
  530TIP3    H123081   0.280   0.256  16.231  1.9240  1.7792  0.9769
  530TIP3    H223082   0.423   0.210  16.209  1.0453 -1.2070  1.0482
  531TIP3   OH223083   3.163   0.914  12.141 -0.1215  0.8572 -0.5740
  531TIP3    H123084   3.103   0.863  12.087  0.4676  1.5441 -1.9018
  531TIP3    H223085   3.192   0.986  12.085  1.4492  0.9109  0.2392
  532TIP3   OH223086   6.664   4.693   2.757 -0.0064 -0.1396  0.1888
  532TIP3    H123087   6.593   4.681   2.694  0.1087  1.2498 -0.2444
  532TIP3    H223088   6.648   4.780   2.795  1.5632  0.3046 -0.0748
  533TIP3   OH223089   5.732   0.635   0.033  0.5557 -0.0718 -0.2425
  533TIP3    H123090   5.702   0.559   0.082 -0.9557  0.1404 -0.7673
  533TIP3    H223091   5.665   0.702   0.049 -0.6609 -0.3368 -3.3787
  534TIP3   OH223092   2.968   1.988   0.075 -0.4373 -0.3600 -0.2460
  534TIP3    H123093   2.893   2.036   0.041 -1.3653 -2.8225 -1.8991
  534TIP3    H223094   3.030   2.056   0.102 -3.1169  1.7428  0.9667
  535TIP3   OH223095   5.513   0.785   4.447 -0.7552 -0.3701 -0.2476
  535TIP3    H123096   5.458   0.714   4.413 -3.6608  0.0617  2.9176
  535TIP3    H223097   5.488   0.861   4.395 -0.4094 -0.8876 -1.1967
  536TIP3   OH223098   6.646   6.786   2.324 -0.0786  0.2076 -0.3159
  536TIP3    H123099   6.720   6.758   2.378 -2.2855  0.2135  3.0438
  536TIP3    H223100   6.643   6.723   2.253  1.4518 -1.5113  1.0233
  537TIP3   OH223101   3.399   1.554  12.341  0.1988  0.1550 -0.7060
  537TIP3    H123102   3.365   1.489  12.280 -0.9972  1.2022 -1.1911
  537TIP3    H223103   3.360   1.636  12.313  0.8600  0.9242  0.5289
  538TIP3   OH223104   6.251   3.844   3.674  0.2077  0.0379 -0.1239
  538TIP3    H123105   6.282   3.852   3.764  1.8221  2.4025 -0.7815
  538TIP3    H223106   6.290   3.919   3.629  1.2697 -2.2154 -3.3236
  539TIP3   OH223107   5.419   6.574   0.778 -0.7396 -0.0273  0.1686
  539TIP3    H123108   5.425   6.590   0.872 -0.0729  0.1541  0.0946
  539TIP3    H223109   5.325   6.581   0.759 -0.6319  2.8650  0.3006
  540TIP3   OH223110   4.011   5.225  15.486  0.0896 -0.2925 -0.2764
  540TIP3    H123111   3.946   5.273  15.435 -0.1735  0.5403  0.8189
  540TIP3    H223112   4.071   5.292  15.518  1.4812 -1.0275 -1.1934
  541TIP3   OH223113   3.093   5.814   2.416  0.3118 -0.1610  0.0861
  541TIP3    H123114   3.009   5.818   2.463  0.1735  0.9313 -0.2214
  541TIP3    H223115   3.145   5.751   2.466 -0.4145 -0.2711  0.7331
  542TIP3   OH223116   2.088   1.218  12.500 -0.8440 -0.2742  0.2337
  542TIP3    H123117   2.118   1.163  12.573 -2.7867 -0.1953  1.1617
  542TIP3    H223118   2.166   1.266  12.473 -0.1059 -0.0687  2.4901
  543TIP3   OH223119   4.064   0.787   5.742 -0.5143 -0.3879  0.3164
  543TIP3    H123120   4.072   0.776   5.647  1.8252  1.1269  0.2633
  543TIP3    H223121   4.111   0.713   5.779  0.8836  0.4107  0.2078
  544TIP3   OH223122   3.408   3.328  16.038 -0.5513 -0.5695 -0.1543
  544TIP3    H123123   3.454   3.245  16.041  2.2977  0.8580 -0.6964
  544TIP3    H223124   3.430   3.372  16.120  0.0774  0.6157 -0.9210
  545TIP3   OH223125   1.451   5.214   6.105 -0.4828  0.0143 -0.1869
  545TIP3    H123126   1.500   5.295   6.093  0.7161 -0.7094 -0.3858
  545TIP3    H223127   1.362   5.234   6.076 -0.4415  1.4946  0.6213
  546TIP3   OH223128   1.750   0.889  13.592  0.9102 -0.6381  0.7241
  546TIP3    H123129   1.732   0.836  13.514 -0.0664  0.5137  0.1336
  546TIP3    H223130   1.669   0.888  13.642  1.9799 -2.6334  2.5832
  547TIP3   OH223131   4.587   1.396   3.910  0.2101 -0.2436  0.2892
  547TIP3    H123132   4.568   1.484   3.878 -0.1784 -0.7798 -1.0556
  547TIP3    H223133   4.596   1.405   4.005 -1.5861  0.9337  0.3750
  548TIP3   OH223134   0.106   1.380   2.099  1.0210  0.2904 -0.5279
  548TIP3    H123135   0.161   1.322   2.152 -0.1798 -1.1086 -0.7187
  548TIP3    H223136   0.100   1.336   2.014  2.4089  2.1904 -1.6668
  549TIP3   OH223137   1.895   6.594  17.053 -0.6878 -0.3820  0.0613
  549TIP3    H123138   1.983   6.616  17.085 -0.7709  0.5837 -0.3431
  549TIP3    H223139   1.911   6.528  16.985 -0.4038 -1.3278  1.0055
  550TIP3   OH223140   5.214   0.505  13.249  0.0610  0.4628 -0.1341
  550TIP3    H123141   5.271   0.448  13.300 -2.3627 -4.3466 -2.1637
  550TIP3    H223142   5.137   0.519  13.304 -1.3876 -2.4714 -1.2263
  551TIP3   OH223143   0.558   4.265  14.763  0.3191 -0.0719  0.6315
  551TIP3    H123144   0.566   4.236  14.854  0.4653  0.5516  0.8252
  551TIP3    H223145   0.487   4.330  14.765 -0.2501 -0.6644  0.1444
  552TIP3   OH223146   3.231   4.947  17.019  0.7372 -0.3334 -0.0462
  552TIP3    H123147   3.305   4.890  16.999  1.5383  0.6315  0.1022
  552TIP3    H223148   3.255   5.031  16.981 -0.6035 -0.1788 -0.6128
  553TIP3   OH223149   0.480   3.022  10.388  0.5405  0.1468  0.6376
  553TIP3    H123150   0.513   3.072  10.314 -2.2639 -0.6530 -1.2912
  553TIP3    H223151   0.422   3.083  10.434 -0.7879 -0.4996 -0.1542
  554TIP3   OH223152   0.685   4.632   1.379  0.2433  0.0391 -0.0205
  554TIP3    H123153   0.770   4.667   1.405  1.4408 -1.9569 -0.9897
  554TIP3    H223154   0.696   4.611   1.286 -2.4299  2.8501 -1.1281
  555TIP3   OH223155   3.017   2.799  11.650 -0.1884 -0.1996 -0.1598
  555TIP3    H123156   2.992   2.865  11.585  1.5203 -0.9002 -1.5814
  555TIP3    H223157   3.083   2.842  11.705 -0.0260 -0.3158 -0.2640
  556TIP3   OH223158   0.147   3.010   4.109 -0.2525  0.1168 -0.2124
  556TIP3    H123159   0.213   2.968   4.164 -2.0221  0.1803  2.1289
  556TIP3    H223160   0.106   3.075   4.166 -3.3490 -0.9430 -1.0330
  557TIP3   OH223161   5.827   1.670  15.210  0.1102 -0.5836 -0.3167
  557TIP3    H123162   5.737   1.662  15.240  0.2219  0.2646  0.3174
  557TIP3    H223163   5.822   1.721  15.129  0.1361  1.3501  0.8172
  558TIP3   OH223164   0.499   1.190  16.806  0.0839  0.3174 -0.2208
  558TIP3    H123165   0.406   1.195  16.785  0.3931  1.6410 -1.5034
  558TIP3    H223166   0.542   1.177  16.721  1.0997  0.2661  0.2819
  559TIP3   OH223167   4.033   3.892   3.410  0.6744  0.0619 -0.5102
  559TIP3    H123168   4.118   3.848   3.422  0.6409  0.3514  0.9709
  559TIP3    H223169   4.033   3.920   3.319  2.1654  0.0189 -0.5476
  560TIP3   OH223170   0.381   4.400  16.378 -0.2563  0.2185 -0.3234
  560TIP3    H123171   0.398   4.488  16.412 -0.8027 -0.0487  0.6874
  560TIP3    H223172   0.468   4.360  16.372 -0.1754 -0.0735  1.8115
  561TIP3   OH223173   6.550   0.049  13.929 -0.0927 -0.1011  0.2832
  561TIP3    H123174   6.625   0.009  13.884 -0.2798 -0.6256  0.4316
  561TIP3    H223175   6.523  -0.016  13.994  0.3167  0.7415  1.3245
  562TIP3   OH223176   0.807   2.811  14.116  0.2095  0.6178 -0.0728
  562TIP3    H123177   0.896   2.846  14.102  0.3334 -0.1097 -1.3333
  562TIP3    H223178   0.756   2.849  14.044 -0.0196 -0.5028 -0.5229
  563TIP3   OH223179   6.333   0.496   2.326  0.2305  0.2206  0.0482
  563TIP3    H123180   6.299   0.434   2.261  0.7477  0.0392 -0.0529
  563TIP3    H223181   6.261   0.506   2.388 -0.7309  1.3252 -1.1734
  564TIP3   OH223182   5.638   1.486  10.900 -0.4839  0.2432  0.3178
  564TIP3    H123183   5.707   1.542  10.937  1.5796 -1.0472 -1.3402
  564TIP3    H223184   5.601   1.538  10.828 -0.6834  0.6195  0.6869
  565TIP3   OH223185   4.954   4.425  13.104 -0.1501  0.0698  0.3840
  565TIP3    H123186   4.983   4.486  13.037 -0.6782  1.9990  1.8228
  565TIP3    H223187   4.995   4.341  13.081  0.8028  1.0139 -1.5103
  566TIP3   OH223188   4.012   4.233  14.326  0.7262  0.5008  0.0019
  566TIP3    H123189   4.107   4.239  14.327  0.8364 -0.1093 -1.9853
  566TIP3    H223190   3.992   4.180  14.248 -1.3243  3.0782 -1.3947
  567TIP3   OH223191   6.091   4.806   5.684 -0.1918 -0.3776  0.0826
  567TIP3    H123192   6.153   4.878   5.689 -1.3437  0.6997 -0.4166
  567TIP3    H223193   6.064   4.791   5.774  0.2103 -0.3224  0.2116
  568TIP3   OH223194   6.472   4.623   5.459 -0.0586 -0.4039 -0.3384
  568TIP3    H123195   6.465   4.716   5.479 -3.1049 -0.8147  1.1253
  568TIP3    H223196   6.544   4.592   5.514 -0.2017  0.8016  0.5743
  569TIP3   OH223197   2.604   0.761  13.972  0.2538  0.1262 -0.2954
  569TIP3    H123198   2.577   0.669  13.978  1.5564 -0.3225 -0.9626
  569TIP3    H223199   2.531   0.804  13.928 -0.7028 -0.4171  0.6904
  570TIP3   OH223200   1.060   1.642  11.524  1.3777 -0.1999  0.1290
  570TIP3    H123201   1.034   1.694  11.448 -0.7798 -1.7057 -0.2628
  570TIP3    H223202   0.982   1.641  11.579  1.7785 -1.9421  0.7038
  571TIP3   OH223203   2.680   6.259  13.603  0.6387  0.4793 -0.1963
  571TIP3    H123204   2.643   6.183  13.557  0.1620  0.5860  0.0034
  571TIP3    H223205   2.671   6.331  13.540  1.5784  0.2722 -0.5921
  572TIP3   OH223206   4.879   3.872  13.248  0.0701 -0.2871  0.3651
  572TIP3    H123207   4.915   3.814  13.181  0.3919  1.1239 -0.7160
  572TIP3    H223208   4.785   3.876  13.228  0.3136  0.9089 -0.6486
  573TIP3   OH223209   3.974   5.549  11.029  0.6687  0.3298  0.1720
  573TIP3    H123210   3.886   5.534  10.996  0.0807 -3.7487  2.9458
  573TIP3    H223211   3.973   5.641  11.058 -1.9075  0.9877 -1.6252
  574TIP3   OH223212   0.277   4.960   5.223 -0.1366 -0.8262  0.0993
  574TIP3    H123213   0.272   4.984   5.316  1.6986 -1.3462  0.3671
  574TIP3    H223214   0.197   4.996   5.185 -1.2533 -1.1684  2.0020
  575TIP3   OH223215   3.886   3.263   6.109  0.3088  0.1682  0.5030
  575TIP3    H123216   3.896   3.320   6.185  2.4965  0.3476  0.1576
  575TIP3    H223217   3.792   3.247   6.102 -0.0942  1.5860  2.1720
  576TIP3   OH223218   1.974   4.384   2.692 -0.0784 -0.2460  0.1628
  576TIP3    H123219   1.885   4.415   2.674 -0.8828 -0.7999  2.7377
  576TIP3    H223220   2.030   4.434   2.633 -1.9217  1.4084 -0.2827
  577TIP3   OH223221   3.935   6.637   6.285 -1.0963  0.0339 -0.3593
  577TIP3    H123222   4.006   6.594   6.236 -0.6128  0.2199  0.1595
  577TIP3    H223223   3.867   6.652   6.220 -1.6779 -2.3168 -0.4091
  578TIP3   OH223224   3.928   0.279   0.007  0.2884 -0.2519  0.0829
  578TIP3    H123225   3.953   0.259   0.097 -0.0733 -0.4598  0.1377
  578TIP3    H223226   4.002   0.329  -0.028  1.1833 -1.6168 -0.0299
  579TIP3   OH223227   4.464   4.212  13.000  0.2564  0.6102 -0.3313
  579TIP3    H123228   4.524   4.161  12.946 -0.3819  0.5901 -1.0477
  579TIP3    H223229   4.519   4.253  13.067  0.7667 -1.1230  0.3565
  580TIP3   OH223230   4.925   0.704  14.296 -0.4479 -0.3014 -0.3098
  580TIP3    H123231   4.954   0.657  14.375  0.4846 -1.1463 -1.1304
  580TIP3    H223232   4.834   0.677  14.285 -0.3260 -0.8618 -0.0066
  581TIP3   OH223233   4.343   5.161   5.782 -0.1229 -0.1119 -0.0275
  581TIP3    H123234   4.312   5.238   5.829 -1.3529  0.0841 -1.1082
  581TIP3    H223235   4.265   5.123   5.744  0.1765 -2.8824  1.8137
  582TIP3   OH223236   2.148   3.896   4.796 -0.0887  0.3244 -0.0628
  582TIP3    H123237   2.060   3.899   4.760 -0.7783  0.5139  1.5628
  582TIP3    H223238   2.191   3.974   4.760 -0.4915  0.1059 -1.0476
  583TIP3   OH223239   4.955   0.016  14.027  0.0272 -0.0065  0.0331
  583TIP3    H123240   5.035   0.008  13.974 -0.3420 -0.0788 -0.5191
  583TIP3    H223241   4.972  -0.038  14.104 -1.0199 -3.5138 -1.9324
  584TIP3   OH223242   3.968   6.689   2.054 -0.0343  0.2936 -0.5754
  584TIP3    H123243   3.944   6.610   2.103  0.0293  0.5248 -0.1626
  584TIP3    H223244   4.055   6.670   2.019 -0.1113  0.0973 -0.6607
  585TIP3   OH223245   6.608   3.016   4.721 -0.1208 -0.5670 -0.0837
  585TIP3    H123246   6.580   3.102   4.750 -0.6386 -0.3008 -1.3222
  585TIP3    H223247   6.702   3.013   4.742  0.2123  0.8387 -1.2724
  586TIP3   OH223248   0.122   5.824  14.567 -0.1412 -0.4267 -0.7392
  586TIP3    H123249   0.059   5.868  14.624 -0.0400 -2.5276  1.1188
  586TIP3    H223250   0.068   5.778  14.502 -0.4068 -0.3560 -0.5696
  587TIP3   OH223251   3.118   4.235  16.807 -0.8739  0.0713 -0.7752
  587TIP3    H123252   3.104   4.249  16.900 -0.8468  2.4884 -1.0795
  587TIP3    H223253   3.113   4.140  16.796  2.6604 -0.6643  2.2334
  588TIP3   OH223254   6.647   4.844  14.018  0.4953  0.8602  0.0787
  588TIP3    H123255   6.686   4.931  14.031  0.0750  1.0961 -0.1917
  588TIP3    H223256   6.607   4.849  13.931 -2.6378  1.6376  1.4035
  589TIP3   OH223257   5.730   4.759   4.748  0.0551  0.4556 -0.4481
  589TIP3    H123258   5.732   4.845   4.791  2.5324  1.3910 -2.1709
  589TIP3    H223259   5.808   4.759   4.692 -0.6764 -2.3676 -1.6297
  590TIP3   OH223260   3.491   1.053  11.349 -0.4247 -0.4756 -0.6578
  590TIP3    H123261   3.397   1.070  11.346 -0.3946 -0.0154  0.4530
  590TIP3    H223262   3.515   1.065  11.441  0.4949 -1.7993 -0.6897
  591TIP3   OH223263   5.835   1.837  15.895 -0.1598  1.0827  0.3576
  591TIP3    H123264   5.815   1.926  15.924 -1.0081  0.9463  0.2195
  591TIP3    H223265   5.819   1.782  15.971 -2.5493  0.7036 -0.3418
  592TIP3   OH223266   1.612   3.974   3.740  0.4259  0.1141  0.1279
  592TIP3    H123267   1.575   3.914   3.805 -1.5311 -0.1204 -1.1504
  592TIP3    H223268   1.538   3.999   3.685  2.0581  0.0715 -2.2188
  593TIP3   OH223269   5.330   3.260   2.667 -0.1842  0.7279  0.0433
  593TIP3    H123270   5.320   3.256   2.572  0.6428  2.2788 -0.1402
  593TIP3    H223271   5.344   3.353   2.685  3.4302  0.0887  1.2619
  594TIP3   OH223272   1.643   2.658  11.473 -0.4792 -0.2745 -0.7482
  594TIP3    H123273   1.612   2.610  11.396 -1.5851  0.9844 -1.1200
  594TIP3    H223274   1.613   2.748  11.459  0.0289  0.1547  0.7600
  595TIP3   OH223275   1.197   2.534  12.054 -0.1791  0.3831 -0.0914
  595TIP3    H123276   1.231   2.622  12.075 -0.2372  0.7031 -1.2913
  595TIP3    H223277   1.139   2.514  12.127  1.9439  0.1354  1.6501
  596TIP3   OH223278   1.466   3.092  15.567  0.1275  0.5720  0.1399
  596TIP3    H123279   1.480   3.186  15.574 -1.9834  1.1302 -1.9785
  596TIP3    H223280   1.452   3.076  15.474 -1.1421 -1.5963  0.6331
  597TIP3   OH223281   2.393   5.686  14.338 -0.0348  0.4915  0.4740
  597TIP3    H123282   2.320   5.711  14.282 -0.9238 -0.1392  1.2968
  597TIP3    H223283   2.448   5.764  14.343  1.0478  0.0661 -2.6617
  598TIP3   OH223284   5.073   5.092  13.223 -0.1478 -0.2442 -0.6082
  598TIP3    H123285   5.167   5.111  13.225 -0.0569 -0.7474  0.3887
  598TIP3    H223286   5.035   5.167  13.177  0.5590  0.8255  0.4798
  599TIP3   OH223287   0.174   0.770  14.577 -0.4130 -0.2362  0.4555
  599TIP3    H123288   0.177   0.866  14.586 -0.7328 -0.1314 -0.4623
  599TIP3    H223289   0.086   0.752  14.544 -0.3074 -0.8407  0.5008
  600TIP3   OH223290   6.675   4.426   2.110 -0.9625  0.2586  0.0148
  600TIP3    H123291   6.698   4.353   2.052  4.8620  1.6488  0.0127
  600TIP3    H223292   6.601   4.469   2.067 -1.0702 -2.4692 -2.8439
  601TIP3   OH223293   0.202   0.179  12.721 -0.2831  0.3608  0.3109
  601TIP3    H123294   0.229   0.095  12.759  0.7559  0.8608  0.7490
  601TIP3    H223295   0.178   0.232  12.797  0.1292  0.8035  0.1387
  602TIP3   OH223296   1.962   5.242   5.958  0.3959 -0.1061  0.1174
  602TIP3    H123297   1.988   5.212   5.870 -1.8180  1.3268 -1.1280
  602TIP3    H223298   2.038   5.291   5.990  1.1299 -0.3726 -1.1376
  603TIP3   OH223299   4.964   5.389   0.336 -0.2347  0.4104 -0.4572
  603TIP3    H123300   5.006   5.421   0.256  2.2927 -0.4625  0.4155
  603TIP3    H223301   5.022   5.419   0.406 -1.0131 -1.0051  0.8459
  604TIP3   OH223302   0.027   5.964   0.553  0.4268  0.6683  0.0081
  604TIP3    H123303   0.102   5.930   0.602  0.5037  1.3712  0.3957
  604TIP3    H223304   0.060   6.044   0.513 -0.5336  1.8166  1.4365
  605TIP3   OH223305   3.037   0.023  12.233  0.1846  0.1958 -0.0155
  605TIP3    H123306   3.108   0.034  12.297 -0.7987 -2.2324  1.6517
  605TIP3    H223307   3.010  -0.068  12.242 -1.8469  0.5021 -2.0095
  606TIP3   OH223308   5.827   2.458  13.131  0.2635  0.3736 -0.4728
  606TIP3    H123309   5.807   2.408  13.052 -0.4427  0.7982 -0.5762
  606TIP3    H223310   5.913   2.428  13.158  0.9208  0.8802 -1.9185
  607TIP3   OH223311   4.433   5.664  16.436 -0.3915 -0.1842  0.1345
  607TIP3    H123312   4.340   5.652  16.417 -0.1318 -1.1752 -0.5583
  607TIP3    H223313   4.474   5.583  16.408  0.7176  0.3215  0.2519
  608TIP3   OH223314   4.633   6.286   5.054  0.6351  0.0314 -0.1238
  608TIP3    H123315   4.542   6.285   5.084  0.7011 -0.1030  0.0724
  608TIP3    H223316   4.647   6.375   5.022  0.1729 -0.1837 -0.9618
  609TIP3   OH223317   6.238   1.619   5.034  0.1000  0.2198  0.0854
  609TIP3    H123318   6.157   1.568   5.030  0.6896 -0.7436 -0.1243
  609TIP3    H223319   6.219   1.690   5.095 -0.4916 -0.7563  1.0860
  610TIP3   OH223320   5.120   0.212   3.326  0.1635  0.1420 -0.0793
  610TIP3    H123321   5.070   0.130   3.323 -0.8355  0.6303  1.6051
  610TIP3    H223322   5.196   0.191   3.380  0.1907  0.1723 -0.1063
  611TIP3   OH223323   1.688   0.713   5.429 -0.2298  0.5000  0.1783
  611TIP3    H123324   1.607   0.751   5.462 -0.0859  0.7917  0.2017
  611TIP3    H223325   1.732   0.785   5.383 -0.5695  0.0208 -0.9250
  612TIP3   OH223326   1.846   5.291   2.056 -0.8851 -0.3680 -0.2783
  612TIP3    H123327   1.915   5.357   2.045 -0.4376 -0.4215  1.8210
  612TIP3    H223328   1.799   5.319   2.134 -3.0186 -0.5894 -1.4188
  613TIP3   OH223329   4.818   2.271  16.586 -0.4065 -0.0305  0.1499
  613TIP3    H123330   4.816   2.182  16.551  2.3289 -0.9143  1.9278
  613TIP3    H223331   4.869   2.321  16.523  2.1992 -0.9765  1.3647
  614TIP3   OH223332   6.779   4.474   2.362  0.5578 -0.4488 -0.1176
  614TIP3    H123333   6.785   4.569   2.363 -1.9750 -0.2104  1.0514
  614TIP3    H223334   6.750   4.453   2.273  1.9256 -0.2515 -0.6386
  615TIP3   OH223335   1.632   1.992  14.999 -0.0395 -0.1061  0.2079
  615TIP3    H123336   1.567   2.062  14.995 -0.8007 -0.7077  1.4240
  615TIP3    H223337   1.685   2.013  15.076 -0.4438 -0.9683  0.7509
  616TIP3   OH223338   3.355   0.285  11.572 -0.3885  0.0341  0.1598
  616TIP3    H123339   3.301   0.292  11.650  0.6287  0.8743  0.8185
  616TIP3    H223340   3.440   0.321  11.598  1.1365 -2.9531 -0.2540
  617TIP3   OH223341   1.832   6.063   6.340  0.1848 -0.5067  0.4253
  617TIP3    H123342   1.851   6.036   6.430 -1.0743 -0.1834  0.8065
  617TIP3    H223343   1.860   6.155   6.337  0.6831 -0.6551  0.3259
  618TIP3   OH223344   3.067   3.612   4.642 -0.8383  0.7702 -0.1336
  618TIP3    H123345   3.039   3.529   4.681  0.2754 -0.1087 -1.1480
  618TIP3    H223346   3.111   3.587   4.561 -0.3557  2.3555 -0.3904
  619TIP3   OH223347   4.021   6.534  15.944 -0.7616 -0.0884 -0.0383
  619TIP3    H123348   4.054   6.504  15.860  0.0832  0.2989  0.1519
  619TIP3    H223349   4.075   6.610  15.966 -1.3124  0.1285  0.6109
  620TIP3   OH223350   4.903   2.349   0.313 -0.4681  0.0959 -0.4325
  620TIP3    H123351   4.850   2.271   0.327 -1.5161  0.8722 -0.0082
  620TIP3    H223352   4.916   2.386   0.400 -0.9284  1.0025 -0.7354
  621TIP3   OH223353   3.455   2.937   1.917  0.1990  0.5144  0.3070
  621TIP3    H123354   3.477   3.020   1.875 -0.0272  0.7556  0.6635
  621TIP3    H223355   3.503   2.938   2.000  0.5127  0.1117  0.1327
  622TIP3   OH223356   3.598   5.794   5.088 -0.0742  0.4243  1.0942
  622TIP3    H123357   3.539   5.867   5.071  0.0857  0.3114 -0.0819
  622TIP3    H223358   3.630   5.808   5.177 -1.4430  0.7760  1.5494
  623TIP3   OH223359   3.902   4.164  16.033 -0.3873 -0.2163 -0.1341
  623TIP3    H123360   3.891   4.257  16.012  1.1276  0.4332  1.6519
  623TIP3    H223361   3.946   4.164  16.118 -0.1631 -2.5794 -0.1905
  624TIP3   OH223362   1.525   3.749   1.170 -0.1690 -0.5696 -0.4826
  624TIP3    H123363   1.501   3.841   1.157 -0.1683 -0.0046  2.7694
  624TIP3    H223364   1.447   3.701   1.142 -1.3597  0.6530  0.5337
  625TIP3   OH223365   6.817   0.173  11.122 -0.4476 -0.6451 -0.1207
  625TIP3    H123366   6.838   0.178  11.029 -0.5478 -0.8066 -0.1534
  625TIP3    H223367   6.876   0.234  11.165  1.2667 -2.2935 -0.0104
  626TIP3   OH223368   3.779   6.352  16.280 -0.3167  0.9949 -0.0991
  626TIP3    H123369   3.872   6.369  16.263 -0.3219  0.2099 -1.0315
  626TIP3    H223370   3.734   6.384  16.202 -1.0400  2.8477  1.0118
  627TIP3   OH223371   4.169   3.312   2.706 -0.0847  0.0403  0.1403
  627TIP3    H123372   4.252   3.327   2.660 -0.9122  0.9309 -1.1032
  627TIP3    H223373   4.174   3.371   2.782  0.1226  0.6425 -0.3283
  628TIP3   OH223374   1.410   4.939  15.358 -0.4376 -0.0265  0.4229
  628TIP3    H123375   1.357   4.883  15.301  2.7944 -2.4175 -0.5101
  628TIP3    H223376   1.438   4.882  15.429  1.7441  0.7489  0.2658
  629TIP3   OH223377   2.763   5.363  11.295  0.6046 -0.3103  0.1899
  629TIP3    H123378   2.729   5.283  11.336  1.5147 -0.8182 -0.0032
  629TIP3    H223379   2.785   5.420  11.369 -0.0640 -0.2278  0.3289
  630TIP3   OH223380   5.004   1.236   5.929 -0.1323  0.4261 -0.2022
  630TIP3    H123381   4.968   1.306   5.984  2.1344  1.1461  0.4430
  630TIP3    H223382   5.029   1.168   5.991 -0.9668 -0.3621 -0.7089
  631TIP3   OH223383   3.660   0.866  15.138  0.0638 -0.2526  0.0845
  631TIP3    H123384   3.716   0.820  15.075 -0.6568 -0.0062 -0.7486
  631TIP3    H223385   3.721   0.904  15.201  0.8575  0.1669 -0.9093
  632TIP3   OH223386   2.901   3.417   3.907  0.2135  0.2462  0.0303
  632TIP3    H123387   2.875   3.447   3.820  0.1033  1.0757  0.3419
  632TIP3    H223388   2.837   3.349   3.930 -0.6464  1.0587  0.0755
  633TIP3   OH223389   2.284   3.923   2.639 -0.5925 -0.5711  0.0179
  633TIP3    H123390   2.251   4.008   2.670  0.0223 -0.5210  0.5867
  633TIP3    H223391   2.208   3.878   2.604 -0.7642  0.6135 -1.2290
  634TIP3   OH223392   2.848   2.187  11.736  0.5571 -0.6885  0.1346
  634TIP3    H123393   2.914   2.251  11.710  1.1703 -0.6571  1.6750
  634TIP3    H223394   2.775   2.239  11.768 -0.1158 -0.7326 -1.2518
  635TIP3   OH223395   3.300   3.949  11.687 -0.0439  0.1836 -0.1325
  635TIP3    H123396   3.321   4.006  11.760  4.4333 -1.1900 -0.0631
  635TIP3    H223397   3.306   4.006  11.610 -0.1943  0.7117  0.2420
  636TIP3   OH223398   0.557   3.582  16.452  0.1102  0.4517 -0.3894
  636TIP3    H123399   0.491   3.518  16.427 -0.6222  1.0756 -0.0838
  636TIP3    H223400   0.533   3.607  16.541  0.5818  0.9199 -0.3909
  637TIP3   OH223401   2.687   0.324  16.978 -0.3361 -0.0295 -0.1429
  637TIP3    H123402   2.646   0.325  16.892  1.4742  1.1929 -1.0756
  637TIP3    H223403   2.774   0.287  16.963  0.0312  0.2537  1.1454
  638TIP3   OH223404   5.774   3.564   1.764 -0.2725 -0.5093  0.2310
  638TIP3    H123405   5.805   3.647   1.799 -1.0121  0.5050 -1.4281
  638TIP3    H223406   5.764   3.508   1.842  1.3393  0.5400  1.2607
  639TIP3   OH223407   5.267   6.647  12.011  0.3579  0.0435 -0.6575
  639TIP3    H123408   5.252   6.640  12.105  0.3327 -1.9364 -0.7695
  639TIP3    H223409   5.258   6.741  11.992 -0.0043  0.4284  1.2332
  640TIP3   OH223410   0.736   4.136   2.494 -0.3965 -0.4000 -0.2237
  640TIP3    H123411   0.722   4.196   2.420  1.0560 -0.1638 -0.3365
  640TIP3    H223412   0.821   4.162   2.530 -0.1118 -1.8629  0.2294
  641TIP3   OH223413   1.333   0.583   3.361 -0.1926 -0.1549  0.0953
  641TIP3    H123414   1.374   0.570   3.446 -1.4089 -4.0955  0.3053
  641TIP3    H223415   1.365   0.509   3.308  0.5187  2.1292 -2.9800
  642TIP3   OH223416   5.469   5.328   0.664 -0.3037 -0.1083  1.0099
  642TIP3    H123417   5.382   5.311   0.701 -0.4035 -1.2974  0.2896
  642TIP3    H223418   5.493   5.414   0.698 -1.3922 -0.1362  1.9181
  643TIP3   OH223419   0.376   3.603   2.438  0.3830 -0.1141  0.0590
  643TIP3    H123420   0.341   3.675   2.385  0.3251 -0.4274 -0.3375
  643TIP3    H223421   0.470   3.618   2.439  0.4783 -0.5604 -0.8408
  644TIP3   OH223422   5.228   0.836  15.634 -0.0766  0.1452  0.6769
  644TIP3    H123423   5.206   0.862  15.545 -0.5449 -0.8874  0.4702
  644TIP3    H223424   5.180   0.754  15.647 -1.5842  1.2440  2.5616
  645TIP3   OH223425   5.466   1.812   2.749 -0.2445 -0.1829 -0.0654
  645TIP3    H123426   5.387   1.821   2.695  0.1364 -2.4300 -1.1078
  645TIP3    H223427   5.533   1.862   2.702 -0.5853  0.2089 -0.1467
  646TIP3   OH223428   3.887   5.931  15.942  0.4554  0.2203  0.1422
  646TIP3    H123429   3.846   5.925  16.029  0.0624 -0.2770 -0.0779
  646TIP3    H223430   3.869   5.847  15.901  0.3693  0.5710 -0.5479
  647TIP3   OH223431   1.647   0.519   4.419  0.1780 -0.1534 -0.2830
  647TIP3    H123432   1.613   0.604   4.446 -0.2377  0.2390 -1.9011
  647TIP3    H223433   1.740   0.534   4.402  0.2880 -0.2372  0.2218
  648TIP3   OH223434   4.613   2.940  12.299  0.0590  0.2669 -0.3631
  648TIP3    H123435   4.572   2.857  12.278 -0.7655 -0.2349  2.7141
  648TIP3    H223436   4.562   2.974  12.373  0.8650  3.1324 -1.0087
  649TIP3   OH223437   1.560   0.629   2.649  0.4423  0.3521  0.5387
  649TIP3    H123438   1.482   0.665   2.606 -0.4344 -0.3951  1.4478
  649TIP3    H223439   1.614   0.705   2.669 -0.0968  0.8914 -0.0071
  650TIP3   OH223440   5.018   0.329   1.763 -0.2469  0.4498 -0.2962
  650TIP3    H123441   5.035   0.422   1.748 -1.4023  0.6083 -0.7043
  650TIP3    H223442   5.103   0.293   1.789  0.2037  1.6217 -0.0971
  651TIP3   OH223443   6.446   3.771   5.806 -0.6120  0.4626  0.4864
  651TIP3    H123444   6.465   3.749   5.715 -1.2179 -0.3780  0.5557
  651TIP3    H223445   6.370   3.828   5.802  0.7556  2.3914  0.3309
  652TIP3   OH223446   0.649   6.634  14.915  0.6823  0.8663 -0.0131
  652TIP3    H123447   0.659   6.640  14.820 -0.6544  1.7121 -0.1168
  652TIP3    H223448   0.730   6.592  14.944  0.9522  0.2273 -1.5564
  653TIP3   OH223449   6.100   4.298  12.145  0.1790 -0.4250 -0.1120
  653TIP3    H123450   6.108   4.283  12.051  0.9542  1.0889 -0.3210
  653TIP3    H223451   6.189   4.284  12.179 -0.2891 -1.9257  0.5780
  654TIP3   OH223452   6.238   4.612   2.459 -0.3350  0.3743 -0.2871
  654TIP3    H123453   6.154   4.634   2.499  0.6154  1.6187  1.1478
  654TIP3    H223454   6.224   4.527   2.419 -1.9628  0.0388  0.8910
  655TIP3   OH223455   2.518   1.334  10.534  0.0648 -0.5941 -0.1380
  655TIP3    H123456   2.470   1.413  10.509 -2.3614 -1.4247  1.4832
  655TIP3    H223457   2.500   1.271  10.465  1.0099 -0.1163 -0.8324
  656TIP3   OH223458   1.384   0.616  14.722 -0.7630 -0.0984 -0.0615
  656TIP3    H123459   1.314   0.552  14.735 -0.7895 -0.2767 -0.9991
  656TIP3    H223460   1.457   0.565  14.689 -0.6982  0.3087 -0.5677
  657TIP3   OH223461   4.180   5.352  15.247 -0.2491  0.6865  0.3802
  657TIP3    H123462   4.117   5.418  15.278 -0.6772 -0.0563  1.1559
  657TIP3    H223463   4.147   5.270  15.284 -0.2629 -0.1224 -1.3421
  658TIP3   OH223464   2.888   6.309   1.741  0.6317  0.6925 -0.1003
  658TIP3    H123465   2.840   6.251   1.799 -0.7290  1.1683 -0.7081
  658TIP3    H223466   2.826   6.379   1.720  1.1136  0.6115 -1.9981
  659TIP3   OH223467   4.064   2.360   1.523 -0.7283  0.5946  0.2869
  659TIP3    H123468   4.070   2.325   1.434 -0.1310 -0.3800  0.6985
  659TIP3    H223469   4.027   2.448   1.511 -0.6173  0.5002 -0.9219
  660TIP3   OH223470   2.764   0.064  16.696 -0.0971 -0.0132  0.4658
  660TIP3    H123471   2.720   0.014  16.765  0.3199 -0.0351  0.7181
  660TIP3    H223472   2.708   0.051  16.619 -0.5117 -0.0720  0.7686
  661TIP3   OH223473   6.591   1.034   0.631 -0.2038 -0.1639 -0.6636
  661TIP3    H123474   6.649   0.979   0.684 -0.8400 -1.3758 -1.1932
  661TIP3    H223475   6.645   1.061   0.557  0.5618  1.1869  0.3447
  662TIP3   OH223476   3.219   1.581   6.294  0.5418 -0.5610  0.1170
  662TIP3    H123477   3.247   1.506   6.241  1.9064 -0.2339  0.3499
  662TIP3    H223478   3.279   1.581   6.368  1.0763  1.2631 -0.2933
  663TIP3   OH223479   1.336   5.014   1.162 -0.0036 -0.5143  0.3573
  663TIP3    H123480   1.302   4.926   1.145 -0.2166 -0.3939  0.1513
  663TIP3    H223481   1.415   5.000   1.213  1.3778 -0.9721 -1.7728
  664TIP3   OH223482   3.523   5.772  11.562 -0.3872  0.2245  0.4392
  664TIP3    H123483   3.609   5.770  11.520 -0.0535  1.7757  0.9593
  664TIP3    H223484   3.531   5.714  11.638 -0.4822 -1.2915 -0.6709
  665TIP3   OH223485   1.783   3.486   5.339  0.5303  0.0197 -0.0426
  665TIP3    H123486   1.830   3.414   5.382  0.0538  0.4555  1.2473
  665TIP3    H223487   1.796   3.561   5.397 -0.3602  0.5660 -0.5260
  666TIP3   OH223488   2.198   2.386   0.058  0.0146 -0.0701  0.3902
  666TIP3    H123489   2.285   2.414   0.087 -0.1694  0.3994  0.5007
  666TIP3    H223490   2.192   2.295   0.086  0.0611  0.2049  1.3293
  667TIP3   OH223491   0.781   2.370  16.356 -0.5308  0.5961  0.1960
  667TIP3    H123492   0.798   2.295  16.413 -0.4926  0.3820 -0.0931
  667TIP3    H223493   0.783   2.333  16.268  0.5594  1.1384 -0.0138
  668TIP3   OH223494   5.072   2.033   6.093 -0.0095 -0.6232  0.5611
  668TIP3    H123495   5.002   2.061   6.152 -1.1688  0.1481 -1.1175
  668TIP3    H223496   5.145   2.090   6.114 -1.8142  2.8239 -1.6867
  669TIP3   OH223497   4.709   6.627   3.100  0.2087 -0.2137  0.0736
  669TIP3    H123498   4.735   6.706   3.052  2.6344 -0.9878  0.0171
  669TIP3    H223499   4.621   6.648   3.133  0.1383  1.8952 -1.2402
  670TIP3   OH223500   3.658   4.692  10.503  0.4595 -0.0621 -0.4706
  670TIP3    H123501   3.581   4.738  10.536 -0.1979 -2.9450  2.5121
  670TIP3    H223502   3.626   4.605  10.480  2.6052 -0.9526 -0.3332
  671TIP3   OH223503   2.300   0.590   0.310 -0.8179  0.3708  0.2417
  671TIP3    H123504   2.263   0.578   0.398  0.1565  0.1552  0.6309
  671TIP3    H223505   2.374   0.529   0.306  0.2910  1.6816 -0.0378
  672TIP3   OH223506   3.321   1.569  14.629 -0.0171  0.0278  0.5613
  672TIP3    H123507   3.284   1.657  14.621  0.2970  0.0248 -1.3705
  672TIP3    H223508   3.309   1.547  14.721 -1.3472  1.5343  0.8053
  673TIP3   OH223509   3.421   2.513   0.751 -0.2672  0.1513  0.0597
  673TIP3    H123510   3.441   2.607   0.752  2.1208 -0.2325 -1.8090
  673TIP3    H223511   3.353   2.504   0.685  0.7907  0.4185 -1.1060
  674TIP3   OH223512   1.257   5.370   0.385  0.2101 -0.1303  0.1650
  674TIP3    H123513   1.286   5.301   0.325 -2.9384  0.7383 -2.6508
  674TIP3    H223514   1.186   5.331   0.436 -0.7593  0.6137 -0.5700
  675TIP3   OH223515   3.220   1.351  15.942  0.0634 -0.5002 -0.0817
  675TIP3    H123516   3.217   1.441  15.972  2.7389 -0.4982  0.4344
  675TIP3    H223517   3.128   1.324  15.935 -0.8807  2.6697 -1.6819
  676TIP3   OH223518   0.395   5.935  15.782 -0.2671  0.7246  0.1695
  676TIP3    H123519   0.402   5.910  15.690  0.5566  2.4964 -0.2898
  676TIP3    H223520   0.456   6.007  15.792  0.8382 -0.4140  2.5072
  677TIP3   OH223521   4.846   4.408  15.736 -0.3347 -0.3434  0.2123
  677TIP3    H123522   4.871   4.483  15.682 -0.8820 -0.3019  0.0077
  677TIP3    H223523   4.774   4.441  15.791 -0.0718 -0.5082  0.6570
  678TIP3   OH223524   5.368   5.099  12.537 -0.2004  0.5001 -0.4842
  678TIP3    H123525   5.444   5.071  12.487 -1.1037 -0.2996 -1.4593
  678TIP3    H223526   5.298   5.041  12.509 -1.2743  1.4720  0.0881
  679TIP3   OH223527   4.243   0.110  16.360  0.3929  0.2842 -0.0578
  679TIP3    H123528   4.244   0.023  16.399 -0.3401  0.5278  0.5197
  679TIP3    H223529   4.316   0.109  16.299 -0.5821 -1.3170 -1.3177
  680TIP3   OH223530   6.358   2.225  12.761  0.4343 -0.1796  0.2338
  680TIP3    H123531   6.347   2.198  12.670  0.8367  0.9259 -0.1603
  680TIP3    H223532   6.269   2.234  12.794  0.1832  2.0748 -0.8928
  681TIP3   OH223533   1.447   3.830  13.959 -0.7708  0.3181 -0.8106
  681TIP3    H123534   1.473   3.797  14.045  0.0784  1.3640 -0.6498
  681TIP3    H223535   1.443   3.752  13.903  0.0770 -0.1978 -0.1665
  682TIP3   OH223536   6.757   1.959  17.104 -0.3155  0.0414  0.3988
  682TIP3    H123537   6.739   1.882  17.050 -0.3706  0.8168 -0.7195
  682TIP3    H223538   6.837   1.937  17.151  0.2756 -0.3069 -0.7193
  683TIP3   OH223539   6.185   4.738   5.162  0.5072  0.2109  0.4353
  683TIP3    H123540   6.209   4.790   5.239  0.5343  1.5517 -0.4540
  683TIP3    H223541   6.095   4.765   5.143  0.0697 -1.0003  0.6886
  684TIP3   OH223542   2.317   3.931   3.250 -0.1305  0.0913  0.6620
  684TIP3    H123543   2.308   4.024   3.231  1.7781  0.0336 -0.8544
  684TIP3    H223544   2.231   3.905   3.283 -1.2285  2.0301 -0.4585
  685TIP3   OH223545   5.244   0.199   4.206  0.1224 -0.9075 -0.9301
  685TIP3    H123546   5.287   0.224   4.124  0.0091  2.3269 -0.1566
  685TIP3    H223547   5.170   0.146   4.179  0.7594 -0.9149 -2.8132
  686TIP3   OH223548   1.095   3.069  17.134  0.9927 -0.6483 -0.2432
  686TIP3    H123549   1.065   2.996  17.188 -1.2915 -1.3902 -2.3633
  686TIP3    H223550   1.143   3.027  17.063  2.7343  0.2288  0.3463
  687TIP3   OH223551   5.792   1.502   5.391  0.9194  0.8727 -0.2860
  687TIP3    H123552   5.732   1.509   5.464  1.0535  1.8283 -0.2599
  687TIP3    H223553   5.798   1.408   5.373 -0.9513  0.7858 -0.6081
  688TIP3   OH223554   1.946   3.660  13.241  0.1485 -0.6592 -0.1357
  688TIP3    H123555   1.978   3.589  13.186 -0.7283 -0.3225 -1.1151
  688TIP3    H223556   2.009   3.731  13.227  0.4943 -0.9162  0.1015
  689TIP3   OH223557   0.640   0.360  13.047 -0.5655  0.1000  0.7455
  689TIP3    H123558   0.561   0.327  13.006 -1.2335  1.2678  1.0403
  689TIP3    H223559   0.618   0.368  13.140  0.4278 -1.0586  1.1011
  690TIP3   OH223560   4.464   5.752  12.269  0.3172 -0.0485  0.2243
  690TIP3    H123561   4.486   5.722  12.181  1.3516  0.2095  0.3828
  690TIP3    H223562   4.529   5.819  12.288  0.4989 -0.5533  1.4397
  691TIP3   OH223563   4.391   5.377   1.743  0.5054 -0.2159 -0.1584
  691TIP3    H123564   4.385   5.405   1.834  0.2944 -1.1589  0.1236
  691TIP3    H223565   4.324   5.429   1.698 -1.5952 -1.9630  0.7950
  692TIP3   OH223566   0.575   2.216   4.899  0.0718 -0.1780 -0.8755
  692TIP3    H123567   0.665   2.195   4.874  0.6542  0.3387  0.6728
  692TIP3    H223568   0.584   2.281   4.968 -1.4975 -0.2107 -0.6068
  693TIP3   OH223569   6.647   4.356   2.561  0.3766  0.0548 -0.1936
  693TIP3    H123570   6.695   4.412   2.499  0.7806 -0.1787 -0.0967
  693TIP3    H223571   6.678   4.267   2.542  0.3435 -0.0410  0.2035
  694TIP3   OH223572   6.671   1.370  12.742 -0.4533  0.9337  0.3766
  694TIP3    H123573   6.588   1.418  12.751 -1.8401 -1.5510  2.2610
  694TIP3    H223574   6.716   1.383  12.825 -0.4227 -0.1882  0.5600
  695TIP3   OH223575   4.483   4.445  15.073  0.0071  0.2132  0.4110
  695TIP3    H123576   4.466   4.435  14.979  1.3332 -0.4152  0.2107
  695TIP3    H223577   4.568   4.402  15.086  0.5686  1.6246  1.6182
  696TIP3   OH223578   0.551   3.551   3.907  0.2256 -0.3229  0.8078
  696TIP3    H123579   0.539   3.538   3.813  2.2175 -0.9873  0.6149
  696TIP3    H223580   0.468   3.521   3.946 -1.6294  2.2083 -0.8338
  697TIP3   OH223581   1.421   3.016   1.742  0.5037  0.3375 -0.0340
  697TIP3    H123582   1.434   2.966   1.662  0.2898  2.8895 -1.7745
  697TIP3    H223583   1.433   2.952   1.813 -0.4410 -2.2731 -2.0710
  698TIP3   OH223584   4.973   3.171  13.618  0.1189  0.1611  0.4120
  698TIP3    H123585   4.883   3.137  13.612 -0.0478  0.8310 -1.5757
  698TIP3    H223586   4.977   3.214  13.703 -1.2190 -0.4903  0.8291
  699TIP3   OH223587   3.581   4.592   0.772 -0.7374  0.0371  0.0480
  699TIP3    H123588   3.500   4.563   0.815 -0.4900 -1.8777 -0.6819
  699TIP3    H223589   3.610   4.516   0.721  0.6219  1.2307 -1.0593
  700TIP3   OH223590   2.643   2.705   1.642 -0.5719  0.5715  0.3426
  700TIP3    H123591   2.563   2.745   1.608  0.5115  2.2338 -0.3794
  700TIP3    H223592   2.623   2.611   1.647 -2.6802  0.9842  0.5887
  701TIP3   OH223593   6.537   3.077  15.465 -0.4349  0.4457 -0.7538
  701TIP3    H123594   6.523   3.045  15.555 -1.1500  2.2837 -0.1598
  701TIP3    H223595   6.459   3.050  15.417 -1.7566  2.4475  0.1259
  702TIP3   OH223596   0.789   6.185  14.203 -1.1935 -0.2429 -0.0694
  702TIP3    H123597   0.756   6.097  14.219  1.4086 -1.1593  0.8583
  702TIP3    H223598   0.809   6.219  14.290  0.0218  0.3114 -0.5413
  703TIP3   OH223599   3.639   2.888  13.462  0.2951 -0.3576 -0.0412
  703TIP3    H123600   3.553   2.890  13.503 -0.1129  0.4769 -0.8958
  703TIP3    H223601   3.621   2.893  13.368  1.2357 -1.3150 -0.3038
  704TIP3   OH223602   0.733   3.091  11.754  0.3094 -0.5785  0.2964
  704TIP3    H123603   0.688   3.096  11.669  1.7383 -3.0258 -0.6913
  704TIP3    H223604   0.768   3.003  11.757 -0.2112 -0.7899  3.7685
  705TIP3   OH223605   5.004   5.615  15.049  0.2734 -0.0736  0.1884
  705TIP3    H123606   4.957   5.615  14.966  1.5455  1.2783 -0.5786
  705TIP3    H223607   4.935   5.612  15.116 -0.8042 -0.1844 -0.8942
  706TIP3   OH223608   5.591   2.255   2.435 -0.6247  0.7978  0.7260
  706TIP3    H123609   5.591   2.314   2.361  0.5948 -0.1039 -0.0332
  706TIP3    H223610   5.605   2.168   2.397 -1.9078  0.0607  1.8396
  707TIP3   OH223611   4.203   6.254  14.655  0.1827  0.1339  0.1930
  707TIP3    H123612   4.137   6.323  14.653 -0.4249 -0.3227  2.2413
  707TIP3    H223613   4.245   6.259  14.569 -1.1496  1.7512 -0.4262
  708TIP3   OH223614   1.543   0.996   5.483  0.0703 -0.0356 -0.1972
  708TIP3    H123615   1.612   1.033   5.538 -0.3549  1.0104 -0.3289
  708TIP3    H223616   1.492   0.941   5.543  0.6746 -0.3588  0.0287
  709TIP3   OH223617   3.922   4.593  14.903 -0.0852  0.5799 -0.7247
  709TIP3    H123618   3.891   4.559  14.819 -2.4341 -1.4719  0.8618
  709TIP3    H223619   3.959   4.518  14.948  1.7380  1.7823 -0.0960
  710TIP3   OH223620   2.768   1.800   2.838  0.6565 -0.4493 -0.0930
  710TIP3    H123621   2.806   1.842   2.915 -0.1741 -2.3755  1.4459
  710TIP3    H223622   2.675   1.821   2.842  0.5204 -1.0018 -0.2560
  711TIP3   OH223623   2.343   4.328   3.229 -0.2149  0.2474 -0.0847
  711TIP3    H123624   2.361   4.364   3.143 -2.3170 -0.4095 -0.8556
  711TIP3    H223625   2.428   4.326   3.273  1.1210 -0.5162 -2.5481
  712TIP3   OH223626   2.525   1.939   6.371  0.2441 -0.0992  0.0688
  712TIP3    H123627   2.560   1.921   6.458  0.7649 -1.0239 -0.3240
  712TIP3    H223628   2.593   1.909   6.310  0.0531  0.8714 -0.6588
  713TIP3   OH223629   0.618   0.616  11.213 -0.3907  0.3117  0.6730
  713TIP3    H123630   0.692   0.577  11.167 -2.2918 -2.6525 -0.1393
  713TIP3    H223631   0.599   0.554  11.284 -3.8419 -0.7503 -0.9488
  714TIP3   OH223632   6.028   6.584   1.983  0.6927 -0.0277 -0.2278
  714TIP3    H123633   5.986   6.660   2.023  0.2252  0.4558 -1.5987
  714TIP3    H223634   5.957   6.538   1.938  0.8553 -1.6198  1.0591
  715TIP3   OH223635   4.332   2.156  12.510 -1.0020 -0.9966 -0.3821
  715TIP3    H123636   4.322   2.079  12.565 -0.5749  0.7881  2.3735
  715TIP3    H223637   4.390   2.214  12.559 -0.3859  0.6557 -2.8596
  716TIP3   OH223638   5.062   6.428   4.107 -0.6770 -0.2925 -0.0243
  716TIP3    H123639   5.156   6.434   4.092 -0.4627  1.7504  1.6327
  716TIP3    H223640   5.023   6.443   4.021  0.5088 -0.2325 -0.5660
  717TIP3   OH223641   5.123   5.529   3.538  0.2555  0.0765  0.2819
  717TIP3    H123642   5.134   5.586   3.462 -2.1092  2.5251  1.5940
  717TIP3    H223643   5.089   5.447   3.502 -0.4669  1.0396 -1.3431
  718TIP3   OH223644   1.769   1.954  11.604  0.0520 -0.5499  0.0119
  718TIP3    H123645   1.712   1.919  11.673  0.9000 -1.6307  0.2022
  718TIP3    H223646   1.802   1.876  11.560  0.3402  0.1061 -0.9475
  719TIP3   OH223647   6.441   1.009   2.112 -0.3010  0.1263  0.5007
  719TIP3    H123648   6.378   1.030   2.043  0.2494  0.7655  0.1747
  719TIP3    H223649   6.392   0.956   2.174 -0.7762 -0.5771 -0.4534
  720TIP3   OH223650   1.976   3.265  15.204 -0.5349  0.5654 -0.0430
  720TIP3    H123651   1.880   3.265  15.202 -0.6530 -1.3908  2.0567
  720TIP3    H223652   2.001   3.184  15.161  0.3143  1.7138 -1.8422
  721TIP3   OH223653   4.438   3.554  12.235  0.0151  0.4375 -0.0895
  721TIP3    H123654   4.354   3.516  12.263  1.6621 -1.4726  2.6699
  721TIP3    H223655   4.463   3.502  12.159 -1.0347  0.6818 -0.6254
  722TIP3   OH223656   3.383   3.498  14.727 -0.9995  0.6191 -0.3371
  722TIP3    H123657   3.375   3.480  14.634 -0.8377  0.4562 -0.3201
  722TIP3    H223658   3.456   3.443  14.756  0.6497  2.5133 -0.6293
  723TIP3   OH223659   0.432   0.233  12.060  0.2981 -0.0915  0.1663
  723TIP3    H123660   0.483   0.302  12.101 -0.1562  0.1221  0.3867
  723TIP3    H223661   0.428   0.163  12.126 -0.1096  0.0964  0.3470
  724TIP3   OH223662   4.271   0.628   0.120  0.1415  0.3261  0.0687
  724TIP3    H123663   4.296   0.690   0.188  1.7793  0.4493 -0.5889
  724TIP3    H223664   4.334   0.644   0.049 -0.3708 -1.0278 -0.7316
  725TIP3   OH223665   5.056   4.839   4.938  0.4749 -0.2323  0.5443
  725TIP3    H123666   5.108   4.759   4.932 -0.8165 -1.0213 -0.8460
  725TIP3    H223667   5.120   4.910   4.938  1.6094 -1.2343  1.0470
  726TIP3   OH223668   0.793   3.098  16.141  0.5479 -0.6262  0.0940
  726TIP3    H123669   0.790   3.038  16.066 -0.6487 -1.8305  1.0465
  726TIP3    H223670   0.788   3.041  16.218 -2.2179  0.7162  1.0318
  727TIP3   OH223671   0.849   2.759   2.903 -0.2420  0.0437  0.1059
  727TIP3    H123672   0.888   2.816   2.970 -0.9930  0.5950  0.0847
  727TIP3    H223673   0.914   2.757   2.832 -0.4964  1.4340 -0.1873
  728TIP3   OH223674   0.040   0.339  15.234 -0.5156 -0.1754 -0.7250
  728TIP3    H123675  -0.036   0.293  15.268 -0.4757  0.2822 -0.0079
  728TIP3    H223676   0.115   0.286  15.260 -0.2611  1.4132  2.1845
  729TIP3   OH223677   4.311   4.895  14.181 -0.1635 -0.5008  0.3451
  729TIP3    H123678   4.240   4.897  14.116  1.3013 -2.1705 -1.4462
  729TIP3    H223679   4.295   4.972  14.236 -1.3564  1.2282 -2.1766
  730TIP3   OH223680   4.914   0.996  13.602  0.1682  0.5697  0.0426
  730TIP3    H123681   4.850   0.950  13.657  1.1322 -1.3693 -0.3541
  730TIP3    H223682   4.997   0.987  13.649  0.2083  3.2572  0.6668
  731TIP3   OH223683   6.034   1.976  13.652 -0.2743  0.0585 -0.3103
  731TIP3    H123684   6.023   2.038  13.723  0.1317 -0.4189  0.1788
  731TIP3    H223685   6.108   1.921  13.679 -0.5042 -0.5137 -0.8166
  732TIP3   OH223686   2.755   6.184   1.035 -0.2172  0.3072  0.2380
  732TIP3    H123687   2.671   6.152   1.067  0.0032 -0.3215  0.2050
  732TIP3    H223688   2.752   6.170   0.941 -0.4506  1.1828  0.1088
  733TIP3   OH223689   6.100   2.324  14.109 -0.0538 -0.2331  0.1576
  733TIP3    H123690   6.078   2.271  14.185 -0.1746 -1.8757 -0.9620
  733TIP3    H223691   6.190   2.298  14.088 -0.3925 -0.6219 -0.8767
  734TIP3   OH223692   0.080   5.626   1.511 -0.1472 -0.2937  0.0227
  734TIP3    H123693   0.037   5.542   1.524  0.4156 -0.4884  0.7117
  734TIP3    H223694   0.009   5.690   1.506 -0.6701 -0.9794 -2.1326
  735TIP3   OH223695   5.880   3.286  11.149 -0.5669 -0.0875 -0.3130
  735TIP3    H123696   5.934   3.277  11.070 -0.2056  0.7578 -0.1694
  735TIP3    H223697   5.804   3.338  11.120 -0.3815  0.3141 -0.0797
  736TIP3   OH223698   4.633   0.529   2.476 -0.5995  0.3999 -0.4237
  736TIP3    H123699   4.722   0.519   2.441 -0.8352 -0.6914 -0.7563
  736TIP3    H223700   4.612   0.444   2.513 -1.5729  0.5962 -0.4981
  737TIP3   OH223701   5.867   3.229  16.787 -0.2433  0.2294 -0.4182
  737TIP3    H123702   5.919   3.166  16.837 -2.1165 -1.4895 -0.4987
  737TIP3    H223703   5.782   3.186  16.776 -1.4566  2.5885 -0.9188
  738TIP3   OH223704   6.251   3.492   4.491  0.1669 -0.0893  0.0901
  738TIP3    H123705   6.192   3.508   4.418 -0.6846  0.1225  0.8017
  738TIP3    H223706   6.193   3.485   4.567  1.0494 -0.0525  0.7803
  739TIP3   OH223707   4.899   3.803   1.725  0.3926 -0.5144 -0.2800
  739TIP3    H123708   4.808   3.792   1.753  0.1153  0.6917 -0.6730
  739TIP3    H223709   4.946   3.732   1.769 -0.9430 -1.9357 -1.0533
  740TIP3   OH223710   2.951   2.668  13.258  0.0519 -0.6986 -0.8576
  740TIP3    H123711   2.934   2.651  13.351  2.9030  2.0891  0.3662
  740TIP3    H223712   3.000   2.591  13.228  0.2887 -1.0205  0.3135
  741TIP3   OH223713   0.515   4.035  16.408  0.3004 -0.2369 -0.0656
  741TIP3    H123714   0.543   3.994  16.326  0.3971  0.4807 -0.3946
  741TIP3    H223715   0.595   4.068  16.448  0.6776 -2.9322  1.6923
  742TIP3   OH223716   1.033   2.251   3.675  0.1608  0.1559 -0.0012
  742TIP3    H123717   1.121   2.289   3.678  0.2780 -0.0098 -0.9292
  742TIP3    H223718   1.046   2.159   3.696  0.2231  0.1108 -0.2368
  743TIP3   OH223719   5.032   4.096   6.057 -0.0976 -0.0714  0.1730
  743TIP3    H123720   5.092   4.045   6.111  0.0798 -0.0279  0.0202
  743TIP3    H223721   4.960   4.035   6.037 -0.7539  0.2637  1.4122
  744TIP3   OH223722   4.072   1.832   5.023 -0.4981 -0.5106  0.1743
  744TIP3    H123723   3.990   1.857   5.066 -1.7330  0.1340 -2.3473
  744TIP3    H223724   4.101   1.912   4.979  1.8302 -0.5890  1.4637
  745TIP3   OH223725   5.943   0.527   6.219  0.4970 -0.0359 -0.1194
  745TIP3    H123726   5.949   0.434   6.240 -0.3832 -0.6419 -2.2793
  745TIP3    H223727   5.852   0.550   6.242  0.2304 -0.1315 -1.0469
  746TIP3   OH223728   4.950   2.771   6.820  0.5421 -0.3757  0.5183
  746TIP3    H123729   4.855   2.767   6.817  0.5114 -0.4909  1.4062
  746TIP3    H223730   4.977   2.685   6.852  0.8679  0.1175  1.6029
  747TIP3   OH223731   0.839   6.400   5.025 -0.1833 -0.0273  0.1804
  747TIP3    H123732   0.857   6.352   4.944 -1.2099 -0.9905  0.4844
  747TIP3    H223733   0.755   6.444   5.008 -0.1621  0.1562  0.5443
  748TIP3   OH223734   6.715   2.416  15.909 -0.0198 -0.2124 -0.2234
  748TIP3    H123735   6.707   2.326  15.940 -1.4110 -0.0061  0.0697
  748TIP3    H223736   6.654   2.422  15.836  1.1297  0.1114 -1.1961
  749TIP3   OH223737   3.522   2.973   5.555 -0.3921 -0.2630  0.0294
  749TIP3    H123738   3.548   3.038   5.489  2.6622  1.0080  2.2466
  749TIP3    H223739   3.452   3.016   5.605 -1.4456 -0.5085 -1.1894
  750TIP3   OH223740   2.068   3.196   3.627  0.4111 -0.4389 -0.1688
  750TIP3    H123741   2.099   3.196   3.718  1.0024 -0.1710 -0.3643
  750TIP3    H223742   2.001   3.264   3.625 -0.8037 -1.5738  0.4487
  751TIP3   OH223743   2.108   5.457   2.633  0.5744 -0.3317 -0.2111
  751TIP3    H123744   2.161   5.405   2.573 -2.1947 -2.9308 -0.6524
  751TIP3    H223745   2.027   5.407   2.642 -0.5204  1.7347  2.9707
  752TIP3   OH223746   1.047   5.792  10.888 -0.0380 -0.0733  0.2377
  752TIP3    H123747   0.962   5.838  10.889 -0.8132 -1.4421 -0.7499
  752TIP3    H223748   1.025   5.700  10.901  1.3648 -0.3895  0.5445
  753TIP3   OH223749   3.316   4.003  16.595  0.2169  0.3117  0.1447
  753TIP3    H123750   3.363   4.048  16.524 -0.6648  1.9705  0.5613
  753TIP3    H223751   3.245   4.063  16.619  0.4372 -0.2238  2.3764
  754TIP3   OH223752   3.269   4.767  13.299  0.0003  0.0378 -0.5442
  754TIP3    H123753   3.188   4.716  13.289 -0.1785  0.3423 -0.6707
  754TIP3    H223754   3.330   4.729  13.236 -0.5645  0.8406 -1.5982
  755TIP3   OH223755   0.584   4.355   4.159 -0.4350  0.0058 -0.3465
  755TIP3    H123756   0.608   4.285   4.221 -0.9977 -1.1266 -1.3596
  755TIP3    H223757   0.526   4.312   4.096 -2.0462  1.7514 -0.1492
  756TIP3   OH223758   5.429   2.113   5.068 -0.6647  0.0543  0.2197
  756TIP3    H123759   5.349   2.111   5.121 -1.4991  0.7276 -0.9848
  756TIP3    H223760   5.417   2.186   5.008  0.3172 -0.6022 -0.8136
  757TIP3   OH223761   5.519   6.291  10.907 -0.0859 -0.4097 -0.6354
  757TIP3    H123762   5.448   6.351  10.889  0.8647  0.6171 -1.0625
  757TIP3    H223763   5.532   6.243  10.825 -0.7610 -1.1221 -0.3324
  758TIP3   OH223764   4.900   6.446  14.453 -0.2093 -0.6944 -0.0300
  758TIP3    H123765   4.849   6.502  14.511  0.1111 -1.2505  0.7977
  758TIP3    H223766   4.856   6.453  14.368 -0.6934  0.1033  0.2772
  759TIP3   OH223767   4.659   0.006  14.725 -0.1754  0.3249  0.1705
  759TIP3    H123768   4.751   0.029  14.719 -0.3074  0.9932  0.5618
  759TIP3    H223769   4.656  -0.088  14.709  0.1081  0.8310 -4.3091
  760TIP3   OH223770   1.087   3.413  11.174  0.3451 -0.2859  0.0522
  760TIP3    H123771   1.086   3.473  11.100 -1.4350 -0.8118 -0.3895
  760TIP3    H223772   1.031   3.340  11.147  0.0806 -0.7365  1.7081
  761TIP3   OH223773   4.653   2.479  11.330 -0.0441  0.3916 -0.5848
  761TIP3    H123774   4.560   2.484  11.351  0.3839  1.2838  1.3297
  761TIP3    H223775   4.688   2.564  11.355  2.1902 -1.5154  3.9674
  762TIP3   OH223776   0.603   2.551  16.523  0.6564  0.6535 -0.6384
  762TIP3    H123777   0.587   2.487  16.592 -0.3239  1.6791  0.1218
  762TIP3    H223778   0.671   2.511  16.468  0.1441 -0.9714 -0.1387
  763TIP3   OH223779   1.433   0.615  11.180 -0.5577 -0.0221 -0.1507
  763TIP3    H123780   1.484   0.535  11.190 -2.0724 -0.9741  0.2745
  763TIP3    H223781   1.405   0.637  11.269  1.0643  1.8670 -0.0319
  764TIP3   OH223782   2.960   3.020  14.539 -1.3337 -0.4110 -0.0493
  764TIP3    H123783   2.865   3.012  14.542 -1.5866  1.9168  0.0039
  764TIP3    H223784   2.992   2.934  14.568 -3.3860 -1.4024 -0.5217
  765TIP3   OH223785   0.592   6.797  11.151 -0.4508  0.3401  0.6687
  765TIP3    H123786   0.562   6.725  11.207 -2.1138  0.4462 -0.0295
  765TIP3    H223787   0.560   6.775  11.064  0.2617  1.2325  0.1586
  766TIP3   OH223788   1.342   5.112  15.677  0.1192 -0.4844  0.1194
  766TIP3    H123789   1.403   5.086  15.608  0.3422 -2.0303  0.8568
  766TIP3    H223790   1.390   5.175  15.730  0.2608  0.0208 -0.6002
  767TIP3   OH223791   2.690   3.864  16.539 -0.3168  0.1484 -0.7340
  767TIP3    H123792   2.729   3.950  16.526  0.7099 -0.0597  0.7846
  767TIP3    H223793   2.648   3.844  16.455  1.6239  1.0121 -1.9870
  768TIP3   OH223794   2.058   1.583  16.333 -0.0963 -0.5403  0.9555
  768TIP3    H123795   1.989   1.528  16.370 -0.0231 -0.3976  1.3079
  768TIP3    H223796   2.122   1.521  16.299  0.5476 -0.7004  2.3898
  769TIP3   OH223797   5.488   4.362  11.681  0.2286  0.7482 -0.4987
  769TIP3    H123798   5.571   4.315  11.688  0.2881  0.0923 -3.8199
  769TIP3    H223799   5.438   4.335  11.757  2.6094  0.2782  0.9970
  770TIP3   OH223800   0.582   6.680  10.533  0.6332  0.6658 -0.2431
  770TIP3    H123801   0.589   6.585  10.523 -1.4261  0.3358  0.8993
  770TIP3    H223802   0.670   6.713  10.511  1.9400 -1.6569  1.0783
  771TIP3   OH223803   1.060   1.557   0.627  0.0071 -0.1082 -0.7681
  771TIP3    H123804   1.118   1.481   0.637 -0.8715 -0.6704  0.1643
  771TIP3    H223805   0.972   1.520   0.625 -0.4309  0.8844 -0.2934
  772TIP3   OH223806   2.897   0.149   4.294  0.1710 -0.1107  0.4857
  772TIP3    H123807   2.883   0.070   4.242  1.2615 -1.2039  1.7823
  772TIP3    H223808   2.858   0.130   4.379 -1.4311  1.5858  0.1811
  773TIP3   OH223809   4.031   2.155  15.557 -0.0605 -0.4427  0.1414
  773TIP3    H123810   3.986   2.216  15.615 -1.2670 -0.8739 -0.3010
  773TIP3    H223811   4.114   2.137  15.601 -0.3676  0.2778  1.0573
  774TIP3   OH223812   5.772   6.428   2.618  0.1331 -0.0774 -0.4391
  774TIP3    H123813   5.705   6.497   2.613 -0.1194 -0.4045 -2.3147
  774TIP3    H223814   5.757   6.387   2.703 -1.5995  0.3154 -0.5097
  775TIP3   OH223815   0.648   4.931   2.047 -0.1220  0.0282 -0.6936
  775TIP3    H123816   0.732   4.884   2.053 -0.4338 -0.4503  0.3099
  775TIP3    H223817   0.634   4.944   1.954  1.0738  0.1210 -0.8823
  776TIP3   OH223818   1.898   5.453   4.750  0.6239 -0.0064  0.0465
  776TIP3    H123819   1.966   5.386   4.745  0.6396 -0.0695  0.9344
  776TIP3    H223820   1.857   5.440   4.835 -0.7368 -0.1880 -0.5914
  777TIP3   OH223821   5.750   5.596   4.422 -0.2814  0.6383  0.0685
  777TIP3    H123822   5.765   5.538   4.348  0.6342  0.3229  0.4872
  777TIP3    H223823   5.664   5.635   4.405 -0.7421 -0.5314 -0.4194
  778TIP3   OH223824   3.116   0.221   0.363  0.4404  0.2488  0.0026
  778TIP3    H123825   3.073   0.262   0.438  0.0422  0.2209 -0.2053
  778TIP3    H223826   3.157   0.293   0.316  0.5976  0.2800  0.1906
  779TIP3   OH223827   6.286   0.394  14.309  0.8410  1.0283 -0.8827
  779TIP3    H123828   6.193   0.401  14.329  1.2061  1.3297  0.7741
  779TIP3    H223829   6.295   0.307  14.269 -0.0933  0.8525 -0.7326
  780TIP3   OH223830   0.433   1.965  14.505 -0.1679 -0.1657  0.2162
  780TIP3    H123831   0.350   1.976  14.460  0.5907  0.9086 -0.9933
  780TIP3    H223832   0.422   2.011  14.588 -0.7415  0.0851  0.0013
  781TIP3   OH223833   0.809   6.255  12.738  0.0432 -0.6999  0.0180
  781TIP3    H123834   0.754   6.191  12.692 -0.9551 -0.9786  1.5289
  781TIP3    H223835   0.860   6.204  12.800  0.7345 -0.2312 -0.1427
  782TIP3   OH223836   5.217   1.629   3.586 -0.4870  0.1936  0.1138
  782TIP3    H123837   5.298   1.603   3.629 -0.3347  0.0216 -0.2768
  782TIP3    H223838   5.159   1.656   3.658 -0.0099  0.5281  0.3717
  783TIP3   OH223839   1.372   3.406  11.914 -0.1916 -0.0526  0.5403
  783TIP3    H123840   1.407   3.350  11.845 -0.6427 -0.7238  0.8459
  783TIP3    H223841   1.401   3.364  11.995  1.4344  1.4188  0.7868
  784TIP3   OH223842   1.098   3.679   0.557  0.5864 -0.0983 -0.3616
  784TIP3    H123843   1.187   3.660   0.587  0.3657 -0.6021 -0.0191
  784TIP3    H223844   1.110   3.715   0.469  1.1549  0.2497 -0.1510
  785TIP3   OH223845   0.618   5.980   0.863  0.4782  0.4687 -0.2748
  785TIP3    H123846   0.628   5.970   0.958  1.1113  3.6600  0.0960
  785TIP3    H223847   0.528   6.012   0.852  0.2042 -0.4641 -0.8449
  786TIP3   OH223848   3.859   3.466   6.281  0.1535 -0.0598  0.6803
  786TIP3    H123849   3.790   3.527   6.254 -1.1162 -1.2594  1.1309
  786TIP3    H223850   3.878   3.491   6.372  0.3567  0.3136  0.5358
  787TIP3   OH223851   1.482   6.530   0.352  0.3160 -0.1274 -0.2428
  787TIP3    H123852   1.437   6.480   0.421  0.2336 -0.1266 -0.2959
  787TIP3    H223853   1.436   6.506   0.271  0.7284 -0.5053 -0.3651
  788TIP3   OH223854   1.789   6.241   2.211 -0.5328  0.0941 -0.2083
  788TIP3    H123855   1.789   6.336   2.199 -1.0072  0.0107 -0.9089
  788TIP3    H223856   1.701   6.221   2.243 -0.1004  0.0067  0.9811
  789TIP3   OH223857   6.460   1.962  14.242  0.2337 -0.0711  0.0393
  789TIP3    H123858   6.378   1.921  14.271  0.3259  0.5108  1.2026
  789TIP3    H223859   6.451   1.969  14.147  0.4902 -3.3475 -0.3223
  790TIP3   OH223860   3.894   0.061  11.426  0.4441 -0.5524 -0.4577
  790TIP3    H123861   3.925   0.001  11.494  0.2571 -0.2126 -0.0776
  790TIP3    H223862   3.808   0.089  11.455  0.8905  0.6009 -0.1859
  791TIP3   OH223863   4.523   5.281  15.705  0.1594 -0.4124 -0.8238
  791TIP3    H123864   4.520   5.287  15.609 -2.5019 -0.2010 -0.7999
  791TIP3    H223865   4.528   5.371  15.734 -0.4768 -0.3933 -0.7645
  792TIP3   OH223866   3.493   4.581  15.238 -0.2556 -1.1954  0.2650
  792TIP3    H123867   3.458   4.664  15.269  1.2164 -0.1914 -0.6321
  792TIP3    H223868   3.567   4.563  15.296 -1.2876 -2.5462  1.2321
  793TIP3   OH223869   3.977   1.861   1.160  0.1384 -0.2575 -0.1789
  793TIP3    H123870   4.026   1.863   1.242 -1.3572 -0.9056  0.7624
  793TIP3    H223871   3.934   1.946   1.155  1.2215  0.2735 -0.9571
  794TIP3   OH223872   4.666   1.102   6.459  0.3408  0.9135  0.1609
  794TIP3    H123873   4.760   1.090   6.470  0.0897 -0.9517  0.4550
  794TIP3    H223874   4.631   1.104   6.548 -0.0463  0.2438  0.0288
  795TIP3   OH223875   6.248   2.046   2.205  0.4879 -0.5335  0.4907
  795TIP3    H123876   6.234   2.070   2.297  0.5327  0.7573  0.1807
  795TIP3    H223877   6.162   2.017   2.175 -0.2251  1.7125  0.2040
  796TIP3   OH223878   6.752   3.377   1.081  0.3943  0.4425 -0.0761
  796TIP3    H123879   6.760   3.286   1.109 -0.9095 -0.0070 -1.0196
  796TIP3    H223880   6.833   3.396   1.035  1.4652  0.3788  1.7005
  797TIP3   OH223881   6.572   1.170   5.859  0.3125 -0.4228 -0.3841
  797TIP3    H123882   6.562   1.137   5.948 -0.7369  0.2096 -0.2431
  797TIP3    H223883   6.512   1.117   5.807  0.5250 -0.4368 -0.6142
  798TIP3   OH223884   4.448   2.981   3.490 -0.7391 -0.2114 -0.2017
  798TIP3    H123885   4.493   2.984   3.574  0.4119  2.7955 -0.7815
  798TIP3    H223886   4.517   2.969   3.425 -1.0784  1.2644 -0.8966
  799TIP3   OH223887   4.057   3.071   3.154  0.2776 -0.3249  0.1325
  799TIP3    H123888   4.125   3.028   3.206 -1.6672 -0.8659  2.4540
  799TIP3    H223889   4.022   3.001   3.098  1.2839 -0.1609 -0.7176
  800TIP3   OH223890   3.832   0.290  10.637  0.0286 -0.3582  0.0809
  800TIP3    H123891   3.821   0.209  10.586 -0.9545  0.3778 -0.9339
  800TIP3    H223892   3.766   0.349  10.601  0.1013  0.5854  1.4583
  801TIP3   OH223893   3.109   6.489   3.302 -0.4956 -1.1804  0.2472
  801TIP3    H123894   3.179   6.520   3.359 -0.9881 -0.3616  0.4250
  801TIP3    H223895   3.032   6.540   3.328 -0.7196 -0.7315 -1.1825
  802TIP3   OH223896   2.494   6.335  16.848  0.2833 -0.9647 -0.3677
  802TIP3    H123897   2.446   6.261  16.811  1.0758 -1.6307 -0.0818
  802TIP3    H223898   2.442   6.364  16.922 -1.0268  0.0084 -1.6052
  803TIP3   OH223899   3.751   2.947  10.839 -0.4685  0.2810  0.4246
  803TIP3    H123900   3.686   2.878  10.855  0.4683 -0.5601  0.7309
  803TIP3    H223901   3.831   2.899  10.818  0.0556  1.2996  0.0444
  804TIP3   OH223902   2.077   4.632   1.846  0.1471 -0.4030  0.1671
  804TIP3    H123903   2.103   4.698   1.910 -0.9932 -0.7860  1.0442
  804TIP3    H223904   1.990   4.659   1.817  0.7647 -0.0500 -1.5023
  805TIP3   OH223905   0.587   4.957  16.451 -0.1464 -0.1251  0.2338
  805TIP3    H123906   0.522   4.909  16.400  0.0132 -3.2387  2.6522
  805TIP3    H223907   0.538   4.996  16.523  0.2010  0.4710  0.1520
  806TIP3   OH223908   4.803   2.378  15.150 -0.0737  0.1543  0.3760
  806TIP3    H123909   4.746   2.373  15.074 -1.3134 -2.2403  1.3348
  806TIP3    H223910   4.892   2.374  15.115 -0.5394  1.1773 -0.9975
  807TIP3   OH223911   0.171   3.587   1.498 -0.0282 -0.3142 -0.1337
  807TIP3    H123912   0.237   3.518   1.485  0.9461  0.6113 -0.2623
  807TIP3    H223913   0.174   3.637   1.417 -1.6300 -0.8393 -0.5449
  808TIP3   OH223914   1.400   5.213  14.261  0.0858 -0.4776  0.1275
  808TIP3    H123915   1.387   5.307  14.263 -0.8391 -0.4211 -2.8478
  808TIP3    H223916   1.336   5.178  14.324 -0.4846  0.8235  0.2943
  809TIP3   OH223917   0.934   2.119  12.852 -0.8484  0.3729 -0.0473
  809TIP3    H123918   0.965   2.185  12.914  0.8426 -0.0033 -0.4484
  809TIP3    H223919   0.880   2.061  12.906 -0.5879  0.8615  0.7689
  810TIP3   OH223920   0.898   3.305  11.537 -0.7447  0.1135  0.3281
  810TIP3    H123921   0.885   3.392  11.574 -1.7778 -0.4318  1.3068
  810TIP3    H223922   0.845   3.305  11.457 -0.1938  0.6020 -0.0405
  811TIP3   OH223923   2.754   3.287   4.847 -0.1594 -0.2759  0.0743
  811TIP3    H123924   2.830   3.237   4.816 -0.4590 -1.2318  0.8314
  811TIP3    H223925   2.762   3.287   4.942  0.2924  1.9137  0.0860
  812TIP3   OH223926   3.803   1.743   3.816  0.1635 -0.0174  0.1359
  812TIP3    H123927   3.825   1.668   3.871 -1.9291 -0.8061  0.0026
  812TIP3    H223928   3.757   1.704   3.741  0.3133  1.2847 -0.6497
  813TIP3   OH223929   2.968   1.456   6.017  0.2611 -0.1504 -0.5246
  813TIP3    H123930   2.999   1.465   5.927 -0.1388  0.2382 -0.6273
  813TIP3    H223931   2.998   1.370   6.045  0.5660 -0.1850 -0.9601
  814TIP3   OH223932   2.911   1.687   6.210  0.2686 -0.3064 -0.0244
  814TIP3    H123933   2.837   1.629   6.227  0.1607  0.2342  1.5386
  814TIP3    H223934   2.988   1.631   6.218  0.1217 -0.4289  0.6473
  815TIP3   OH223935   5.111   3.148  12.466  0.3616  0.5546  0.5065
  815TIP3    H123936   5.178   3.211  12.440  0.0439  0.9362  0.6141
  815TIP3    H223937   5.076   3.183  12.548 -1.8672  1.8098 -0.8949
  816TIP3   OH223938   4.739   3.936   0.328 -0.2804 -0.1679  0.3186
  816TIP3    H123939   4.814   3.939   0.268 -0.7018  0.7850 -0.1836
  816TIP3    H223940   4.745   4.016   0.379 -1.5375  0.4787 -0.4803
  817TIP3   OH223941   0.464   3.454   4.498 -0.1883 -0.0404  0.1942
  817TIP3    H123942   0.531   3.505   4.452  0.2613 -1.3377 -0.6203
  817TIP3    H223943   0.381   3.492   4.469  0.1576  1.0606  0.5952
  818TIP3   OH223944   5.005   3.880  11.855  0.2443 -0.0059  0.1893
  818TIP3    H123945   4.957   3.829  11.921  1.1490 -0.8328  0.2343
  818TIP3    H223946   5.094   3.844  11.858  0.0149 -0.9191 -2.3745
  819TIP3   OH223947   0.979   2.858  13.471  0.6962  0.2453 -0.4626
  819TIP3    H123948   0.909   2.923  13.472  0.1124 -0.3529  0.8534
  819TIP3    H223949   1.059   2.908  13.457 -0.0005  0.9202 -2.2047
  820TIP3   OH223950   1.927   0.959  13.094 -0.2724  0.5161 -0.0874
  820TIP3    H123951   1.872   1.032  13.066 -0.8227  0.5298  0.9911
  820TIP3    H223952   1.878   0.880  13.070 -0.3156  0.5200 -0.0134
  821TIP3   OH223953   0.319   1.804   2.771 -0.4020 -1.0148  0.3788
  821TIP3    H123954   0.320   1.729   2.712 -2.4632  0.4339 -1.6797
  821TIP3    H223955   0.230   1.805   2.807 -1.7187  2.2265 -2.3714
  822TIP3   OH223956   4.931   6.511   2.105  0.4103 -0.1099  0.2567
  822TIP3    H123957   4.954   6.451   2.034  1.4370 -1.2311  1.4821
  822TIP3    H223958   4.906   6.592   2.061  0.3418 -0.9880 -1.3974
  823TIP3   OH223959   4.956   5.644   2.870  0.0566  0.3828  0.3096
  823TIP3    H123960   4.993   5.572   2.921 -3.0361 -0.3041  1.8263
  823TIP3    H223961   5.004   5.721   2.900  2.7437 -0.7935 -0.6116
  824TIP3   OH223962   6.530   5.681  16.636  0.1815 -0.1290 -0.4404
  824TIP3    H123963   6.614   5.726  16.630  1.6415 -2.6527 -0.4766
  824TIP3    H223964   6.504   5.667  16.545 -0.5793  1.0925 -0.4311
  825TIP3   OH223965   6.530   0.461  15.371  0.4676  0.2873  0.4271
  825TIP3    H123966   6.452   0.423  15.412  2.2082 -0.5918  3.1709
  825TIP3    H223967   6.495   0.529  15.313 -2.3220  0.3316  1.9645
  826TIP3   OH223968   5.323   6.415  14.770  0.4844  0.0288 -0.4858
  826TIP3    H123969   5.245   6.461  14.740 -0.3405 -0.6750  0.4776
  826TIP3    H223970   5.395   6.452  14.720 -0.2379  1.9014 -0.2044
  827TIP3   OH223971   4.646   1.977  11.394 -0.0774 -0.4460 -0.0158
  827TIP3    H123972   4.719   1.918  11.371  0.1478  0.1202 -0.7815
  827TIP3    H223973   4.670   2.061  11.355 -0.1327  0.3237  1.5287
  828TIP3   OH223974   5.925   2.929  13.529  0.2623  0.1238 -0.4637
  828TIP3    H123975   5.991   2.999  13.532  0.3013  0.0555  0.8207
  828TIP3    H223976   5.973   2.853  13.494  0.1512  0.7756 -2.1165
  829TIP3   OH223977   3.727   1.311   3.815 -0.2779  0.1249  0.2517
  829TIP3    H123978   3.790   1.382   3.810  0.6617 -0.6611  0.5074
  829TIP3    H223979   3.777   1.233   3.792 -0.6720 -0.7911  2.2973
  830TIP3   OH223980   5.580   3.118   1.752 -0.0993  0.3244 -0.3828
  830TIP3    H123981   5.496   3.084   1.785  0.8540 -0.6114  1.1813
  830TIP3    H223982   5.617   3.045   1.702  1.2089 -0.4485  1.6160
  831TIP3   OH223983   3.856   5.333  10.791 -0.1029  0.4649 -0.2331
  831TIP3    H123984   3.849   5.263  10.726 -2.4423 -0.9011  1.3765
  831TIP3    H223985   3.867   5.287  10.875  0.3930  2.1144  0.6498
  832TIP3   OH223986   1.687   5.578   2.002  0.3097  0.1287 -0.0579
  832TIP3    H123987   1.715   5.530   1.924  2.0719 -3.0630  2.3084
  832TIP3    H223988   1.755   5.645   2.013  0.9986 -0.5058 -0.3343
  833TIP3   OH223989   5.624   0.755   2.906  0.3372  0.0075 -0.2488
  833TIP3    H123990   5.660   0.727   2.822  2.0939  2.0286 -0.2656
  833TIP3    H223991   5.607   0.849   2.895 -1.7881 -0.1791  0.9077
  834TIP3   OH223992   5.919   2.888   0.347 -0.0776 -0.3529  0.1509
  834TIP3    H123993   5.858   2.950   0.305 -0.1130 -0.3413  0.2193
  834TIP3    H223994   5.932   2.924   0.434  0.4426 -0.0694 -0.0400
  835TIP3   OH223995   0.327   4.003  13.366  0.5223 -0.6439  0.4929
  835TIP3    H123996   0.267   4.077  13.375  0.2908 -0.6389 -0.8588
  835TIP3    H223997   0.350   3.979  13.456 -1.4554 -0.6035  1.0414
  836TIP3   OH223998   5.706   3.798  13.426 -0.1247  0.5542 -0.1392
  836TIP3    H123999   5.797   3.818  13.445 -0.6331  2.5160  0.3861
  836TIP3    H224000   5.684   3.854  13.351 -1.8447  2.8695  1.9380
  837TIP3   OH224001   1.864   1.271   0.951 -0.0575  0.3642 -0.2054
  837TIP3    H124002   1.792   1.326   0.981 -0.2763  0.1319 -0.2975
  837TIP3    H224003   1.883   1.213   1.025  0.1234  0.5127 -0.1343
  838TIP3   OH224004   5.933   1.637   0.171  0.3514  0.2892  0.6870
  838TIP3    H124005   5.880   1.567   0.209  1.1185 -0.6603  0.0443
  838TIP3    H224006   5.882   1.669   0.097  0.9332 -1.0704 -0.3357
  839TIP3   OH224007   0.173   2.789  12.418 -0.6533 -0.6441  0.0697
  839TIP3    H124008   0.150   2.880  12.435 -0.0935 -0.4747 -0.0492
  839TIP3    H224009   0.141   2.741  12.494 -1.5960 -0.4529 -0.2024
  840TIP3   OH224010   0.941   6.055   0.531  0.0535  0.0670  0.1203
  840TIP3    H124011   0.861   6.011   0.503  0.9789 -1.1553 -0.6694
  840TIP3    H224012   0.985   5.992   0.588 -0.4605  1.4770  2.2074
  841TIP3   OH224013   2.826   2.382   4.995  0.3229  0.7737  0.8279
  841TIP3    H124014   2.739   2.395   5.032  1.5251  0.3421  4.1356
  841TIP3    H224015   2.835   2.287   4.986 -0.1849  0.8819 -1.4383
  842TIP3   OH224016   4.363   6.309   1.895  0.2292 -0.4719 -0.1066
  842TIP3    H124017   4.454   6.334   1.914  0.5819 -1.0176 -0.9780
  842TIP3    H224018   4.359   6.306   1.799 -1.3419  1.7797 -0.1947
  843TIP3   OH224019   3.813   3.497  16.955 -0.0156 -0.6971  0.1773
  843TIP3    H124020   3.725   3.485  16.920  0.0750  1.1435 -0.8217
  843TIP3    H224021   3.809   3.582  17.000  1.3688 -0.3415 -0.3275
  844TIP3   OH224022   2.664   6.406   5.342 -0.1544 -0.2790 -0.2477
  844TIP3    H124023   2.612   6.388   5.263 -0.2996 -0.7098 -0.0546
  844TIP3    H224024   2.749   6.434   5.308  0.3222 -2.0073 -0.5776
  845TIP3   OH224025   1.336   3.356  14.361 -0.0713 -0.1071  0.1825
  845TIP3    H124026   1.280   3.422  14.401 -1.5669 -0.7397 -0.7507
  845TIP3    H224027   1.284   3.275  14.365  0.2508 -0.4596 -1.7704
  846TIP3   OH224028   3.539   0.176   3.151 -0.0207 -0.0087  0.6885
  846TIP3    H124029   3.615   0.118   3.145  0.1712  0.3994 -2.6717
  846TIP3    H224030   3.468   0.128   3.108 -1.0031  0.6764  1.4839
  847TIP3   OH224031   2.943   2.385  15.154  0.4962 -0.5392 -0.1448
  847TIP3    H124032   3.022   2.439  15.152 -0.8329  1.4804 -1.3861
  847TIP3    H224033   2.901   2.401  15.069 -0.0407 -3.5023 -0.5495
  848TIP3   OH224034   2.401   5.773  14.900 -0.2683 -0.1374 -0.3538
  848TIP3    H124035   2.354   5.827  14.835  0.3370 -0.2771 -0.9200
  848TIP3    H224036   2.460   5.835  14.943  0.6060 -0.3715 -1.1756
  849TIP3   OH224037   4.705   2.669   3.157 -0.0691 -0.0429 -0.1245
  849TIP3    H124038   4.751   2.740   3.202  0.3092 -1.5998  2.1590
  849TIP3    H224039   4.633   2.646   3.216  0.3779 -2.1329 -0.3015
  850TIP3   OH224040   0.375   1.868   6.204 -0.3307 -0.5375 -0.3409
  850TIP3    H124041   0.418   1.792   6.163  0.9313 -1.1684  1.9839
  850TIP3    H224042   0.447   1.926   6.229 -1.0279 -0.2203  1.0181
  851TIP3   OH224043   1.206   0.834   5.770  0.4349 -0.5056 -0.1366
  851TIP3    H124044   1.219   0.904   5.706 -0.0575  2.3944  2.6629
  851TIP3    H224045   1.143   0.775   5.729 -0.7963  1.8567 -1.8826
  852TIP3   OH224046   1.603   6.604  14.609  0.4835  0.1047 -0.2411
  852TIP3    H124047   1.601   6.615  14.514  1.8801 -0.6751 -0.3860
  852TIP3    H224048   1.696   6.612  14.632  0.4520 -1.8418  0.7760
  853TIP3   OH224049   4.813   5.657   5.199  0.2508 -0.7907 -0.0566
  853TIP3    H124050   4.889   5.705   5.233  0.0462  0.8367 -1.7015
  853TIP3    H224051   4.738   5.696   5.243  0.1149  0.2126 -1.1224
  854TIP3   OH224052   3.988   0.782   3.117  0.3948 -0.3970  0.0609
  854TIP3    H124053   4.063   0.779   3.058  0.7185  1.7324  0.2759
  854TIP3    H224054   4.020   0.830   3.194 -0.8350 -0.5374  0.6914
  855TIP3   OH224055   3.143   3.298  16.000 -0.0300  0.4977  0.2371
  855TIP3    H124056   3.236   3.310  16.021  0.4455 -2.4727  0.2155
  855TIP3    H224057   3.141   3.221  15.944 -2.4338  1.2519 -0.8503
  856TIP3   OH224058   1.092   1.533  14.532 -0.9420  0.2575  0.4015
  856TIP3    H124059   1.167   1.563  14.480 -2.7327  1.7708 -1.4912
  856TIP3    H224060   1.118   1.446  14.563  1.5901  0.7308 -0.1155
  857TIP3   OH224061   5.927   0.160   5.670  0.2113  0.3961 -0.2718
  857TIP3    H124062   5.878   0.090   5.713  1.0392 -0.2782 -0.4173
  857TIP3    H224063   6.008   0.167   5.719 -0.5178  2.3892  0.7662
  858TIP3   OH224064   4.456   4.956   2.991  0.5995  0.1076 -0.2361
  858TIP3    H124065   4.406   4.990   2.917  0.0678  0.6143  0.3335
  858TIP3    H224066   4.389   4.930   3.055  1.0251 -1.0574 -0.2392
  859TIP3   OH224067   3.985   2.435  14.839  0.2097 -0.0706  0.0311
  859TIP3    H124068   3.925   2.375  14.797 -0.9549 -0.1173  1.6674
  859TIP3    H224069   3.948   2.522  14.823 -0.7384 -0.1424  1.6194
  860TIP3   OH224070   0.695   3.554   2.853 -0.1489  0.1588 -0.6189
  860TIP3    H124071   0.606   3.531   2.824  0.2447  0.5179 -2.2019
  860TIP3    H224072   0.697   3.650   2.851 -0.0507  0.1951  0.5070
  861TIP3   OH224073   2.254   6.342  12.500  0.1536  0.1488  0.3001
  861TIP3    H124074   2.251   6.247  12.503  0.8522  0.0754 -0.7659
  861TIP3    H224075   2.303   6.367  12.578 -1.6214 -0.2258  1.6119
  862TIP3   OH224076   3.798   6.702  15.246 -0.0116  0.4107  0.2610
  862TIP3    H124077   3.758   6.788  15.249  1.0246  0.8984  2.5961
  862TIP3    H224078   3.736   6.644  15.290  0.0074  0.3105  0.1576
  863TIP3   OH224079   1.886   0.829  14.869  0.1564  0.5981 -0.5017
  863TIP3    H124080   1.972   0.853  14.834  1.0804  0.7739  1.7302
  863TIP3    H224081   1.826   0.839  14.795  2.0997  0.0472 -2.2565
  864TIP3   OH224082   6.813   1.302   1.772 -0.4809  0.5327 -0.1855
  864TIP3    H124083   6.797   1.229   1.833 -0.8838  0.4584 -0.3747
  864TIP3    H224084   6.794   1.265   1.686 -1.2194  1.0172 -0.2353
  865TIP3   OH224085   2.893   4.993  13.316 -0.1344 -0.5301 -0.1958
  865TIP3    H124086   2.798   4.992  13.327 -0.1517  0.6128 -0.0525
  865TIP3    H224087   2.926   5.018  13.402  0.2779 -0.6472 -0.3207
  866TIP3   OH224088   3.152   2.408   2.457  0.1443 -0.1161 -0.4818
  866TIP3    H124089   3.199   2.455   2.527 -0.8472 -0.7113  0.6164
  866TIP3    H224090   3.088   2.472   2.425 -1.0791 -0.6103  0.8856
  867TIP3   OH224091   3.539   1.665   2.089 -0.3504 -0.0232  0.1246
  867TIP3    H124092   3.480   1.723   2.137 -0.1689  1.3232 -1.2156
  867TIP3    H224093   3.619   1.717   2.078  1.2933 -1.9032  2.1949
  868TIP3   OH224094   3.645   6.644   3.028 -0.0734 -0.4649 -0.5701
  868TIP3    H124095   3.624   6.626   3.120  0.8833 -1.9111 -0.6099
  868TIP3    H224096   3.689   6.729   3.029 -1.0666  0.0635  0.1497
  869TIP3   OH224097   4.904   2.093  17.209  0.2744  0.2254  0.1293
  869TIP3    H124098   4.895   2.019  17.268 -0.0632  0.3059  0.1810
  869TIP3    H224099   4.935   2.054  17.126  2.6213  0.3263  0.8733
  870TIP3   OH224100   5.282   4.429  12.391 -0.0001 -0.0079  0.1108
  870TIP3    H124101   5.350   4.365  12.414 -1.3123 -0.5644  2.8454
  870TIP3    H224102   5.294   4.500  12.453 -1.4479  0.2351  0.1407
  871TIP3   OH224103   6.793   1.757   5.463 -0.3795  0.1719  0.0686
  871TIP3    H124104   6.736   1.808   5.520 -1.2003  0.3162 -0.8609
  871TIP3    H224105   6.879   1.759   5.506 -0.9465  0.3953  1.2078
  872TIP3   OH224106   0.872   2.873   1.129 -0.2921 -0.4714 -0.0286
  872TIP3    H124107   0.779   2.892   1.130  0.4492  4.8513  1.5782
  872TIP3    H224108   0.898   2.884   1.038 -1.0433 -0.8663 -0.2969
  873TIP3   OH224109   4.843   5.240   4.229 -0.2599 -0.0968 -0.6729
  873TIP3    H124110   4.810   5.295   4.158 -0.3623  0.2144 -0.3853
  873TIP3    H224111   4.776   5.246   4.297 -0.1683 -0.4080 -0.5535
  874TIP3   OH224112   0.581   3.692  14.782 -0.2811  0.3078 -0.3459
  874TIP3    H124113   0.636   3.661  14.709  0.2685  1.7241 -0.5670
  874TIP3    H224114   0.600   3.785  14.788 -0.1764  0.1890  1.7549
  875TIP3   OH224115   1.555   2.739   4.516  0.0536 -0.1380  0.0448
  875TIP3    H124116   1.626   2.787   4.557  0.0193  0.5275 -0.6733
  875TIP3    H224117   1.520   2.684   4.586  1.1642 -0.3532  0.4400
  876TIP3   OH224118   5.146   1.866  11.100 -0.2601  0.0625 -0.7459
  876TIP3    H124119   5.069   1.882  11.045 -0.9726 -1.0250 -0.0745
  876TIP3    H224120   5.189   1.791  11.060 -0.2988 -0.1843 -0.3287
  877TIP3   OH224121   0.248   2.709   3.090 -0.6796 -0.4881 -0.1652
  877TIP3    H124122   0.255   2.708   2.994 -1.4894 -0.4668 -0.2307
  877TIP3    H224123   0.332   2.742   3.120 -0.5981 -0.0177 -0.8920
  878TIP3   OH224124   6.451   4.222   2.359  0.3506  0.1246 -0.1930
  878TIP3    H124125   6.373   4.268   2.390 -0.3478 -2.0161  1.5549
  878TIP3    H224126   6.524   4.263   2.405  0.0965  1.1156 -0.6448
  879TIP3   OH224127   6.543   6.289  12.565 -0.4066  0.5944  0.0638
  879TIP3    H124128   6.568   6.208  12.607 -0.5298  0.6919  0.3254
  879TIP3    H224129   6.528   6.350  12.637 -1.1637  0.6023 -0.0957
  880TIP3   OH224130   4.215   0.141  16.732 -0.0834 -0.0239  0.0716
  880TIP3    H124131   4.261   0.153  16.649 -0.9263  1.1930 -0.2362
  880TIP3    H224132   4.246   0.213  16.787  1.9172 -1.8671  1.5356
  881TIP3   OH224133   1.592   5.979  12.428  0.2973 -0.5190 -0.2052
  881TIP3    H124134   1.508   6.006  12.394 -0.5331 -0.4321  1.7613
  881TIP3    H224135   1.598   5.886  12.406  0.7527 -0.0377 -2.3146
  882TIP3   OH224136   5.285   4.080  12.642  0.0492  0.3859  0.0654
  882TIP3    H124137   5.244   4.045  12.563  0.4152 -2.4869  1.0397
  882TIP3    H224138   5.355   4.137  12.609 -0.0442 -0.4201 -1.6603
  883TIP3   OH224139   3.182   3.128   6.046  0.2364  0.3057 -0.1112
  883TIP3    H124140   3.224   3.111   5.962 -2.3539 -1.7604 -1.1266
  883TIP3    H224141   3.254   3.128   6.109  1.9133 -1.8457 -1.8590
  884TIP3   OH224142   2.227   6.746  12.138 -0.0216 -0.7658 -0.0870
  884TIP3    H124143   2.188   6.828  12.167  0.5741 -0.1472 -0.9812
  884TIP3    H224144   2.321   6.757  12.155 -0.1428 -2.1922  1.9507
  885TIP3   OH224145   0.632   6.251  15.288 -0.6024 -0.1234  0.2029
  885TIP3    H124146   0.663   6.285  15.204  0.4384  0.5108  0.8143
  885TIP3    H224147   0.673   6.165  15.297 -0.4447 -0.0494  0.2004
  886TIP3   OH224148   6.581   0.207  12.965 -0.1913 -0.0697  0.5347
  886TIP3    H124149   6.538   0.134  12.920  0.4258 -1.2458  1.7976
  886TIP3    H224150   6.659   0.224  12.911  0.8124 -1.7986  1.3370
  887TIP3   OH224151   4.580   2.549  15.209  0.4642  0.3246 -0.2060
  887TIP3    H124152   4.665   2.506  15.217 -0.0636 -0.4492  2.1205
  887TIP3    H224153   4.520   2.494  15.260 -1.0966  1.7040 -0.4626
  888TIP3   OH224154   1.717   1.212   1.928 -0.1970 -0.0290  0.6433
  888TIP3    H124155   1.639   1.181   1.882 -0.1373 -2.0286  1.7938
  888TIP3    H224156   1.788   1.157   1.896  0.0732 -0.6113  2.1558
  889TIP3   OH224157   4.218   4.464  15.195  0.2409  0.4594 -0.3782
  889TIP3    H124158   4.219   4.369  15.181 -0.8523  0.3393  0.2424
  889TIP3    H224159   4.278   4.499  15.129  0.9650 -0.6935 -0.3604
  890TIP3   OH224160   2.955   3.922  15.405 -0.2350  0.4783 -0.7483
  890TIP3    H124161   3.049   3.930  15.423 -0.3807 -0.0504  0.3175
  890TIP3    H224162   2.926   4.012  15.392  0.4732  0.6256 -1.4050
  891TIP3   OH224163   3.733   1.104  17.131 -0.2170  0.1679  0.2667
  891TIP3    H124164   3.780   1.139  17.056  2.3406 -0.4903  1.4473
  891TIP3    H224165   3.703   1.017  17.103  0.1784  0.1710 -0.1728
  892TIP3   OH224166   5.561   3.817   5.820 -0.0475  0.0578  0.2359
  892TIP3    H124167   5.542   3.902   5.780 -2.0214 -0.5032 -0.1542
  892TIP3    H224168   5.641   3.831   5.870 -0.6806  2.3393  0.7340
  893TIP3   OH224169   3.561   5.690   1.875  0.2642  0.5444 -0.3292
  893TIP3    H124170   3.626   5.746   1.832 -0.6787  2.5121  0.6581
  893TIP3    H224171   3.549   5.729   1.962 -1.5355 -0.3112 -0.1376
  894TIP3   OH224172   0.117   5.119  14.159  0.2915 -0.1156 -0.0745
  894TIP3    H124173   0.127   5.201  14.207  0.1104 -0.1405  0.0063
  894TIP3    H224174   0.066   5.144  14.081 -1.5455 -0.5052  0.9406
  895TIP3   OH224175   0.756   2.254   2.427  0.6284  0.7407 -0.2145
  895TIP3    H124176   0.768   2.191   2.497  2.0136  0.5023 -0.6353
  895TIP3    H224177   0.834   2.244   2.372 -0.6544  0.5375 -2.0930
  896TIP3   OH224178   2.374   5.203   0.561  0.2913  0.2406  0.2329
  896TIP3    H124179   2.292   5.252   0.556  0.4008  0.4649  0.6179
  896TIP3    H224180   2.421   5.242   0.634 -0.2204 -1.3503  1.4773
  897TIP3   OH224181   2.047   1.429  17.089  0.0823  0.4903 -0.0931
  897TIP3    H124182   2.135   1.455  17.117  0.8148  0.6907 -2.3534
  897TIP3    H224183   2.026   1.489  17.018 -2.3845  1.1491  1.0966
  898TIP3   OH224184   2.998   0.133  13.733  0.7766 -0.0007  0.4359
  898TIP3    H124185   2.984   0.085  13.652  0.1501 -1.0177  1.1099
  898TIP3    H224186   3.082   0.101  13.765  0.3429 -0.7333  0.9028
  899TIP3   OH224187   4.595   3.192   1.391  0.1039 -0.4292  0.7594
  899TIP3    H124188   4.524   3.242   1.351 -1.3638 -2.4502  0.6716
  899TIP3    H224189   4.618   3.126   1.325  1.8985 -0.0168  0.9119
  900TIP3   OH224190   1.838   2.579   3.442  0.5017  0.1521  1.0900
  900TIP3    H124191   1.843   2.515   3.513 -0.2955 -1.2229 -0.0330
  900TIP3    H224192   1.790   2.652   3.480 -1.8309 -1.4406  1.4087
  901TIP3   OH224193   6.113   5.497  12.689 -0.0147  0.6698  0.4438
  901TIP3    H124194   6.129   5.409  12.722 -1.4385  0.8145  1.5986
  901TIP3    H224195   6.171   5.553  12.741  2.1250  0.3236 -1.3892
  902TIP3   OH224196   1.180   4.466   2.743  0.1468 -0.3155  0.0271
  902TIP3    H124197   1.224   4.405   2.801 -0.0154  0.1024  0.5928
  902TIP3    H224198   1.153   4.538   2.799 -2.0662 -0.9609 -0.1170
  903TIP3   OH224199   4.759   4.946   2.207  0.4139 -0.2079 -0.1254
  903TIP3    H124200   4.782   5.037   2.221 -0.8453 -0.0444  1.0253
  903TIP3    H224201   4.780   4.930   2.114  2.0340  0.7956  0.0341
  904TIP3   OH224202   4.620   0.441   1.546 -0.1281  0.3000 -0.5406
  904TIP3    H124203   4.536   0.486   1.536 -0.7947 -0.7751 -0.0023
  904TIP3    H224204   4.642   0.453   1.639 -0.8240 -1.2733 -0.1255
  905TIP3   OH224205   4.363   0.979   1.301 -0.3728 -0.4178  0.4230
  905TIP3    H124206   4.318   0.896   1.318 -1.8880  0.1968 -0.4354
  905TIP3    H224207   4.430   0.957   1.237 -0.0939 -1.1627  0.9538
  906TIP3   OH224208   5.313   0.331   6.394  0.5842 -0.1636 -0.0444
  906TIP3    H124209   5.272   0.376   6.469  0.8969 -0.1735  0.1351
  906TIP3    H224210   5.385   0.281   6.433  1.4908  0.7510 -0.4830
  907TIP3   OH224211   5.631   0.621  13.636  0.5772  0.5122 -0.5961
  907TIP3    H124212   5.584   0.704  13.637 -1.9873 -0.8057  1.8024
  907TIP3    H224213   5.697   0.630  13.705 -1.0356 -0.0216  1.0994
  908TIP3   OH224214   3.895   4.932   0.770 -0.0879  0.5704  0.1371
  908TIP3    H124215   3.847   4.871   0.714 -0.8570  1.2968 -0.0218
  908TIP3    H224216   3.831   5.001   0.790  0.9915  1.7575 -0.3894
  909TIP3   OH224217   4.992   4.641  13.743  0.2229 -0.3258 -0.4174
  909TIP3    H124218   5.084   4.660  13.764 -0.1897 -0.5717  1.8092
  909TIP3    H224219   4.965   4.714  13.687  1.5887  0.0974 -0.5703
  910TIP3   OH224220   3.365   4.150   0.909  0.4961  0.6127 -0.6554
  910TIP3    H124221   3.447   4.105   0.926  0.4800  0.9548  0.4065
  910TIP3    H224222   3.332   4.173   0.996 -1.6780 -1.2082 -0.8901
  911TIP3   OH224223   1.355   6.125  10.586 -0.4302 -0.0163  0.4986
  911TIP3    H124224   1.405   6.060  10.536 -1.7344  0.0752 -1.0264
  911TIP3    H224225   1.289   6.074  10.633  0.2359 -0.0162  1.4570
  912TIP3   OH224226   3.423   4.844   2.348  0.2899  0.2254  0.0367
  912TIP3    H124227   3.382   4.927   2.323  0.5673  0.0411 -1.0822
  912TIP3    H224228   3.422   4.792   2.267  0.5199 -0.6961  0.6146
  913TIP3   OH224229   0.796   1.411   0.685  0.0430  0.4423 -0.0175
  913TIP3    H124230   0.833   1.396   0.771 -1.1537  2.4108  0.9277
  913TIP3    H224231   0.750   1.330   0.664 -0.7810  0.3760  1.8291
  914TIP3   OH224232   2.457   4.743  13.970 -0.1273 -0.0437  0.3244
  914TIP3    H124233   2.423   4.819  14.018 -2.0038 -1.6394  1.6659
  914TIP3    H224234   2.550   4.741  13.991 -0.6045  0.2089  2.6892
  915TIP3   OH224235   1.525   2.279  16.890  0.0371 -0.4524  0.2596
  915TIP3    H124236   1.539   2.345  16.958 -0.0732 -0.2107  0.0519
  915TIP3    H224237   1.497   2.330  16.814  1.7213 -0.5511 -0.4546
  916TIP3   OH224238   3.347   3.746   3.455  0.7101 -0.3506 -0.2264
  916TIP3    H124239   3.342   3.653   3.479  1.1834 -0.1170  0.8617
  916TIP3    H224240   3.299   3.752   3.373  0.3470 -1.4943 -0.1221
  917TIP3   OH224241   2.348   1.352   2.738  0.3622 -0.5618  0.1535
  917TIP3    H124242   2.301   1.309   2.666  1.0154 -2.4217  0.7564
  917TIP3    H224243   2.433   1.376   2.700  0.4166 -0.8518  0.0839
  918TIP3   OH224244   5.163   6.222   6.090 -0.3295  0.1753 -0.1303
  918TIP3    H124245   5.170   6.126   6.091 -0.8176  0.0882 -1.8323
  918TIP3    H224246   5.077   6.240   6.128 -0.9462 -0.1865 -1.3015
  919TIP3   OH224247   0.811   0.308   4.864 -0.3754 -0.6188  0.4535
  919TIP3    H124248   0.872   0.238   4.841  2.1764  2.0297 -1.6661
  919TIP3    H224249   0.859   0.362   4.927 -1.4671  0.2742  0.5563
  920TIP3   OH224250   3.610   4.064   1.519 -0.1273 -0.2243  0.1075
  920TIP3    H124251   3.527   4.110   1.512  0.3440  0.5126 -0.8953
  920TIP3    H224252   3.676   4.133   1.520  0.7130 -0.8332 -3.0803
  921TIP3   OH224253   1.286   1.023   1.351  0.0250 -0.2235 -0.2158
  921TIP3    H124254   1.248   1.084   1.288 -1.0684 -0.3277  0.3098
  921TIP3    H224255   1.336   0.962   1.298  0.5103  0.6759 -0.8195
  922TIP3   OH224256   4.145   1.082  16.812  0.7560  0.5587 -0.7108
  922TIP3    H124257   4.113   1.111  16.727 -0.4721  0.7230 -0.2217
  922TIP3    H224258   4.154   1.163  16.863 -0.7791  0.2906  0.0372
  923TIP3   OH224259   3.412   1.550  11.312 -0.4572 -0.1527  0.0775
  923TIP3    H124260   3.337   1.548  11.371 -1.2945  0.4465 -0.9314
  923TIP3    H224261   3.433   1.458  11.298  0.0854 -0.3142  1.6744
  924TIP3   OH224262   5.700   1.181  14.978  0.2001 -0.2561  0.0106
  924TIP3    H124263   5.742   1.218  14.900  1.6725  1.5646  1.5814
  924TIP3    H224264   5.770   1.179  15.044 -1.5343  0.3437  1.9436
  925TIP3   OH224265   3.371   0.741  16.162  0.2285 -0.0078  0.5189
  925TIP3    H124266   3.430   0.813  16.135  1.4495 -1.2301 -0.2243
  925TIP3    H224267   3.303   0.784  16.212  2.2986  1.4040  2.3280
  926TIP3   OH224268   4.813   5.900  16.382  0.2566 -0.5406  0.1649
  926TIP3    H124269   4.764   5.888  16.464 -1.0713  0.0168 -0.5034
  926TIP3    H224270   4.815   5.812  16.343 -1.0435 -0.4208 -0.2225
  927TIP3   OH224271   4.895   1.039   1.022 -0.0502  0.5864 -0.2933
  927TIP3    H124272   4.959   1.109   1.024  0.5563  0.0277  0.7196
  927TIP3    H224273   4.925   0.980   0.953 -0.7878  1.5006 -1.4314
  928TIP3   OH224274   6.169   1.925  14.311  0.1469 -0.1297 -0.0668
  928TIP3    H124275   6.220   1.928  14.392 -0.7680 -0.7207  0.5601
  928TIP3    H224276   6.078   1.935  14.341 -0.1758 -0.0669 -1.0550
  929TIP3   OH224277   0.984   1.997  11.855 -0.0149 -0.4162 -0.5557
  929TIP3    H124278   1.039   2.031  11.925 -0.5126 -0.7461  0.0100
  929TIP3    H224279   0.898   2.036  11.870  0.2420  0.7757 -1.9345
  930TIP3   OH224280   2.548   5.175   2.371  0.3178 -0.2290  0.8915
  930TIP3    H124281   2.517   5.235   2.439  0.6693  0.1682  0.7072
  930TIP3    H224282   2.519   5.088   2.400  0.3074 -0.0406  1.4570
  931TIP3   OH224283   3.272   6.162   5.475 -0.3409  0.2341 -0.0197
  931TIP3    H124284   3.238   6.073   5.470 -1.4514  0.6336 -0.0200
  931TIP3    H224285   3.363   6.155   5.445  0.6402 -1.3972  2.9890
  932TIP3   OH224286   4.473   6.291  11.834  0.0216  0.2580 -0.2108
  932TIP3    H124287   4.493   6.328  11.920 -0.4540 -0.8606  0.3991
  932TIP3    H224288   4.459   6.368  11.777  0.8046  1.0103  0.5812
  933TIP3   OH224289   2.910   1.603  17.042  0.1968  0.0225  0.0935
  933TIP3    H124290   3.002   1.576  17.049  0.3360  0.9124  3.0061
  933TIP3    H224291   2.913   1.699  17.045 -0.8117  0.0876 -0.5877
  934TIP3   OH224292   4.395   0.339   6.130  0.8160 -0.3557 -0.2188
  934TIP3    H124293   4.365   0.430   6.134  1.0170 -0.2492 -0.9863
  934TIP3    H224294   4.488   0.344   6.153  1.1140 -0.2007 -1.3780
  935TIP3   OH224295   4.310   1.176  13.805  0.5270 -0.0295  0.2290
  935TIP3    H124296   4.311   1.223  13.888  2.0648 -0.5961  0.5657
  935TIP3    H224297   4.382   1.214  13.755 -0.7506  0.7200 -1.1137
  936TIP3   OH224298   3.464   3.581  11.982  0.1032 -0.0110 -0.1411
  936TIP3    H124299   3.529   3.511  11.974  0.3813  0.3738 -1.5356
  936TIP3    H224300   3.415   3.576  11.899  2.7691  4.0430 -2.2873
  937TIP3   OH224301   0.733   1.191   5.530  0.2860 -0.0798 -0.1903
  937TIP3    H124302   0.801   1.124   5.536  0.2599  0.0126  1.4943
  937TIP3    H224303   0.768   1.266   5.577 -0.5342  0.3755 -0.2763
  938TIP3   OH224304   2.296   1.676   5.456  0.3123  0.1649  0.0524
  938TIP3    H124305   2.223   1.726   5.493  1.5660  1.2331  1.1509
  938TIP3    H224306   2.301   1.597   5.510 -0.6401 -0.4195 -0.6696
  939TIP3   OH224307   4.064   2.931   4.338 -0.2596  0.2534  0.0035
  939TIP3    H124308   4.001   3.002   4.342  0.1556  0.6789 -0.8019
  939TIP3    H224309   4.086   2.923   4.245 -0.3330 -0.9562  0.0751
  940TIP3   OH224310   5.989   5.904   4.039 -0.0508 -0.4610 -0.3583
  940TIP3    H124311   6.064   5.946   4.080 -0.6342  0.7888 -0.5346
  940TIP3    H224312   5.940   5.976   3.999 -1.6197 -1.1940  0.1832
  941TIP3   OH224313   1.021   3.389   5.321  0.2920  0.0628 -0.0473
  941TIP3    H124314   0.978   3.432   5.248 -0.1117  0.7194  0.5592
  941TIP3    H224315   1.114   3.387   5.297 -0.1989 -3.2309 -2.3265
  942TIP3   OH224316   1.529   1.626  14.666 -0.4295 -0.1311  0.0339
  942TIP3    H124317   1.563   1.582  14.588  1.0294 -1.3295  1.2726
  942TIP3    H224318   1.454   1.573  14.692 -1.2734  0.5982 -0.8335
  943TIP3   OH224319   0.994   1.720   0.866 -0.1764 -0.2209 -0.6868
  943TIP3    H124320   0.939   1.776   0.810  1.0408  0.3219 -1.3653
  943TIP3    H224321   1.025   1.651   0.807  0.1543 -0.3222 -0.3938
  944TIP3   OH224322   3.039   4.013  16.597  0.7721  0.0031 -0.1735
  944TIP3    H124323   2.965   4.059  16.558  0.5620 -1.0036 -1.0152
  944TIP3    H224324   3.000   3.943  16.648  1.1207 -0.3409 -0.3685
  945TIP3   OH224325   4.389   3.710   1.892 -0.7452 -0.1115 -0.3629
  945TIP3    H124326   4.397   3.800   1.859 -0.6182  0.7666  1.8684
  945TIP3    H224327   4.305   3.708   1.937 -0.7676 -1.1359 -0.4270
  946TIP3   OH224328   4.915   5.633   1.533 -0.7989  0.6165 -0.0531
  946TIP3    H124329   4.845   5.570   1.518 -0.0182  0.0663 -1.6077
  946TIP3    H224330   4.922   5.681   1.450 -0.0199  1.3601  0.4238
  947TIP3   OH224331   2.216   1.581   6.298  0.5100 -0.2319  0.4670
  947TIP3    H124332   2.238   1.617   6.384 -1.4495 -1.2516  1.4644
  947TIP3    H224333   2.123   1.559   6.305  0.7388 -1.9749 -1.3311
  948TIP3   OH224334   4.118   6.370   3.186  0.5140  0.0041 -0.6035
  948TIP3    H124335   4.188   6.432   3.162 -0.9149  1.9432  0.0459
  948TIP3    H224336   4.060   6.369   3.110 -0.6547  1.2540  0.2270
  949TIP3   OH224337   5.177   2.331  12.305 -0.0108  0.3025 -0.2088
  949TIP3    H124338   5.213   2.313  12.218 -0.4362  0.2968 -0.3879
  949TIP3    H224339   5.218   2.414  12.331 -0.5150  0.7426 -0.7800
  950TIP3   OH224340   2.082   3.061   0.838  0.0488 -0.1376 -0.5341
  950TIP3    H124341   2.049   2.986   0.887  0.9899 -1.3574 -1.6701
  950TIP3    H224342   2.065   3.039   0.746  0.0736  1.1837 -0.8745
  951TIP3   OH224343   2.226   1.482   6.636 -0.2579 -0.1203  0.5574
  951TIP3    H124344   2.261   1.564   6.603 -0.4831  0.1444  0.9687
  951TIP3    H224345   2.297   1.419   6.624  0.0042  0.1904  0.4787
  952TIP3   OH224346   5.292   5.552   1.240  0.4046  0.0758  0.0222
  952TIP3    H124347   5.233   5.477   1.243 -1.1337  1.2367 -0.0636
  952TIP3    H224348   5.379   5.514   1.251 -0.3799 -1.6408  0.6910
  953TIP3   OH224349   5.976   5.404  15.320  0.0517  0.2137  0.0157
  953TIP3    H124350   5.981   5.490  15.279  0.2105  0.2697  0.1576
  953TIP3    H224351   6.062   5.389  15.357 -0.7769  1.2435  2.5588
  954TIP3   OH224352   3.237   3.948  14.482 -0.5603 -0.1837  0.4163
  954TIP3    H124353   3.293   3.904  14.546 -0.1767 -0.5044 -0.1313
  954TIP3    H224354   3.255   4.042  14.496  0.4743 -0.2919 -0.0626
  955TIP3   OH224355   4.303   1.736  12.516 -0.1423  0.0350  0.3022
  955TIP3    H124356   4.376   1.718  12.457 -0.2705  1.5625 -0.3662
  955TIP3    H224357   4.340   1.726  12.604  0.9194  0.9277 -0.0235
  956TIP3   OH224358   3.186   2.678   0.211 -0.5232 -0.2700  0.1331
  956TIP3    H124359   3.259   2.723   0.169 -0.4705  0.5451  1.0667
  956TIP3    H224360   3.206   2.585   0.202 -0.5864 -0.1450 -1.7536
  957TIP3   OH224361   5.141   2.738  15.599 -0.4750  0.2727  0.1973
  957TIP3    H124362   5.111   2.728  15.690  0.5815 -0.7513  0.4668
  957TIP3    H224363   5.237   2.737  15.606 -0.3790  1.1524 -0.8461
  958TIP3   OH224364   2.302   5.164  14.236  0.4769 -0.2919  0.7534
  958TIP3    H124365   2.217   5.145  14.274  0.1545 -0.5854 -0.1017
  958TIP3    H224366   2.323   5.252  14.267 -1.2580  0.7959 -0.9926
  959TIP3   OH224367   5.958   3.195   2.160  0.0426 -0.4967 -0.0511
  959TIP3    H124368   6.046   3.226   2.140  1.7319 -1.8833  4.1707
  959TIP3    H224369   5.961   3.101   2.142 -0.7880 -0.4828 -0.3364
  960TIP3   OH224370   2.088   1.659  16.652  0.6708  0.5313  0.2872
  960TIP3    H124371   2.047   1.631  16.734  0.8974  0.6890  0.4547
  960TIP3    H224372   2.070   1.753  16.647  0.8750  0.5697  0.2825
  961TIP3   OH224373   4.858   1.091  10.825  0.2381 -0.5642 -0.3751
  961TIP3    H124374   4.785   1.030  10.814  1.6941 -2.6852  0.9545
  961TIP3    H224375   4.828   1.154  10.891 -0.9394 -0.3810 -1.0580
  962TIP3   OH224376   6.003   6.728  11.874 -0.2340 -0.2071 -0.4399
  962TIP3    H124377   6.081   6.679  11.848 -0.1763 -0.3909  0.0659
  962TIP3    H224378   5.999   6.801  11.812  0.7403  0.1996 -0.0466
  963TIP3   OH224379   1.949   0.281   3.640  0.3381 -0.4436 -0.1581
  963TIP3    H124380   1.952   0.201   3.589  1.3140  0.0119 -0.8385
  963TIP3    H224381   1.989   0.258   3.724  1.1350 -0.5306 -0.5581
  964TIP3   OH224382   3.487   6.278   2.838  0.1070 -0.1948  0.2582
  964TIP3    H124383   3.532   6.194   2.832 -0.7662 -0.6230 -0.4460
  964TIP3    H224384   3.395   6.257   2.826 -0.1917  0.7914  0.7276
  965TIP3   OH224385   6.154   4.492  14.589 -0.8785 -0.1350  0.4753
  965TIP3    H124386   6.118   4.520  14.505  0.9086  1.3474  0.1217
  965TIP3    H224387   6.238   4.537  14.594 -1.7175  1.3100  3.8873
  966TIP3   OH224388   0.710   4.805  10.542  0.6689  0.4086  0.5156
  966TIP3    H124389   0.742   4.726  10.587 -0.9890 -1.3743 -1.2552
  966TIP3    H224390   0.789   4.845  10.506  1.5122 -0.7487  0.9776
  967TIP3   OH224391   5.328   4.475   2.083  0.4748  0.0438 -0.1378
  967TIP3    H124392   5.289   4.393   2.052 -0.0582  0.8514 -1.7301
  967TIP3    H224393   5.255   4.525   2.118  0.7927 -0.1339  0.7951
  968TIP3   OH224394   1.491   4.405   5.148  0.6671 -0.3070 -0.1461
  968TIP3    H124395   1.432   4.368   5.214  0.2068 -1.1077 -0.9626
  968TIP3    H224396   1.456   4.371   5.065  0.5226  1.6176 -0.9066
  969TIP3   OH224397   6.106   4.329   2.796 -0.6794 -0.6349 -0.6721
  969TIP3    H124398   6.038   4.354   2.858  1.0922  2.6656  0.1767
  969TIP3    H224399   6.067   4.341   2.710 -1.0049  2.0098 -0.2193
  970TIP3   OH224400   4.632   0.908  12.588 -0.5674 -0.8064  0.4622
  970TIP3    H124401   4.621   0.814  12.603 -3.1146 -0.7681 -0.7057
  970TIP3    H224402   4.708   0.932  12.641 -1.0935 -3.1229  2.4407
  971TIP3   OH224403   2.929   0.166  14.329 -0.2735  0.1727  0.3545
  971TIP3    H124404   2.935   0.079  14.370  0.4232 -0.8723 -1.8451
  971TIP3    H224405   2.840   0.170  14.295 -0.9680  1.1863  2.1453
  972TIP3   OH224406   2.408   2.613  12.925  0.3423  0.6277 -0.0879
  972TIP3    H124407   2.406   2.706  12.948 -0.9748  0.8795 -1.1038
  972TIP3    H224408   2.430   2.612  12.832 -1.8079  0.0862 -0.6417
  973TIP3   OH224409   3.895   5.176  10.583 -0.9131 -0.0743  0.0929
  973TIP3    H124410   3.942   5.104  10.540  0.3885  1.2764 -0.8452
  973TIP3    H224411   3.824   5.197  10.523 -0.3562  0.4269 -0.4053
  974TIP3   OH224412   3.389   1.179  15.042 -0.7087 -0.4802 -0.0971
  974TIP3    H124413   3.427   1.207  15.125 -1.3630 -2.3554  0.8941
  974TIP3    H224414   3.295   1.176  15.059 -1.1907  1.8984 -1.8285
  975TIP3   OH224415   1.530   1.355   4.839 -0.0982  0.0635 -0.1505
  975TIP3    H124416   1.456   1.416   4.835  0.3435  0.5906 -0.4717
  975TIP3    H224417   1.604   1.410   4.865 -0.1148 -0.7312  1.7053
  976TIP3   OH224418   3.365   3.337   3.303 -0.2859 -0.0435  0.1282
  976TIP3    H124419   3.391   3.386   3.381 -2.7310  0.3682  0.7765
  976TIP3    H224420   3.293   3.388   3.266 -0.1651 -1.0290 -1.5579
  977TIP3   OH224421   6.504   3.304   2.502  0.0176 -0.2073  0.4759
  977TIP3    H124422   6.436   3.258   2.453  1.2037 -2.3514  0.7347
  977TIP3    H224423   6.471   3.394   2.510 -2.4600 -1.0034  0.0490
  978TIP3   OH224424   1.513   2.479   0.474  0.1199 -0.2376  0.2151
  978TIP3    H124425   1.590   2.513   0.430  0.3838 -1.2964 -0.1513
  978TIP3    H224426   1.456   2.556   0.485  1.3403  0.6263  0.7908
  979TIP3   OH224427   2.661   1.518  13.295  0.6290  0.6567  0.6786
  979TIP3    H124428   2.597   1.506  13.365 -0.7440  0.2803 -0.5884
  979TIP3    H224429   2.653   1.610  13.271  1.2780  0.8476  1.1475
  980TIP3   OH224430   6.001   2.155   1.661 -0.0364 -0.1047  0.2301
  980TIP3    H124431   6.096   2.151   1.669 -0.0555  1.5086  1.8907
  980TIP3    H224432   5.981   2.105   1.582  2.1376 -0.8558  0.1068
  981TIP3   OH224433   0.100   4.693   3.442 -0.5069  0.1134  0.0305
  981TIP3    H124434   0.098   4.598   3.430 -2.4570  0.1578 -0.3526
  981TIP3    H224435   0.190   4.712   3.470  0.9166 -1.4401 -3.0027
  982TIP3   OH224436   6.780   1.311  13.563 -0.3793  0.2337 -0.6170
  982TIP3    H124437   6.770   1.292  13.470 -0.5406 -1.6116 -0.2730
  982TIP3    H224438   6.814   1.230  13.600  0.4539  1.1929  0.8197
  983TIP3   OH224439   3.388   3.069   2.180  0.7392 -0.5269  0.7570
  983TIP3    H124440   3.308   3.118   2.203 -0.1316 -0.9002 -1.2687
  983TIP3    H224441   3.382   2.988   2.231 -0.5470 -0.8393  0.1660
  984TIP3   OH224442   5.116   1.464   2.439  0.2921  0.2665  0.1283
  984TIP3    H124443   5.156   1.496   2.358  1.0721  0.6810  0.6698
  984TIP3    H224444   5.049   1.402   2.409 -0.7639  1.8346 -0.9215
  985TIP3   OH224445   2.220   3.879  13.598  0.1433  0.4467  0.2665
  985TIP3    H124446   2.189   3.789  13.594 -0.7843  0.7386  0.5450
  985TIP3    H224447   2.315   3.872  13.613 -0.1665 -0.4870  2.0945
  986TIP3   OH224448   0.211   6.530  11.271  0.3459 -0.3414 -0.2175
  986TIP3    H124449   0.127   6.510  11.231  1.5207 -0.8358 -2.6028
  986TIP3    H224450   0.276   6.489  11.214  2.2513  0.4766  1.2316
  987TIP3   OH224451   0.373   5.941  12.392 -0.1781 -0.1884  0.0042
  987TIP3    H124452   0.285   5.977  12.404  0.4845  1.7804 -0.6610
  987TIP3    H224453   0.396   5.906  12.478 -1.7925 -1.2416  0.0564
  988TIP3   OH224454   3.670   5.084   2.129  0.5033 -0.4257 -0.4628
  988TIP3    H124455   3.593   5.136   2.152 -0.4262 -1.8974 -0.1126
  988TIP3    H224456   3.675   5.017   2.197  1.8452 -0.6209 -0.7270
  989TIP3   OH224457   4.125   1.002   0.122  0.0775 -0.5735 -0.1407
  989TIP3    H124458   4.192   1.039   0.179  1.2745 -0.7853 -1.3467
  989TIP3    H224459   4.085   1.078   0.079 -0.8403 -0.4125  0.9404
  990TIP3   OH224460   5.357   5.608   0.452 -0.2629  0.4370 -0.1500
  990TIP3    H124461   5.301   5.555   0.509  0.0628 -0.4380 -0.6263
  990TIP3    H224462   5.424   5.547   0.420  0.7332  1.3773  0.0964
  991TIP3   OH224463   3.791   1.595  13.970  0.1677  0.6245  0.4057
  991TIP3    H124464   3.767   1.558  13.885  0.1499 -2.3989  1.6247
  991TIP3    H224465   3.884   1.615  13.961  0.1361  0.4867 -0.3550
  992TIP3   OH224466   0.913   4.093  17.072 -0.0778 -0.1258 -0.1617
  992TIP3    H124467   0.842   4.143  17.114 -1.8256 -1.2945 -1.5707
  992TIP3    H224468   0.916   4.127  16.983 -0.5559 -1.7541 -0.8237
  993TIP3   OH224469   6.762   4.489  12.966 -0.0953  0.1370 -0.2629
  993TIP3    H124470   6.796   4.410  13.009 -0.5319 -2.2219 -3.8093
  993TIP3    H224471   6.840   4.540  12.946  0.2734  0.2733  1.3470
  994TIP3   OH224472   1.053   3.672   1.058  0.0419 -0.2762  0.1628
  994TIP3    H124473   1.100   3.755   1.047  1.0293 -1.0060 -1.3635
  994TIP3    H224474   0.969   3.687   1.016  0.4918 -0.2621 -0.7479
  995TIP3   OH224475   0.784   3.338  16.576 -0.1841  0.2320 -0.1971
  995TIP3    H124476   0.860   3.396  16.574  0.7748 -0.9727 -2.5956
  995TIP3    H224477   0.805   3.273  16.644 -0.9829  2.1601  2.0437
  996TIP3   OH224478   2.646   2.775  15.157  0.8323 -0.3837 -0.0474
  996TIP3    H124479   2.717   2.741  15.211 -0.8706 -1.4818  1.6483
  996TIP3    H224480   2.656   2.870  15.162  2.3950 -0.5057 -0.2165
  997TIP3   OH224481   1.109   2.452   6.333  0.6819  0.0130  0.2030
  997TIP3    H124482   1.094   2.533   6.382 -0.7758 -0.6221  0.8699
  997TIP3    H224483   1.151   2.394   6.396 -0.2104 -0.4450  0.3872
  998TIP3   OH224484   5.100   1.115  14.438 -0.4864  0.4475  0.1293
  998TIP3    H124485   5.041   1.052  14.479 -0.0763  0.2581  0.4315
  998TIP3    H224486   5.187   1.082  14.457 -0.2739  0.9577  0.0541
  999TIP3   OH224487   2.589   3.594  17.154  0.4173 -0.3676 -0.3042
  999TIP3    H124488   2.527   3.534  17.195  1.6309 -1.6954 -0.3554
  999TIP3    H224489   2.587   3.571  17.061 -0.1564  0.6614 -0.5660
 1000TIP3   OH224490   5.728   5.913  11.606  0.0546  0.0067 -0.5045
 1000TIP3    H124491   5.745   5.913  11.511  0.1814  0.5768 -0.4834
 1000TIP3    H224492   5.708   6.004  11.627 -0.3422 -0.1839 -0.0420
 1001TIP3   OH224493   6.757   1.782  12.765 -0.2179  0.4574 -0.5305
 1001TIP3    H124494   6.772   1.717  12.835  0.9348  0.9223 -0.3276
 1001TIP3    H224495   6.844   1.800  12.730 -0.6058  1.4333 -1.0177
 1002TIP3   OH224496   4.463   5.924   3.236 -0.1470  0.7124 -0.2197
 1002TIP3    H124497   4.427   5.940   3.324 -0.3349  0.8659 -0.3240
 1002TIP3    H224498   4.558   5.932   3.248 -0.0199 -1.2027  0.3665
 1003TIP3   OH224499   6.692   6.133   3.245 -0.0357 -0.1583 -0.6155
 1003TIP3    H124500   6.732   6.047   3.254 -0.9857 -0.8420 -2.4148
 1003TIP3    H224501   6.598   6.116   3.239 -0.1564  0.7928 -2.5991
 1004TIP3   OH224502   0.438   2.673  14.767 -0.1997 -0.0528  0.0111
 1004TIP3    H124503   0.455   2.589  14.809 -3.1011 -1.5004 -1.4211
 1004TIP3    H224504   0.484   2.737  14.822  0.2452 -2.3160  2.4877
 1005TIP3   OH224505   1.965   4.098   1.763  0.1810 -1.1094  0.2455
 1005TIP3    H124506   1.939   4.041   1.835 -0.0601 -1.5565 -0.1952
 1005TIP3    H224507   1.993   4.179   1.806 -2.5463 -0.3112  0.7595
 1006TIP3   OH224508   2.086   4.123   5.684  0.1336 -0.5092  0.0537
 1006TIP3    H124509   2.087   4.099   5.777 -0.8564 -0.0200  0.1986
 1006TIP3    H224510   2.046   4.210   5.682 -2.1659 -1.5081 -1.0202
 1007TIP3   OH224511   5.209   2.602  13.058 -0.3922  0.1940 -0.1955
 1007TIP3    H124512   5.182   2.683  13.015  0.0633  0.6005  0.2568
 1007TIP3    H224513   5.275   2.630  13.121 -1.2617 -0.3320  0.9883
 1008TIP3   OH224514   1.455   0.886  12.846 -0.2702  0.4210  0.3705
 1008TIP3    H124515   1.545   0.899  12.816  0.2094 -0.7957  1.2468
 1008TIP3    H224516   1.412   0.970  12.827  0.7205  0.6276 -1.1465
 1009TIP3   OH224517   3.811   1.680   5.033  0.5873  0.0263 -0.0418
 1009TIP3    H124518   3.745   1.745   5.009  0.3453  0.0089  0.5662
 1009TIP3    H224519   3.829   1.697   5.126 -1.8862 -2.8256  1.1284
 1010TIP3   OH224520   5.268   3.380  12.416 -0.0331 -0.2132 -0.4455
 1010TIP3    H124521   5.232   3.432  12.488  1.4871 -1.2588  1.1647
 1010TIP3    H224522   5.245   3.428  12.337 -2.5595  0.5366  0.6483
 1011TIP3   OH224523   4.117   1.949  15.923  0.1030  0.5651  0.1558
 1011TIP3    H124524   4.102   1.855  15.919 -0.2117  0.4927  2.0337
 1011TIP3    H224525   4.175   1.968  15.849 -1.0513 -0.8299 -1.1592
 1012TIP3   OH224526   6.343   1.633   2.010  0.0319 -0.1215  0.5887
 1012TIP3    H124527   6.404   1.567   1.976 -1.7260 -1.8526  0.6526
 1012TIP3    H224528   6.400   1.701   2.045  1.9321 -1.1924 -0.2260
 1013TIP3   OH224529   4.221   5.270   5.391 -0.0739 -0.3376 -0.7217
 1013TIP3    H124530   4.146   5.323   5.418  0.3877 -0.6583  1.4019
 1013TIP3    H224531   4.183   5.194   5.347 -0.8149  0.9157 -2.3405
 1014TIP3   OH224532   3.266   4.924  12.274  0.2492 -0.0858  0.0123
 1014TIP3    H124533   3.341   4.951  12.220 -0.5288 -0.7228 -1.4582
 1014TIP3    H224534   3.245   5.001  12.326  1.0359  0.5653 -0.5983
 1015TIP3   OH224535   4.340   6.194   0.017  0.0563  0.1149  0.0248
 1015TIP3    H124536   4.265   6.153  -0.026  0.9015 -0.8373 -0.5742
 1015TIP3    H224537   4.302   6.238   0.094 -1.1722  0.0825 -0.5397
 1016TIP3   OH224538   0.937   4.798   0.077  0.3839 -0.0251  0.4262
 1016TIP3    H124539   0.852   4.774   0.115 -0.7764  1.3025 -1.1915
 1016TIP3    H224540   0.953   4.887   0.110  1.7897 -0.7115  1.7026
 1017TIP3   OH224541   3.283   5.086   5.435 -0.0629  0.0556 -0.2849
 1017TIP3    H124542   3.344   5.016   5.457 -0.7577 -1.2033 -2.0922
 1017TIP3    H224543   3.221   5.089   5.508  0.0885 -1.1022 -0.0939
 1018TIP3   OH224544   2.821   4.090   4.771  0.3314  0.1576  0.6415
 1018TIP3    H124545   2.856   4.010   4.731  1.1602  0.7726  0.0936
 1018TIP3    H224546   2.796   4.063   4.859  0.1528 -0.8112  0.3133
 1019TIP3   OH224547   2.610   0.222  14.010 -0.1484 -0.1271 -0.1640
 1019TIP3    H124548   2.584   0.247  13.922  0.3314 -0.6857 -0.4694
 1019TIP3    H224549   2.704   0.204  14.004 -0.8000 -4.6296 -0.6886
 1020TIP3   OH224550   5.357   1.872  13.273  0.5946  0.5259  0.4457
 1020TIP3    H124551   5.264   1.892  13.286  0.8680  2.5146 -0.3018
 1020TIP3    H224552   5.401   1.917  13.345  1.0754  0.8270 -0.0295
 1021TIP3   OH224553   0.322   2.688   4.747 -0.0412  0.4833 -0.3739
 1021TIP3    H124554   0.311   2.779   4.775  0.7451  0.6765 -0.6741
 1021TIP3    H224555   0.233   2.653   4.745 -0.1985  0.5614  2.0116
 1022TIP3   OH224556   6.512   4.655   3.624  0.0416 -0.4221 -0.0292
 1022TIP3    H124557   6.606   4.651   3.638 -0.1925  0.4166  2.0257
 1022TIP3    H224558   6.475   4.596   3.689 -0.8387 -1.7356 -1.6408
 1023TIP3   OH224559   4.566   0.244   1.338 -0.0221  0.9212  0.2551
 1023TIP3    H124560   4.552   0.162   1.386 -0.4753  0.3478 -0.8084
 1023TIP3    H224561   4.574   0.311   1.406  2.2763 -0.2491  1.2493
 1024TIP3   OH224562   2.903   6.724   2.497 -0.1395 -0.1515  0.2431
 1024TIP3    H124563   2.912   6.787   2.570  0.9691  3.3157 -2.5804
 1024TIP3    H224564   2.993   6.712   2.465 -0.8749  1.7541 -2.9420
 1025TIP3   OH224565   3.144   3.664   6.520  0.5233  0.2353  0.3610
 1025TIP3    H124566   3.096   3.744   6.501  1.4755  0.8773  0.5748
 1025TIP3    H224567   3.206   3.688   6.589  0.6903 -0.7346  0.5674
 1026TIP3   OH224568   2.717   2.778   3.358  0.6763  0.0803 -0.2279
 1026TIP3    H124569   2.791   2.834   3.336  0.6905  1.1961  2.2921
 1026TIP3    H224570   2.745   2.731   3.437 -0.2903 -1.6260 -0.8407
 1027TIP3   OH224571   0.416   4.707   2.402 -0.0542  0.2061  0.0900
 1027TIP3    H124572   0.336   4.752   2.375  0.1431  0.9377  0.6808
 1027TIP3    H224573   0.413   4.623   2.357 -0.4073  0.8292 -1.0814
 1028TIP3   OH224574   6.330   6.363  11.392  0.3449 -0.7338  0.3134
 1028TIP3    H124575   6.341   6.354  11.297 -3.8084  0.7198 -0.4906
 1028TIP3    H224576   6.301   6.277  11.421  0.9523 -0.9867  0.2030
 1029TIP3   OH224577   0.282   4.606   3.022  0.0033 -0.2761 -0.0278
 1029TIP3    H124578   0.376   4.600   3.042 -0.1058 -0.7942  0.3659
 1029TIP3    H224579   0.277   4.598   2.926  0.2292 -2.3357  0.0947
 1030TIP3   OH224580   4.623   2.490   5.597 -0.1123 -0.0790 -0.0707
 1030TIP3    H124581   4.679   2.544   5.541 -1.3242 -0.5438 -1.7999
 1030TIP3    H224582   4.675   2.411   5.613  0.1206 -0.0903 -0.8341
 1031TIP3   OH224583   4.592   0.179  16.927 -0.7798  0.3180  0.0049
 1031TIP3    H124584   4.583   0.250  16.863  1.9462 -0.4879 -1.4274
 1031TIP3    H224585   4.541   0.107  16.890 -1.5213  0.7241  0.2098
 1032TIP3   OH224586   0.467   0.973  17.036 -0.2198 -0.0710 -0.4497
 1032TIP3    H124587   0.471   1.062  17.002 -2.7313  0.2386 -0.1740
 1032TIP3    H224588   0.475   0.984  17.131  2.9138 -0.5446 -0.5874
 1033TIP3   OH224589   0.261   2.673  11.345 -0.2199 -0.4687 -0.6194
 1033TIP3    H124590   0.278   2.598  11.288 -1.5328 -0.9951 -0.3526
 1033TIP3    H224591   0.225   2.739  11.286 -2.1851 -1.2353 -0.3605
 1034TIP3   OH224592   3.813   4.336   4.287  0.2046  0.2963  0.3478
 1034TIP3    H124593   3.823   4.244   4.264 -0.6064  0.1385  0.5889
 1034TIP3    H224594   3.846   4.342   4.377  0.6488  0.3282  0.1842
 1035TIP3   OH224595   5.703   1.797   5.508 -1.1147 -0.5986 -0.5618
 1035TIP3    H124596   5.632   1.861   5.512 -0.7012 -0.0678 -1.3609
 1035TIP3    H224597   5.703   1.755   5.594  0.9887  3.0601  1.4635
 1036TIP3   OH224598   6.501   3.220  14.436 -0.5082 -0.0815  0.0622
 1036TIP3    H124599   6.453   3.173  14.368 -0.5890 -2.4518  1.6650
 1036TIP3    H224600   6.434   3.248  14.498 -0.2011 -0.0676  0.3915
 1037TIP3   OH224601   1.316   4.262  13.464  0.3826 -0.2204 -0.3916
 1037TIP3    H124602   1.374   4.283  13.537  1.3986 -0.5265 -1.0894
 1037TIP3    H224603   1.301   4.346  13.421  2.4247 -0.4354 -1.7054
 1038TIP3   OH224604   1.630   2.939  14.308 -0.0967  0.1485 -0.1261
 1038TIP3    H124605   1.697   2.908  14.370 -0.0958  0.6184  0.1149
 1038TIP3    H224606   1.601   3.023  14.344  0.1585  0.6041 -0.9607
 1039TIP3   OH224607   6.404   1.475   5.338  0.0746  0.5573  0.0027
 1039TIP3    H124608   6.425   1.387   5.368  1.7068  0.1453 -2.1098
 1039TIP3    H224609   6.310   1.472   5.320  0.1727 -0.8939 -0.4275
 1040TIP3   OH224610   0.498   2.453   2.796 -0.3592 -0.0316  0.0493
 1040TIP3    H124611   0.517   2.500   2.877  1.0702 -0.7502  0.1671
 1040TIP3    H224612   0.577   2.463   2.743 -0.1920 -1.8745 -0.1054
 1041TIP3   OH224613   1.920   0.473   1.589  0.5710 -0.3174 -0.2814
 1041TIP3    H124614   1.920   0.439   1.499 -0.4727  0.3528 -0.5553
 1041TIP3    H224615   1.828   0.470   1.616  0.2506  2.7864 -0.5775
 1042TIP3   OH224616   4.813   6.131  10.961  0.2179 -0.2147 -0.2660
 1042TIP3    H124617   4.745   6.064  10.972  0.5785 -0.3283  1.5576
 1042TIP3    H224618   4.859   6.132  11.044  2.0832  0.3012 -1.2560
 1043TIP3   OH224619   1.582   6.493  12.274 -0.1854 -0.7225  0.1752
 1043TIP3    H124620   1.637   6.463  12.201 -1.1897 -2.4073  0.0539
 1043TIP3    H224621   1.585   6.420  12.336 -0.7659 -0.0342  1.0150
 1044TIP3   OH224622   0.330   1.787  14.721  0.3267 -0.4885 -0.2182
 1044TIP3    H124623   0.280   1.782  14.640 -1.1586 -0.2445  0.6531
 1044TIP3    H224624   0.412   1.830  14.696 -0.2975  0.0066 -1.4890
 1045TIP3   OH224625   0.573   4.502  14.119 -0.5870  0.9299  0.1372
 1045TIP3    H124626   0.567   4.407  14.115  0.0685  0.8914 -2.8262
 1045TIP3    H224627   0.661   4.520  14.151 -0.9978  0.5894  1.4987
 1046TIP3   OH224628   0.761   0.114   5.320  0.1910 -0.2447 -0.9671
 1046TIP3    H124629   0.843   0.117   5.271 -0.3288 -0.4792 -1.8674
 1046TIP3    H224630   0.712   0.191   5.291  0.5849  0.6013  0.4928
 1047TIP3   OH224631   6.671   4.460   0.636 -0.7622 -0.8457  0.1637
 1047TIP3    H124632   6.721   4.472   0.554 -0.4786 -1.0177  0.3077
 1047TIP3    H224633   6.654   4.548   0.667  2.0396 -0.7314  1.6676
 1048TIP3   OH224634   6.563   4.391   4.082  0.4618  0.1296  0.1948
 1048TIP3    H124635   6.507   4.326   4.038 -1.6339  0.9827  1.4241
 1048TIP3    H224636   6.650   4.375   4.048 -0.3935 -1.8060 -1.2726
 1049TIP3   OH224637   0.082   4.523   4.722  0.2904 -0.0771  0.0263
 1049TIP3    H124638   0.142   4.476   4.780  2.4890  1.7448 -0.6366
 1049TIP3    H224639  -0.005   4.495   4.750  1.2893 -0.4032  3.2000
 1050TIP3   OH224640   4.387   0.050   2.650  0.0114  0.2964  0.2513
 1050TIP3    H124641   4.386  -0.042   2.621  0.0596  1.4089 -4.0575
 1050TIP3    H224642   4.294   0.071   2.662  0.0831 -0.7586  3.5183
 1051TIP3   OH224643   1.671   1.428   5.688  0.0792 -0.9731 -0.4823
 1051TIP3    H124644   1.611   1.354   5.689 -0.3976 -0.5949 -0.6257
 1051TIP3    H224645   1.680   1.453   5.780  0.7419 -1.6021 -0.3694
 1052TIP3   OH224646   5.151   4.214  16.944 -0.2543 -0.5939  0.4658
 1052TIP3    H124647   5.158   4.309  16.952  0.5140 -0.5418 -0.6137
 1052TIP3    H224648   5.190   4.194  16.859  1.1171 -2.0269  1.3710
 1053TIP3   OH224649   5.468   3.929  15.720  0.4791 -0.1249  0.2699
 1053TIP3    H124650   5.539   3.908  15.780  0.3192  2.2714  1.4154
 1053TIP3    H224651   5.501   4.004  15.670 -1.3448  1.3666  1.1679
 1054TIP3   OH224652   3.930   3.763  12.963 -0.5213 -0.8233  0.1567
 1054TIP3    H124653   4.005   3.740  13.017  1.2206  0.4280 -1.5641
 1054TIP3    H224654   3.924   3.859  12.970 -2.9672 -0.9826  1.4255
 1055TIP3   OH224655   3.968   3.623   1.108  0.5565 -0.2822  0.5505
 1055TIP3    H124656   4.007   3.613   1.195 -0.9070 -0.9674  1.1734
 1055TIP3    H224657   3.968   3.717   1.092  1.6413 -0.2113  0.8888
 1056TIP3   OH224658   3.742   0.812  11.530 -0.0384  0.1484 -0.0047
 1056TIP3    H124659   3.666   0.789  11.584 -0.3677 -0.4476 -0.7130
 1056TIP3    H224660   3.707   0.825  11.442  0.6065  0.3524 -0.2380
 1057TIP3   OH224661   0.396   2.320   1.808  0.6363  0.6528  0.7574
 1057TIP3    H124662   0.435   2.347   1.891  1.7662 -0.0550  0.4922
 1057TIP3    H224663   0.427   2.230   1.795 -1.7542 -0.2625  0.8756
 1058TIP3   OH224664   5.284   4.382   3.445  0.0683  0.2104  0.2628
 1058TIP3    H124665   5.297   4.429   3.363  0.1937 -1.6161 -0.8185
 1058TIP3    H224666   5.192   4.356   3.444  0.1746 -0.1887  0.4925
 1059TIP3   OH224667   1.904   0.821   0.292 -0.1699 -0.0729 -0.4049
 1059TIP3    H124668   1.944   0.899   0.254 -1.4252  0.4578 -0.6776
 1059TIP3    H224669   1.963   0.749   0.268  1.3413  0.8439  0.3942
 1060TIP3   OH224670   4.380   1.953  12.210 -0.1474  0.0432  0.4429
 1060TIP3    H124671   4.378   1.932  12.117  0.5335  0.7105  0.2690
 1060TIP3    H224672   4.415   1.874  12.251 -1.0235 -0.4766  0.2086
 1061TIP3   OH224673   4.197   2.435   2.081 -0.2237  0.1653  0.2769
 1061TIP3    H124674   4.219   2.514   2.130  0.0447 -0.4576  1.1845
 1061TIP3    H224675   4.280   2.404   2.046 -0.3845  0.4925 -0.3986
 1062TIP3   OH224676   1.883   4.887  15.427 -0.1787 -0.1958 -0.0631
 1062TIP3    H124677   1.791   4.873  15.404 -0.1621 -0.7550  0.1901
 1062TIP3    H224678   1.881   4.958  15.491 -0.5591 -1.0022  0.8451
 1063TIP3   OH224679   0.575   2.535  17.128  0.2889 -0.2740  0.0149
 1063TIP3    H124680   0.649   2.478  17.149  1.2240  1.0754  0.5271
 1063TIP3    H224681   0.517   2.527  17.204  1.7289  1.4822  1.4066
 1064TIP3   OH224682   3.856   3.600   4.275  0.6878 -0.0218  0.7570
 1064TIP3    H124683   3.813   3.543   4.339 -0.6497  0.0800 -0.0187
 1064TIP3    H224684   3.896   3.539   4.213  0.2731 -0.1199  0.5837
 1065TIP3   OH224685   1.206   2.183   5.445 -0.2077  0.7237 -0.3635
 1065TIP3    H124686   1.295   2.153   5.430 -0.4124  0.5418 -1.2336
 1065TIP3    H224687   1.193   2.173   5.540 -0.0935 -1.4588 -0.5370
 1066TIP3   OH224688   4.623   3.745   4.274  0.4401  0.0201  0.1307
 1066TIP3    H124689   4.641   3.769   4.183 -0.0325 -1.6213 -0.4329
 1066TIP3    H224690   4.540   3.697   4.270  1.2638 -1.5552  1.1799
 1067TIP3   OH224691   6.497   1.092   4.814  0.0274 -0.2589 -0.3112
 1067TIP3    H124692   6.471   1.162   4.754 -2.3029 -0.0243  0.8821
 1067TIP3    H224693   6.525   1.021   4.756  0.7736  1.0195 -1.5766
 1068TIP3   OH224694   0.910   2.786   0.558 -0.4452  0.3929  0.2200
 1068TIP3    H124695   0.994   2.772   0.601 -0.5627  0.7388  0.5678
 1068TIP3    H224696   0.931   2.794   0.465 -0.2093 -0.5379  0.1842
 1069TIP3   OH224697   3.134   3.058  15.735  0.5291  0.1970  0.1054
 1069TIP3    H124698   3.210   3.017  15.776  0.6021  1.6287  1.4784
 1069TIP3    H224699   3.060   3.001  15.757  0.7692  0.2820  1.1424
 1070TIP3   OH224700   5.867   5.559   1.772 -0.6346 -0.3105 -0.0793
 1070TIP3    H124701   5.853   5.585   1.863 -1.0847  0.0239 -0.2424
 1070TIP3    H224702   5.949   5.510   1.774 -0.3398  0.1943  0.4084
 1071TIP3   OH224703   5.696   5.180  12.474 -0.0681  0.0119 -0.2510
 1071TIP3    H124704   5.648   5.190  12.392 -0.4839 -0.9352 -0.1343
 1071TIP3    H224705   5.640   5.124  12.528  0.6397 -0.1587  0.3183
 1072TIP3   OH224706   3.085   2.664  15.443 -0.1526  0.0682  0.6300
 1072TIP3    H124707   3.133   2.646  15.523  0.3841  0.4117  0.3945
 1072TIP3    H224708   2.996   2.632  15.459  0.5064 -1.9184  0.5663
 1073TIP3   OH224709   4.797   6.784  13.217 -0.1688 -0.4112 -0.3268
 1073TIP3    H124710   4.795   6.701  13.171 -0.5750 -0.3700 -0.3870
 1073TIP3    H224711   4.863   6.773  13.285  2.3910  0.3790 -2.5281
 1074TIP3   OH224712   1.523   4.854   4.075  0.6944  0.6590  0.2230
 1074TIP3    H124713   1.609   4.888   4.099  1.0725  0.5292 -0.8723
 1074TIP3    H224714   1.463   4.927   4.089  0.5945  0.1567  3.0006
 1075TIP3   OH224715   6.548   2.414   3.240  0.2994 -0.5073  0.3898
 1075TIP3    H124716   6.552   2.509   3.239 -1.6374 -0.3668  0.8527
 1075TIP3    H224717   6.494   2.392   3.164  0.4472 -1.2083  0.4804
 1076TIP3   OH224718   2.040   5.060   2.369 -0.1192  0.6050 -0.2840
 1076TIP3    H124719   2.111   5.020   2.318  0.9049 -0.1121  1.6318
 1076TIP3    H224720   1.971   4.994   2.370  0.1277  0.3485 -0.1692
 1077TIP3   OH224721   1.884   1.447  13.047 -0.5018 -0.5075  0.3752
 1077TIP3    H124722   1.920   1.464  13.134 -1.2118  0.7569  0.4445
 1077TIP3    H224723   1.870   1.533  13.009  0.0022 -1.0429 -1.0991
 1078TIP3   OH224724   6.168   2.866  16.351 -0.1238  0.2832 -0.0621
 1078TIP3    H124725   6.197   2.931  16.288 -0.4917  1.1713  0.6635
 1078TIP3    H224726   6.225   2.879  16.427 -0.7541  0.3472  0.4082
 1079TIP3   OH224727   5.433   1.412  13.086  0.3828 -0.7194  0.0888
 1079TIP3    H124728   5.467   1.333  13.045 -1.2642 -0.6572 -1.5432
 1079TIP3    H224729   5.448   1.481  13.021 -2.0396 -0.5657 -0.4201
 1080TIP3   OH224730   4.144   3.455   1.805 -0.3830  0.0652  0.3954
 1080TIP3    H124731   4.091   3.483   1.881 -0.4031  0.8380  0.0997
 1080TIP3    H224732   4.219   3.410   1.844 -0.2986  0.6164  0.8851
 1081TIP3   OH224733   3.853   5.412   4.196 -0.3793  0.0233  0.0231
 1081TIP3    H124734   3.796   5.336   4.207  0.9336 -1.0271 -0.0439
 1081TIP3    H224735   3.898   5.420   4.281 -0.6886  0.8812  0.1094
 1082TIP3   OH224736   5.901   0.656   5.561  0.2515 -0.4986 -0.1737
 1082TIP3    H124737   5.901   0.713   5.639 -1.0238 -3.3661  2.1279
 1082TIP3    H224738   5.937   0.711   5.492  0.0553  2.7560  2.0407
 1083TIP3   OH224739   3.047   1.195  14.236  0.5879  0.6214  0.4922
 1083TIP3    H124740   3.110   1.258  14.202 -1.0158  0.9322 -2.2056
 1083TIP3    H224741   3.101   1.129  14.280  2.5777  1.9912  0.2628
 1084TIP3   OH224742   1.836   0.361  10.990 -0.0978 -0.0752 -0.0176
 1084TIP3    H124743   1.785   0.285  11.019 -0.4715  0.0572 -0.3274
 1084TIP3    H224744   1.836   0.355  10.894  0.0109  0.2222 -0.0369
 1085TIP3   OH224745   0.475   0.156   1.566  0.1211 -0.6939 -0.6854
 1085TIP3    H124746   0.551   0.107   1.535  1.7715  1.7180 -0.7717
 1085TIP3    H224747   0.484   0.242   1.526 -0.0213  1.2180  2.9419
 1086TIP3   OH224748   4.088   2.572  13.599 -0.2763 -0.0159 -0.7125
 1086TIP3    H124749   4.005   2.546  13.558 -0.2491 -1.5037  0.0888
 1086TIP3    H224750   4.135   2.619  13.531 -0.8982 -1.0064 -1.8619
 1087TIP3   OH224751   2.512   6.381   0.198  0.4382  0.4643  0.3119
 1087TIP3    H124752   2.441   6.412   0.143  1.9339 -0.6452 -2.4321
 1087TIP3    H224753   2.472   6.316   0.255 -0.8435  0.3140 -0.7258
 1088TIP3   OH224754   4.903   1.061   3.225  0.3548  0.0853 -0.0244
 1088TIP3    H124755   4.919   1.125   3.155  0.5593  0.2468  0.1683
 1088TIP3    H224756   4.808   1.061   3.236  0.2012 -0.8662 -1.1663
 1089TIP3   OH224757   3.671   2.763   4.311  0.4421 -0.2913  0.2742
 1089TIP3    H124758   3.632   2.792   4.229 -2.8303 -1.4503  1.2781
 1089TIP3    H224759   3.763   2.746   4.289 -0.4333 -1.1830 -3.2992
 1090TIP3   OH224760   4.010   1.012  11.191 -0.0208 -0.5292 -0.0134
 1090TIP3    H124761   3.957   0.984  11.116  1.5987 -0.5336 -1.2036
 1090TIP3    H224762   3.957   1.081  11.232 -1.8900 -1.9772  0.1331
 1091TIP3   OH224763   5.160   3.385  16.504  0.4432  0.2496  0.0410
 1091TIP3    H124764   5.166   3.357  16.595  3.0854 -1.7583 -0.6170
 1091TIP3    H224765   5.108   3.316  16.461 -1.1837  1.4171  0.0373
 1092TIP3   OH224766   5.675   5.895   5.862 -0.0703 -0.3399 -0.6229
 1092TIP3    H124767   5.754   5.853   5.828  0.4078 -0.7404  0.9116
 1092TIP3    H224768   5.701   5.932   5.946 -1.1047  0.9863 -0.8437
 1093TIP3   OH224769   6.447   6.030  16.578  0.2145 -0.3201  0.2603
 1093TIP3    H124770   6.414   5.942  16.589  1.1992 -1.3336 -3.3558
 1093TIP3    H224771   6.369   6.086  16.577 -0.7182 -1.5918 -0.4989
 1094TIP3   OH224772   4.024   4.173  11.374  0.5834 -0.6377 -0.1791
 1094TIP3    H124773   4.056   4.148  11.288 -0.5224 -1.6279 -0.3384
 1094TIP3    H224774   3.934   4.202  11.360 -0.5432 -3.2314  0.8741
 1095TIP3   OH224775   0.410   2.255  14.183  0.7915  0.1012 -0.3693
 1095TIP3    H124776   0.502   2.276  14.196  0.7555 -0.5339  1.0573
 1095TIP3    H224777   0.363   2.317  14.239  0.4077 -0.1999 -0.3528
 1096TIP3   OH224778   5.782   2.186  16.252 -0.4873 -0.4306 -0.3842
 1096TIP3    H124779   5.701   2.227  16.283 -0.4140  0.0545 -0.8193
 1096TIP3    H224780   5.823   2.252  16.197  1.5125  0.3474  1.8633
 1097TIP3   OH224781   2.274   0.857  17.005  0.7993 -0.0378 -0.1337
 1097TIP3    H124782   2.343   0.846  16.940  0.2915  1.5498 -1.0032
 1097TIP3    H224783   2.262   0.952  17.011 -0.8828 -0.2531  0.4445
 1098TIP3   OH224784   3.712   4.403  10.465  1.2093  0.0066 -0.5392
 1098TIP3    H124785   3.723   4.342  10.392 -1.1743 -0.4921 -0.5592
 1098TIP3    H224786   3.656   4.356  10.527  0.4882  1.6342  0.0932
 1099TIP3   OH224787   0.201   2.403   2.122  0.7727  0.3216  0.0741
 1099TIP3    H124788   0.171   2.452   2.198  1.4488 -1.8275  1.8356
 1099TIP3    H224789   0.296   2.416   2.121  0.8590 -0.2894  0.0896
 1100TIP3   OH224790   5.855   2.952   4.615  0.2598 -0.0917 -0.0139
 1100TIP3    H124791   5.885   2.973   4.527 -0.8106  0.4429 -0.2605
 1100TIP3    H224792   5.761   2.965   4.613 -0.2037 -2.7674  0.4414
 1101TIP3   OH224793   1.986   1.757   3.927  0.0922 -0.2044  0.6257
 1101TIP3    H124794   1.953   1.693   3.990 -1.3739  0.8062  0.9316
 1101TIP3    H224795   1.929   1.834   3.938  0.6460  0.4873 -0.9967
 1102TIP3   OH224796   6.739   3.081  12.765 -0.1255  0.2274  0.1180
 1102TIP3    H124797   6.782   3.013  12.817 -0.8542 -0.7428 -0.5120
 1102TIP3    H224798   6.749   3.161  12.817  0.4277 -0.4278  1.0502
 1103TIP3   OH224799   6.233   1.551  14.118  0.2491  0.1882  0.0391
 1103TIP3    H124800   6.326   1.543  14.100  0.0233 -0.2968 -1.0349
 1103TIP3    H224801   6.214   1.644  14.100  0.4626  0.2068 -0.0990
 1104TIP3   OH224802   0.924   0.435   6.156 -0.9820 -0.6026 -0.1770
 1104TIP3    H124803   0.856   0.369   6.139 -0.3681 -0.9277 -1.4947
 1104TIP3    H224804   0.876   0.509   6.193 -1.8043 -1.4722  0.5703
 1105TIP3   OH224805   4.406   4.678  11.958  0.2921 -0.5280  0.4689
 1105TIP3    H124806   4.323   4.635  11.935  1.0983 -1.6690 -0.4813
 1105TIP3    H224807   4.400   4.764  11.917 -0.6933 -0.3395  0.9844
 1106TIP3   OH224808   3.430   4.416   6.720  0.4083 -0.2800 -0.2333
 1106TIP3    H124809   3.497   4.377   6.664 -0.1978  0.1091 -1.2464
 1106TIP3    H224810   3.434   4.509   6.702  0.2139 -0.1415  0.3946
 1107TIP3   OH224811   4.178   1.090   5.062 -0.3412  0.3975  0.0014
 1107TIP3    H124812   4.085   1.095   5.086 -0.2227 -0.4799  0.6600
 1107TIP3    H224813   4.210   1.180   5.074 -0.9178  0.5378  0.5315
 1108TIP3   OH224814   5.352   4.989  12.194  0.1387 -0.1258 -0.5344
 1108TIP3    H124815   5.301   4.980  12.275  2.2136 -3.1927  0.6018
 1108TIP3    H224816   5.288   4.984  12.124 -1.3891 -0.9332  0.8600
 1109TIP3   OH224817   2.071   6.792  15.140 -0.3102  0.0986  0.2455
 1109TIP3    H124818   2.010   6.720  15.156  1.2374 -1.1308  0.8153
 1109TIP3    H224819   2.037   6.864  15.193 -1.6532 -0.3031 -0.0097
 1110TIP3   OH224820   3.036   5.135   4.277 -0.0755 -0.4125  0.2207
 1110TIP3    H124821   2.994   5.050   4.266 -1.0749  0.3216 -2.6786
 1110TIP3    H224822   3.127   5.114   4.297 -0.4861 -2.1501  0.4218
 1111TIP3   OH224823   0.760   2.976  15.916 -0.5996 -0.3141  0.0059
 1111TIP3    H124824   0.820   2.961  15.843  1.0985  0.5293  1.1592
 1111TIP3    H224825   0.673   2.969  15.877  0.2302  1.0164 -2.3212
 1112TIP3   OH224826   3.439   0.910  16.432  0.1141 -0.0812 -0.0408
 1112TIP3    H124827   3.358   0.869  16.461 -0.1164  1.4277  1.6006
 1112TIP3    H224828   3.476   0.849  16.368 -2.5782 -0.5375 -1.2854
 1113TIP3   OH224829   3.004   4.619   6.128 -0.6157  0.2542 -0.0950
 1113TIP3    H124830   2.938   4.550   6.117 -0.0252 -0.2318 -0.6551
 1113TIP3    H224831   2.965   4.696   6.086 -0.4701 -0.2708 -1.2430
 1114TIP3   OH224832   4.025   0.496  12.513  0.3368  0.6113 -0.2202
 1114TIP3    H124833   4.025   0.485  12.608  3.1621  1.1473 -0.0760
 1114TIP3    H224834   3.933   0.513  12.491 -0.7749 -1.6925  2.0960
 1115TIP3   OH224835   3.489   1.905   3.201 -0.1780 -0.5313  0.7768
 1115TIP3    H124836   3.462   1.944   3.118  0.2713 -1.1353  0.3332
 1115TIP3    H224837   3.441   1.953   3.268 -1.1683 -0.5814  0.1136
 1116TIP3   OH224838   0.965   2.168   5.283  0.4093  0.1542  0.0456
 1116TIP3    H124839   0.926   2.136   5.365 -0.4871  0.6686 -0.1702
 1116TIP3    H224840   1.053   2.196   5.308  0.0583  0.5394  0.8947
 1117TIP3   OH224841   0.545   5.371   0.501 -0.2371  0.1186 -0.1606
 1117TIP3    H124842   0.482   5.310   0.540 -2.1159  1.3593 -1.0867
 1117TIP3    H224843   0.522   5.373   0.408  1.6766  0.0938 -0.6828
 1118TIP3   OH224844   4.783   4.741  16.879  0.2519  0.0232  0.3749
 1118TIP3    H124845   4.779   4.713  16.788 -0.7320  1.5655 -0.0947
 1118TIP3    H224846   4.842   4.816  16.879  0.5063 -0.1685  1.0645
 1119TIP3   OH224847   6.477   6.316   4.593  0.0356  0.4343  0.0319
 1119TIP3    H124848   6.483   6.372   4.671  1.4341 -1.4015  1.3217
 1119TIP3    H224849   6.563   6.323   4.552 -1.2741  3.0025 -2.6697
 1120TIP3   OH224850   3.900   5.956  13.452  0.5473  0.0318  0.4079
 1120TIP3    H124851   3.856   5.903  13.385 -0.2437  2.0903 -0.8015
 1120TIP3    H224852   3.986   5.916  13.462 -0.0770 -1.5720 -0.2800
 1121TIP3   OH224853   1.099   1.042  13.372 -0.6696  0.0301 -0.2760
 1121TIP3    H124854   1.181   1.079  13.405 -1.8237  1.9123  0.5997
 1121TIP3    H224855   1.090   0.959  13.418 -0.3858  0.8814  1.3697
 1122TIP3   OH224856   6.177   2.362  17.165  0.1035 -0.0056 -0.5740
 1122TIP3    H124857   6.172   2.271  17.136 -0.4097 -0.4734  0.8941
 1122TIP3    H224858   6.258   2.395  17.127  0.2174 -1.0279 -1.2546
 1123TIP3   OH224859   6.487   5.594  17.026  0.0371 -0.7494  0.1919
 1123TIP3    H124860   6.581   5.587  17.009  0.1496 -1.2622  0.9344
 1123TIP3    H224861   6.446   5.577  16.941  0.6337  1.5231 -0.6058
 1124TIP3   OH224862   6.620   3.673   0.282  0.2437 -0.5372  0.4484
 1124TIP3    H124863   6.627   3.725   0.202  0.2260 -0.6961  0.3434
 1124TIP3    H224864   6.622   3.738   0.353  0.2856 -0.3986  0.3212
 1125TIP3   OH224865   2.012   3.554  15.873 -0.3213  0.0768  0.3505
 1125TIP3    H124866   1.958   3.558  15.952 -0.9226 -0.1321 -0.0410
 1125TIP3    H224867   2.088   3.608  15.894 -3.4747  6.0232 -1.2518
 1126TIP3   OH224868   5.699   6.755  15.271 -0.0347  0.3522  0.0750
 1126TIP3    H124869   5.739   6.679  15.231 -1.7815 -1.4510  1.5449
 1126TIP3    H224870   5.608   6.752  15.243 -0.1602  1.8651  0.2298
 1127TIP3   OH224871   1.964   2.336  16.871  0.1478  0.6894 -0.4802
 1127TIP3    H124872   1.927   2.250  16.887  1.8491  0.2540  1.5921
 1127TIP3    H224873   1.891   2.389  16.839 -1.3047 -1.0703 -0.2005
 1128TIP3   OH224874   0.068   3.465   3.863 -0.1615  0.5210 -0.2217
 1128TIP3    H124875  -0.001   3.516   3.820 -0.6017 -0.3781 -0.6098
 1128TIP3    H224876   0.030   3.438   3.946  0.1764  1.0585  0.1120
 1129TIP3   OH224877   1.719   0.276  17.173  0.0168  0.3906 -0.3603
 1129TIP3    H124878   1.780   0.261  17.244 -0.8469 -1.3302  0.0589
 1129TIP3    H224879   1.743   0.362  17.138  0.4039  1.3141  2.0350
 1130TIP3   OH224880   6.317   3.260   6.210  0.0430 -0.1356 -0.3530
 1130TIP3    H124881   6.270   3.337   6.243 -0.6135 -0.2003 -1.1285
 1130TIP3    H224882   6.266   3.230   6.135  0.4894 -1.1203 -0.2823
 1131TIP3   OH224883   3.649   4.629   5.515  0.2562  0.1005 -0.8840
 1131TIP3    H124884   3.645   4.582   5.598  0.5025  0.4670 -0.6617
 1131TIP3    H224885   3.597   4.576   5.455  1.6986 -1.2495 -1.0244
 1132TIP3   OH224886   5.780   3.185  16.141 -0.5150  0.1338 -0.6078
 1132TIP3    H124887   5.696   3.144  16.122 -0.2886 -1.0068  0.7132
 1132TIP3    H224888   5.839   3.111  16.160 -0.0829  1.0217  1.8088
 1133TIP3   OH224889   1.326   0.999  17.209  0.3180 -0.5371 -0.2187
 1133TIP3    H124890   1.254   0.962  17.159 -0.2290  0.3601 -0.1138
 1133TIP3    H224891   1.307   0.976  17.300  0.6481 -1.0825 -0.2852
 1134TIP3   OH224892   0.773   6.634  16.260 -0.6775  0.4879 -0.0408
 1134TIP3    H124893   0.778   6.730  16.267 -0.6165  0.8009 -2.9027
 1134TIP3    H224894   0.858   6.604  16.292 -0.8909  1.3139  1.3897
 1135TIP3   OH224895   4.299   6.296  16.870 -0.0254 -0.3818 -0.3377
 1135TIP3    H124896   4.222   6.313  16.816  0.3730 -0.8371 -1.0531
 1135TIP3    H224897   4.265   6.248  16.946 -0.3701 -1.1019 -0.9361
 1136TIP3   OH224898   1.534   5.665   2.242  0.6615 -0.2564 -0.3048
 1136TIP3    H124899   1.550   5.608   2.318  0.4572 -0.1608 -0.1906
 1136TIP3    H224900   1.593   5.631   2.175  0.2125 -0.8994 -0.3919
 1137TIP3   OH224901   1.854   0.612  10.696 -0.2729 -0.3235 -0.5101
 1137TIP3    H124902   1.823   0.666  10.769 -1.5908  1.6259 -2.4313
 1137TIP3    H224903   1.919   0.665  10.651  3.3453 -2.8791  1.1633
 1138TIP3   OH224904   0.653   4.179  16.847 -0.1051  0.1194 -0.0952
 1138TIP3    H124905   0.649   4.085  16.867 -1.4036 -0.0746 -1.1702
 1138TIP3    H224906   0.657   4.183  16.752 -1.0699  1.1813 -0.0991
 1139TIP3   OH224907   4.046   1.096  12.158 -0.0781 -0.0176  0.2642
 1139TIP3    H124908   3.980   1.107  12.090  1.1149 -2.5394 -1.4802
 1139TIP3    H224909   3.998   1.057  12.232 -1.0104  0.8761  0.1574
 1140TIP3   OH224910   3.360   3.290  17.190 -0.0968  0.2049 -0.2605
 1140TIP3    H124911   3.316   3.367  17.226  0.2000  0.1530  0.2279
 1140TIP3    H224912   3.289   3.229  17.170 -0.3105  0.4761 -0.3413
 1141TIP3   OH224913   3.764   6.035  16.191  0.2357  0.0604  0.2115
 1141TIP3    H124914   3.685   5.987  16.215 -0.1405  0.1447 -0.8070
 1141TIP3    H224915   3.761   6.115  16.242 -0.9963  0.6429 -0.7276
 1142TIP3   OH224916   2.143   4.058   0.115 -0.7294  0.0684 -0.3183
 1142TIP3    H124917   2.095   3.991   0.068  0.6539 -0.6906 -0.7152
 1142TIP3    H224918   2.146   4.027   0.205 -0.9892  0.1274 -0.2888
 1143TIP3   OH224919   3.461   5.963  12.951  0.1337  0.0990  0.0787
 1143TIP3    H124920   3.413   5.934  13.029 -1.1985  1.7338 -0.0868
 1143TIP3    H224921   3.512   6.039  12.980  0.1013  0.3508 -0.5065
 1144TIP3   OH224922   5.827   6.778   3.939  0.4455  0.9442  0.0359
 1144TIP3    H124923   5.843   6.836   3.865  3.7852  0.3303  0.1521
 1144TIP3    H224924   5.813   6.692   3.900 -0.8512  1.1250  0.0443
 1145TIP3   OH224925   3.499   1.590   5.352  0.4180 -0.6521  0.1909
 1145TIP3    H124926   3.572   1.649   5.329 -0.6018  0.3793 -0.4975
 1145TIP3    H224927   3.542   1.514   5.391  1.7902  0.6672  1.4361
 1146TIP3   OH224928   5.144   1.404  16.490 -0.4694  0.4447 -0.6869
 1146TIP3    H124929   5.199   1.332  16.521 -0.1129  0.7542 -0.5808
 1146TIP3    H224930   5.067   1.402  16.547  0.6639  1.6814  0.9869
 1147TIP3   OH224931   1.638   2.838   6.550  0.0987 -0.0628 -0.4397
 1147TIP3    H124932   1.653   2.782   6.626 -1.3589 -0.4345 -0.3859
 1147TIP3    H224933   1.626   2.926   6.587 -0.1623 -0.1690 -0.2642
 1148TIP3   OH224934   0.460   5.019   2.883 -0.2631  0.1124  0.3480
 1148TIP3    H124935   0.413   5.097   2.851  0.9478  0.6367 -0.2393
 1148TIP3    H224936   0.425   4.947   2.832  2.5346  1.0829 -3.4492
 1149TIP3   OH224937   6.212   5.237  12.115 -0.2884 -1.0270 -0.1324
 1149TIP3    H124938   6.128   5.192  12.112 -0.7713 -0.2009  0.4260
 1149TIP3    H224939   6.235   5.250  12.023 -1.2005 -0.5073 -0.3004
 1150TIP3   OH224940   5.984   4.160   6.425 -0.2939  0.0532  0.4522
 1150TIP3    H124941   5.944   4.229   6.371 -0.2742  0.8626  1.4294
 1150TIP3    H224942   6.076   4.186   6.430 -0.6489  1.1291  2.4802
 1151TIP3   OH224943   5.654   6.742   1.903  0.2870 -0.1168 -0.4578
 1151TIP3    H124944   5.740   6.781   1.884  0.9466 -1.5946 -0.6598
 1151TIP3    H224945   5.614   6.730   1.817  1.1979 -2.2507 -0.6352
 1152TIP3   OH224946   3.024   5.669  12.967 -0.2553 -0.2020  0.1347
 1152TIP3    H124947   2.986   5.751  12.999  0.2320 -0.5782  1.7766
 1152TIP3    H224948   3.085   5.642  13.036 -2.8409 -3.6919  1.3181
 1153TIP3   OH224949   0.266   0.491  15.776 -0.0676 -0.5092  0.8403
 1153TIP3    H124950   0.244   0.571  15.728  0.2846 -1.2725 -0.6599
 1153TIP3    H224951   0.181   0.452  15.796 -0.3332 -1.9060 -2.2818
 1154TIP3   OH224952   3.790   0.475   1.827  0.0815  0.0128 -0.5060
 1154TIP3    H124953   3.754   0.394   1.789 -0.9738  0.7211 -1.0471
 1154TIP3    H224954   3.726   0.542   1.805  1.4002  1.1899 -0.8942
 1155TIP3   OH224955   2.682   5.701   1.105  0.1225 -0.2345 -0.1551
 1155TIP3    H124956   2.754   5.739   1.056 -0.1620  1.0240  0.3683
 1155TIP3    H224957   2.603   5.740   1.065 -0.3522 -2.1347 -1.2068
 1156TIP3   OH224958   3.390   5.264   4.528  0.1288 -0.0128 -0.5189
 1156TIP3    H124959   3.472   5.214   4.526 -0.9546 -1.8869 -0.6253
 1156TIP3    H224960   3.348   5.237   4.610 -0.3329  1.0420 -0.3960
 1157TIP3   OH224961   6.655   0.929   5.033  0.6429 -0.2278 -0.3804
 1157TIP3    H124962   6.608   0.983   4.970  0.1675 -0.2981 -0.0901
 1157TIP3    H224963   6.634   0.967   5.118  0.0497 -1.0410 -0.1478
 1158TIP3   OH224964   5.107   0.545   1.250 -0.3782  0.2999 -0.1199
 1158TIP3    H124965   5.140   0.516   1.165  5.6001 -0.5562  2.0335
 1158TIP3    H224966   5.100   0.465   1.302  2.0346  1.1548  1.7355
 1159TIP3   OH224967   3.279   5.030   4.336  0.3027 -0.6180 -0.1098
 1159TIP3    H124968   3.370   5.002   4.347  0.3142 -0.6103 -0.1839
 1159TIP3    H224969   3.245   4.973   4.267 -0.0103 -1.2222  0.5267
 1160TIP3   OH224970   4.975   0.217   0.556 -0.1348 -0.2377  0.4687
 1160TIP3    H124971   4.973   0.131   0.599 -1.2310 -0.3829  0.1703
 1160TIP3    H224972   5.067   0.231   0.534 -0.2780 -3.2281 -3.1762
 1161TIP3   OH224973   1.933   2.152   0.339 -0.0751  0.5402  0.0241
 1161TIP3    H124974   1.956   2.104   0.419  0.6835  1.7383  0.5417
 1161TIP3    H224975   1.978   2.236   0.347 -2.1638  1.7673 -0.3995
 1162TIP3   OH224976   0.647   2.136   3.521  0.0434  0.1740 -0.0140
 1162TIP3    H124977   0.558   2.119   3.552 -0.3466  2.4676  0.2890
 1162TIP3    H224978   0.636   2.203   3.453  1.4894  0.0013 -0.4521
 1163TIP3   OH224979   5.530   4.039   5.391  0.3487  0.1645  0.0572
 1163TIP3    H124980   5.522   4.069   5.300  0.0966  1.2890  0.4443
 1163TIP3    H224981   5.452   4.072   5.434 -0.5989 -2.1536  0.2270
 1164TIP3   OH224982   4.315   5.421   4.095  0.5309  0.3531 -0.5934
 1164TIP3    H124983   4.291   5.336   4.132  0.2933  0.0310 -1.4675
 1164TIP3    H224984   4.246   5.481   4.123  0.8751  0.3466  0.3089
 1165TIP3   OH224985   4.825   5.493   3.615 -0.1925 -0.1942 -0.3957
 1165TIP3    H124986   4.747   5.525   3.661  0.4396  0.1702  0.4534
 1165TIP3    H224987   4.847   5.563   3.554  0.4700  0.4915  0.5947
 1166TIP3   OH224988   2.774   5.856  14.838  0.6375 -0.2154 -0.4855
 1166TIP3    H124989   2.758   5.941  14.878  2.2757 -0.2881  0.4031
 1166TIP3    H224990   2.839   5.814  14.895  0.4782 -1.7324 -1.3581
 1167TIP3   OH224991   0.187   3.937   5.447  0.1398 -0.3378  0.1533
 1167TIP3    H124992   0.259   3.989   5.411 -0.2959 -0.0516 -0.3172
 1167TIP3    H224993   0.225   3.851   5.464  0.6128 -0.1603 -0.0059
 1168TIP3   OH224994   1.453   0.559   1.084  0.2470  0.4605 -0.2987
 1168TIP3    H124995   1.371   0.562   1.035 -0.3992  0.9425  0.7864
 1168TIP3    H224996   1.520   0.577   1.018 -0.7328  3.0600 -0.6925
 1169TIP3   OH224997   2.564   4.567  16.787 -0.4600  0.5805 -0.0831
 1169TIP3    H124998   2.488   4.624  16.776  0.4905  1.9882  0.4373
 1169TIP3    H224999   2.628   4.621  16.832  0.5585 -0.8537  0.2456
 1170TIP3   OH225000   0.330   2.843   5.485 -0.6730 -0.1546 -0.3833
 1170TIP3    H125001   0.278   2.763   5.483 -1.1842  0.0985  1.2333
 1170TIP3    H225002   0.418   2.815   5.460 -1.4480 -0.6479 -2.8323
 1171TIP3   OH225003   0.381   4.939   3.751  0.0414 -0.3884 -0.4420
 1171TIP3    H125004   0.386   4.883   3.674 -1.9507  0.9548 -1.6352
 1171TIP3    H225005   0.307   4.904   3.801  0.9130 -0.8502  0.5646
 1172TIP3   OH225006   0.016   1.884   1.323 -0.3394  0.0856 -1.0097
 1172TIP3    H125007  -0.058   1.943   1.306 -1.2231  0.3422  2.7511
 1172TIP3    H225008   0.084   1.941   1.358  0.9001 -0.4743 -2.4181
 1173TIP3   OH225009   2.175   1.820   1.286  0.3722  0.1021 -0.3149
 1173TIP3    H125010   2.110   1.758   1.254  0.7451 -0.6773  0.4115
 1173TIP3    H225011   2.145   1.905   1.252  0.2618 -0.5515 -1.9221
 1174TIP3   OH225012   5.781   5.984  10.494  0.1192  0.2943  0.8981
 1174TIP3    H125013   5.758   6.060  10.441  1.8172  0.1647 -0.0888
 1174TIP3    H225014   5.706   5.925  10.486 -0.1830  0.8194 -0.3300
 1175TIP3   OH225015   0.778   3.245   4.361 -0.2501 -0.3723 -0.4222
 1175TIP3    H125016   0.798   3.338   4.374 -2.3648  0.0550  0.0943
 1175TIP3    H225017   0.777   3.208   4.450 -1.6163 -0.3794 -0.4297
 1176TIP3   OH225018   3.268   0.095  13.872  0.7625 -0.9239  0.6379
 1176TIP3    H125019   3.360   0.120  13.864  0.3006  0.6203 -0.4598
 1176TIP3    H225020   3.248   0.103  13.965  1.6792 -1.0368  0.8498
 1177TIP3   OH225021   4.514   6.665   4.272 -0.5492 -0.3620  0.3294
 1177TIP3    H125022   4.583   6.727   4.249 -0.3205 -0.1112  1.6104
 1177TIP3    H225023   4.560   6.589   4.308 -0.7431 -1.9057 -2.4231
 1178TIP3   OH225024   6.470   6.823   0.059 -0.0685 -0.3592  0.1536
 1178TIP3    H125025   6.411   6.885   0.102  0.2690  0.1971 -0.1835
 1178TIP3    H225026   6.555   6.865   0.060  0.1025 -0.6827 -0.3631
 1179TIP3   OH225027   1.880   6.350  12.354 -0.2566 -1.0179 -0.4823
 1179TIP3    H125028   1.850   6.367  12.265 -2.4531  1.2819  0.5889
 1179TIP3    H225029   1.893   6.436  12.392 -3.3178 -1.7371  2.6295
 1180TIP3   OH225030   5.325   3.189  10.778  0.2577  0.3173 -0.0475
 1180TIP3    H125031   5.340   3.264  10.836 -1.9129  1.1351 -0.4564
 1180TIP3    H225032   5.245   3.211  10.730  0.0946 -1.8523 -0.8931
 1181TIP3   OH225033   6.429   5.679   2.351 -0.1666  0.3964 -0.4153
 1181TIP3    H125034   6.501   5.737   2.330  1.4325 -0.6163  1.8289
 1181TIP3    H225035   6.438   5.662   2.445 -1.8326 -1.7635 -0.5511
 1182TIP3   OH225036   5.393   3.721  17.097  0.3483 -0.2047  0.1099
 1182TIP3    H125037   5.312   3.737  17.146  0.2749 -1.1004  0.3040
 1182TIP3    H225038   5.453   3.685  17.163  0.1932 -1.5922 -0.4658
 1183TIP3   OH225039   3.475   4.791  16.972 -0.6095 -0.1371  0.3970
 1183TIP3    H125040   3.517   4.723  17.024  0.0624 -0.7371 -0.8993
 1183TIP3    H225041   3.547   4.842  16.936 -1.1020  1.3178  1.3744
 1184TIP3   OH225042   3.924   3.797  12.006  0.3028 -0.3483 -0.0902
 1184TIP3    H125043   3.921   3.848  12.087  1.2911 -0.0312 -0.2292
 1184TIP3    H225044   3.842   3.749  12.003  1.1422 -2.0809  2.2209
 1185TIP3   OH225045   2.186   3.368   0.195 -0.4765 -0.2428  0.3913
 1185TIP3    H125046   2.106   3.417   0.212  0.2600  1.0657  0.2717
 1185TIP3    H225047   2.166   3.279   0.221 -1.6347  0.2648  1.3336
 1186TIP3   OH225048   2.373   1.371   4.646 -0.5158 -0.2200  0.9489
 1186TIP3    H125049   2.433   1.360   4.720  0.5705  1.2948  0.3491
 1186TIP3    H225050   2.414   1.323   4.574 -0.7570 -0.3484  0.8935
 1187TIP3   OH225051   6.170   2.482  11.878 -0.0914  0.8005  0.0404
 1187TIP3    H125052   6.166   2.499  11.973  0.8134 -0.9457  0.4320
 1187TIP3    H225053   6.203   2.564  11.841  0.3035  1.2591  1.3311
 1188TIP3   OH225054   1.235   0.124  10.249 -0.1381 -0.1952 -0.1717
 1188TIP3    H125055   1.252   0.031  10.243 -1.4963 -0.3752 -1.8630
 1188TIP3    H225056   1.235   0.155  10.159 -1.9904  0.9678  0.1576
 1189TIP3   OH225057   3.792   6.473  12.961 -0.4606 -0.6597 -0.0151
 1189TIP3    H125058   3.813   6.564  12.940  1.7536 -1.1982 -0.3385
 1189TIP3    H225059   3.730   6.447  12.893 -1.2740  0.6192  0.1856
 1190TIP3   OH225060   3.716   3.038   4.432 -0.5398 -0.1171  0.0515
 1190TIP3    H125061   3.675   3.093   4.499 -0.9731  1.4973 -1.4664
 1190TIP3    H225062   3.806   3.027   4.462 -0.5129  1.2330  0.5306
 1191TIP3   OH225063   4.914   6.050   2.638  0.1815  0.3582  0.2768
 1191TIP3    H125064   5.003   6.085   2.651 -0.2215  1.0411  1.2730
 1191TIP3    H225065   4.880   6.100   2.564 -0.1461  1.6669  1.2712
 1192TIP3   OH225066   2.955   2.862  15.849 -0.6146  0.5973  0.9286
 1192TIP3    H125067   2.928   2.786  15.900 -0.4429 -0.0527  0.0681
 1192TIP3    H225068   2.873   2.907  15.828 -0.8384 -0.0753  0.3281
 1193TIP3   OH225069   3.326   1.994   4.872 -0.8358  0.2809 -0.2476
 1193TIP3    H125070   3.394   2.041   4.825 -0.0902 -1.1503 -0.6567
 1193TIP3    H225071   3.344   2.011   4.965  0.1771 -0.1707 -0.3438
 1194TIP3   OH225072   3.517   2.365  16.727 -0.0793  0.0928 -0.0786
 1194TIP3    H125073   3.504   2.271  16.721 -0.0737  0.1371 -0.8572
 1194TIP3    H225074   3.599   2.381  16.679  0.0939  0.4522  0.3313
 1195TIP3   OH225075   0.000   5.039  11.410 -0.6843  0.3684  1.2901
 1195TIP3    H125076  -0.063   5.105  11.440  0.3692  0.5959  3.1655
 1195TIP3    H225077  -0.027   4.958  11.452 -0.3052  0.2467  1.3063
 1196TIP3   OH225078   2.557   1.758   4.234 -0.5417  0.2213 -0.6888
 1196TIP3    H125079   2.625   1.768   4.168 -1.1445 -1.3694 -1.6109
 1196TIP3    H225080   2.568   1.669   4.267 -1.0454  0.5698  0.4617
 1197TIP3   OH225081   3.533   4.875   1.126 -0.4937 -0.3295  0.0282
 1197TIP3    H125082   3.533   4.881   1.031 -1.1420 -0.3539  0.0218
 1197TIP3    H225083   3.545   4.965   1.156 -0.3690 -0.3127 -0.0713
 1198TIP3   OH225084   4.945   1.266   0.294 -0.3712  0.2678  0.4706
 1198TIP3    H125085   4.915   1.357   0.289 -1.1568  0.1141  1.8349
 1198TIP3    H225086   4.882   1.223   0.352  0.9609 -0.7180  1.2572
 1199TIP3   OH225087   3.914   0.244  13.599  0.0346 -0.3448  0.2601
 1199TIP3    H125088   3.905   0.150  13.613 -2.5485 -0.0854  0.8407
 1199TIP3    H225089   3.935   0.254  13.506 -3.3586 -1.4327 -0.7408
 1200TIP3   OH225090   6.210   3.164   0.241  0.2132 -0.0799 -0.1627
 1200TIP3    H125091   6.281   3.196   0.186 -0.2174 -0.2284 -0.8219
 1200TIP3    H225092   6.199   3.232   0.308 -0.4848  1.0551 -1.3574
 1201TIP3   OH225093   3.745   1.353  14.396  0.0850 -0.0761 -0.1704
 1201TIP3    H125094   3.731   1.310  14.311 -2.2739  1.6583 -0.7707
 1201TIP3    H225095   3.805   1.425  14.377  0.2421 -0.2090 -0.1800
 1202TIP3   OH225096   2.875   3.187  16.023  0.2215  0.7378 -0.2543
 1202TIP3    H125097   2.937   3.140  16.078 -0.1657  1.1986  0.5963
 1202TIP3    H225098   2.929   3.234  15.959  0.7736  1.4307  0.7095
 1203TIP3   OH225099   4.194   3.635   2.712  0.7173  0.3784  0.3351
 1203TIP3    H125100   4.281   3.671   2.697  1.0468  0.1556  1.6207
 1203TIP3    H225101   4.204   3.576   2.786 -0.0895 -1.3844 -0.8904
 1204TIP3   OH225102   3.973   2.038   0.418 -0.0793 -0.1771 -0.1713
 1204TIP3    H125103   3.895   2.049   0.474  0.1522  0.4824  0.0260
 1204TIP3    H225104   3.968   2.111   0.356  1.0683  0.6318  0.6610
 1205TIP3   OH225105   1.911   0.196   0.990 -0.0371 -0.4234 -0.1654
 1205TIP3    H125106   1.916   0.139   0.913 -0.1266 -0.4278 -0.1687
 1205TIP3    H225107   1.862   0.144   1.054 -0.9381  0.0065 -0.4922
 1206TIP3   OH225108   0.466   3.621   6.725 -0.7093 -0.1557 -0.2365
 1206TIP3    H125109   0.519   3.593   6.650 -0.1112  0.2530  0.0235
 1206TIP3    H225110   0.376   3.624   6.691 -0.3569  0.7378 -1.1486
 1207TIP3   OH225111   2.369   4.449  16.396 -0.0563  0.5227 -0.2305
 1207TIP3    H125112   2.442   4.426  16.454 -1.7890 -2.4958  0.9930
 1207TIP3    H225113   2.402   4.431  16.308  0.6644 -1.0506  0.3118
 1208TIP3   OH225114   4.625   2.988   4.952 -0.0775  0.4043 -0.1772
 1208TIP3    H125115   4.662   3.065   4.995 -0.0783  0.9489 -1.1456
 1208TIP3    H225116   4.666   2.986   4.866 -0.7128 -0.1988 -0.4740
 1209TIP3   OH225117   2.406   3.418  16.556  0.6920 -1.0347 -0.0578
 1209TIP3    H125118   2.331   3.401  16.613 -0.0251  1.0920 -0.2803
 1209TIP3    H225119   2.389   3.505  16.519  3.4483 -0.2894  0.1869
 1210TIP3   OH225120   2.246   5.880  16.988  0.1190  0.5971  0.8045
 1210TIP3    H125121   2.248   5.955  16.930  2.0693  1.6688  2.1275
 1210TIP3    H225122   2.335   5.873  17.022 -0.5014 -1.0487  2.2981
 1211TIP3   OH225123   6.564   0.701   4.754 -0.0228 -0.2182  0.0245
 1211TIP3    H125124   6.626   0.689   4.825 -0.6722 -0.1857  0.6112
 1211TIP3    H225125   6.588   0.785   4.715  0.2132 -0.1389  0.3389
 1212TIP3   OH225126   1.829   5.137  16.814 -0.0908  0.1605  0.0425
 1212TIP3    H125127   1.760   5.094  16.765  0.6340 -0.1532 -0.7310
 1212TIP3    H225128   1.863   5.069  16.873 -0.3153  0.2641  0.2939
 1213TIP3   OH225129   1.826   0.397  15.519 -0.6753  0.0862 -0.4645
 1213TIP3    H125130   1.831   0.383  15.614 -0.9643  1.8254 -0.1684
 1213TIP3    H225131   1.917   0.391  15.489 -0.6655 -1.3360 -0.2472
 1214TIP3   OH225132   5.132   6.271   5.580 -0.0825  0.6875  0.5512
 1214TIP3    H125133   5.157   6.213   5.651  0.7118  0.0789 -0.2063
 1214TIP3    H225134   5.077   6.217   5.523 -0.2320  0.9979  0.3939
 1215TIP3   OH225135   6.311   1.194   5.387  0.0232 -0.5846 -0.3390
 1215TIP3    H125136   6.251   1.161   5.454 -0.1569 -0.4799 -0.4500
 1215TIP3    H225137   6.257   1.206   5.309 -0.6145  2.6270  0.4227
 1216TIP3   OH225138   5.447   0.822   4.154  0.6930  0.0342 -0.0341
 1216TIP3    H125139   5.380   0.875   4.196  1.3304 -0.3305  1.5152
 1216TIP3    H225140   5.527   0.842   4.202  1.0861 -1.7896  0.1642
 1217TIP3   OH225141   0.143   0.357  16.135 -0.0635 -0.3677  0.1606
 1217TIP3    H125142   0.153   0.318  16.048 -0.1328  0.2860 -0.1486
 1217TIP3    H225143   0.085   0.432  16.121  0.0826 -0.1426  0.7318
 1218TIP3   OH225144   6.507   5.264   0.543 -0.4640 -0.2847  0.3001
 1218TIP3    H125145   6.545   5.210   0.473  1.6297 -1.4173  2.1713
 1218TIP3    H225146   6.558   5.345   0.542  0.1561 -0.6511  1.0103
 1219TIP3   OH225147   5.105   5.727  16.689  0.3540  0.5026 -0.6141
 1219TIP3    H125148   5.181   5.785  16.694  0.6609  0.0321  0.4556
 1219TIP3    H225149   5.140   5.645  16.655  0.0080  0.7810 -1.6725
 1220TIP3   OH225150   3.637   0.075  16.159  0.2489 -0.3308 -0.4803
 1220TIP3    H125151   3.567   0.121  16.204  1.2763  1.5047 -0.6754
 1220TIP3    H225152   3.701   0.055  16.227  1.0657  1.0344 -0.8024
 1221TIP3   OH225153   4.070   4.187   1.438  0.2332 -0.4682  1.0390
 1221TIP3    H125154   4.157   4.149   1.434  0.1364 -0.7323  1.3982
 1221TIP3    H225155   4.077   4.269   1.390  0.6141 -0.6129  0.8493
 1222TIP3   OH225156   6.378   5.496   2.808 -0.1012  0.5249  0.7567
 1222TIP3    H125157   6.329   5.511   2.727  1.5265 -1.0439 -0.5789
 1222TIP3    H225158   6.325   5.431   2.856  0.0599 -0.2945 -0.1416
 1223TIP3   OH225159   1.230   0.576   2.665 -0.5035  0.2120 -0.1931
 1223TIP3    H125160   1.154   0.520   2.682 -1.3137  1.5578  0.8535
 1223TIP3    H225161   1.248   0.618   2.750  1.6495 -0.3200 -0.3268
 1224TIP3   OH225162   1.075   6.763  14.723  0.0619 -0.4111  0.6829
 1224TIP3    H125163   1.164   6.799  14.719  0.1884 -0.7064  0.8056
 1224TIP3    H225164   1.039   6.776  14.635  0.3388 -0.5782  0.5453
 1225TIP3   OH225165   6.807   6.351   3.150 -0.2537  0.5591  0.2944
 1225TIP3    H125166   6.743   6.417   3.176  0.7630  0.7364  2.5801
 1225TIP3    H225167   6.780   6.272   3.197  0.0013  0.0278 -0.4286
 1226TIP3   OH225168   4.001   3.330  11.619  0.0952 -0.1371 -0.0599
 1226TIP3    H125169   3.980   3.250  11.668 -3.6821 -0.1986 -1.3961
 1226TIP3    H225170   3.983   3.401  11.681  1.9155 -0.2286  0.6307
 1227TIP3   OH225171   0.340   0.504   5.578  0.1826  0.2008 -0.2343
 1227TIP3    H125172   0.269   0.480   5.637 -0.1985 -1.5163 -1.3139
 1227TIP3    H225173   0.301   0.565   5.516 -0.1038 -0.0207 -0.2722
 1228TIP3   OH225174   5.601   1.737  11.250  0.0927  0.1575  0.2236
 1228TIP3    H125175   5.683   1.762  11.294  0.9623  0.1205 -1.3137
 1228TIP3    H225176   5.547   1.816  11.254  1.8112  1.5802 -2.3012
 1229TIP3   OH225177   2.003   2.248   5.326  0.2085 -0.2143  0.5016
 1229TIP3    H125178   2.093   2.240   5.292  0.0628 -0.6880  0.2067
 1229TIP3    H225179   1.991   2.170   5.380 -0.9745 -1.6957 -1.7533
 1230TIP3   OH225180   5.626   0.917  16.833 -0.0250  0.0508  0.3988
 1230TIP3    H125181   5.701   0.879  16.788  0.4188 -0.5487  1.5849
 1230TIP3    H225182   5.663   0.959  16.910 -0.9105 -0.3761  1.0769
 1231TIP3   OH225183   0.407   1.546   2.639  0.6944  0.0884  0.1826
 1231TIP3    H125184   0.367   1.462   2.659  0.4033  0.2869  0.4288
 1231TIP3    H225185   0.491   1.545   2.685  1.1583 -0.4818 -0.6375
 1232TIP3   OH225186   3.676   6.025  15.654 -0.2700 -0.3778 -0.2513
 1232TIP3    H125187   3.744   6.048  15.592 -0.2226 -1.0984 -0.4776
 1232TIP3    H225188   3.693   6.081  15.730  1.7774 -1.8894  0.4972
 1233TIP3   OH225189   0.475   2.996   0.493 -0.2449  0.0326 -0.2045
 1233TIP3    H125190   0.545   3.021   0.553  0.4817 -0.4632 -0.8232
 1233TIP3    H225191   0.459   3.074   0.440 -0.8076  0.4344  0.5336
 1234TIP3   OH225192   0.454   4.568  13.073  0.4457  0.3456  0.0099
 1234TIP3    H125193   0.544   4.594  13.052  0.5603 -0.0961 -0.0553
 1234TIP3    H225194   0.460   4.529  13.161 -0.0804  2.4752  1.0461
 1235TIP3   OH225195   3.378   4.986  14.519 -0.3543  1.0536 -0.4404
 1235TIP3    H125196   3.381   4.898  14.482 -1.8291  0.9453 -0.3701
 1235TIP3    H225197   3.394   5.043  14.444  1.2044  0.7289 -0.3754
 1236TIP3   OH225198   5.572   4.161  15.622  0.1782  0.2854 -0.1397
 1236TIP3    H125199   5.487   4.198  15.599  0.3031  3.2600  3.3858
 1236TIP3    H225200   5.635   4.229  15.600  1.2590 -0.4850  0.4631
 1237TIP3   OH225201   6.495   0.120  12.093 -0.2472  0.0070  0.2770
 1237TIP3    H125202   6.410   0.092  12.125 -0.2582 -0.5614 -0.2241
 1237TIP3    H225203   6.476   0.163  12.010 -0.0090 -0.5262 -0.0602
 1238TIP3   OH225204   6.122   1.187   0.450 -0.0051 -0.0007 -0.0642
 1238TIP3    H125205   6.056   1.256   0.439  0.0924  0.2310  0.7467
 1238TIP3    H225206   6.108   1.129   0.375  0.3050  1.2095 -1.0860
 1239TIP3   OH225207   3.515   2.586   4.155  0.1407  0.2413 -0.0890
 1239TIP3    H125208   3.435   2.624   4.120  0.1032 -0.9138 -1.3236
 1239TIP3    H225209   3.534   2.512   4.098  1.8797  0.2495  0.4048
 1240TIP3   OH225210   4.663   5.425   1.010  0.4188 -0.5584 -0.0227
 1240TIP3    H125211   4.597   5.368   0.972  0.9694 -0.4140 -1.2281
 1240TIP3    H225212   4.735   5.425   0.947  0.6681  1.0039  0.2187
 1241TIP3   OH225213   1.202   4.698   1.185  0.2227 -0.1567 -0.0741
 1241TIP3    H125214   1.223   4.725   1.274 -0.0865  0.1854 -0.1036
 1241TIP3    H225215   1.286   4.676   1.146  0.3523 -0.3716  0.3220
 1242TIP3   OH225216   6.425   1.741   0.775 -0.1167  0.4617 -0.1930
 1242TIP3    H125217   6.500   1.775   0.824  0.0490  0.2280 -0.2850
 1242TIP3    H225218   6.386   1.819   0.735  0.4581  0.5094 -0.6760
 1243TIP3   OH225219   5.904   3.007   5.665  0.0196  0.3442  0.0221
 1243TIP3    H125220   5.932   3.064   5.593 -1.3234 -0.8591 -1.5392
 1243TIP3    H225221   5.809   3.001   5.654 -0.4751  1.4083  2.9300
 1244TIP3   OH225222   6.045   5.432  11.396  0.2207  0.1151  0.6751
 1244TIP3    H125223   6.043   5.521  11.359  0.4480  0.1321  0.6990
 1244TIP3    H225224   6.016   5.376  11.324 -0.6275  0.2789  0.8853
 1245TIP3   OH225225   2.095   3.998  17.017  0.1369  0.4406  0.0395
 1245TIP3    H125226   2.076   3.909  17.047  1.7231 -0.0772 -0.4019
 1245TIP3    H225227   2.174   3.989  16.964 -1.2684  1.6687 -2.4469
 1246TIP3   OH225228   1.914   2.322   4.502 -0.0135  0.2807  0.2144
 1246TIP3    H125229   1.876   2.253   4.447  0.3912 -0.3672  0.7329
 1246TIP3    H225230   1.885   2.403   4.461  0.0266 -0.1881 -0.7806
 1247TIP3   OH225231   4.554   4.959  15.664  0.0869  0.6600 -0.0953
 1247TIP3    H125232   4.566   5.053  15.653 -0.2612  0.5715 -1.4228
 1247TIP3    H225233   4.641   4.921  15.650  0.2069  0.7736  0.3394
 1248TIP3   OH225234   0.423   5.440   1.183  0.1190  0.1990  0.0149
 1248TIP3    H125235   0.443   5.381   1.255  0.3745  1.2945  0.8608
 1248TIP3    H225236   0.497   5.431   1.123  0.2466 -0.1865  0.2273
 1249TIP3   OH225237   6.505   4.236   1.541  0.1584  0.0682  0.5892
 1249TIP3    H125238   6.476   4.309   1.485  0.6492 -0.9956 -1.1516
 1249TIP3    H225239   6.537   4.171   1.479 -0.6660 -1.8234  2.0722
 1250TIP3   OH225240   5.726   6.798  12.294 -0.3812  0.1544  0.6183
 1250TIP3    H125241   5.684   6.807  12.209  0.4925 -0.3994  0.1146
 1250TIP3    H225242   5.802   6.741  12.278 -0.5322 -0.4401  1.8722
 1251TIP3   OH225243   4.262   1.330   4.093 -0.3673 -0.4060  0.1417
 1251TIP3    H125244   4.185   1.336   4.037  1.6817  0.0728 -2.8997
 1251TIP3    H225245   4.284   1.237   4.095  0.0680 -0.3385 -0.7302
 1252TIP3   OH225246   1.708   1.501  17.022 -0.2926 -0.0123 -0.1736
 1252TIP3    H125247   1.743   1.505  17.110 -0.1026  2.4072 -0.2899
 1252TIP3    H225248   1.781   1.528  16.966 -0.4736 -1.3010 -1.0707
 1253TIP3   OH225249   5.969   0.875   0.539 -0.2488  0.1505 -0.4370
 1253TIP3    H125250   6.034   0.928   0.586 -0.6635 -0.0940  0.4310
 1253TIP3    H225251   5.889   0.927   0.541 -0.1755  0.3211 -1.2567
 1254TIP3   OH225252   2.807   5.643   3.244 -0.5133  1.0028 -0.0959
 1254TIP3    H125253   2.742   5.713   3.253 -2.5521 -0.9064  0.9302
 1254TIP3    H225254   2.846   5.635   3.331 -2.3877 -1.0017  0.6185
 1255TIP3   OH225255   1.396   5.038  16.619  0.0625 -0.1330  0.7232
 1255TIP3    H125256   1.304   5.061  16.632 -0.9651 -2.5085 -1.6287
 1255TIP3    H225257   1.411   5.050  16.525  2.0258 -0.3401  0.9682
 1256TIP3   OH225258   4.546   5.217   0.863 -0.2120  0.1043  0.5058
 1256TIP3    H125259   4.538   5.152   0.933 -2.5448  0.1655  0.3864
 1256TIP3    H225260   4.461   5.213   0.817 -0.0899  2.5914 -0.0684
 1257TIP3   OH225261   4.324   5.453   0.660  0.4687  0.3979  0.3892
 1257TIP3    H125262   4.281   5.465   0.745 -0.7400 -0.1411 -0.1248
 1257TIP3    H225263   4.350   5.361   0.658 -0.0314  0.2604 -0.0501
 1258TIP3   OH225264   0.669   1.263   3.781 -0.4237 -0.2291 -0.3571
 1258TIP3    H125265   0.713   1.183   3.751 -0.2688  0.2472 -1.4283
 1258TIP3    H225266   0.576   1.242   3.776 -0.3781 -1.2270  1.8773
 1259TIP3   OH225267   4.143   5.432   2.218 -0.6908  0.5664  0.3009
 1259TIP3    H125268   4.084   5.392   2.283 -1.9789  1.5438 -0.2204
 1259TIP3    H225269   4.152   5.523   2.246  0.9952  0.3336  0.6249
 1260TIP3   OH225270   6.828   4.150   4.727  0.0454  0.1138 -0.2021
 1260TIP3    H125271   6.759   4.084   4.742 -0.7420  1.4182  2.5416
 1260TIP3    H225272   6.783   4.234   4.737  1.6691  1.0344 -0.3531
 1261TIP3   OH225273   6.425   0.289   2.649 -0.3713  0.2057  0.2466
 1261TIP3    H125274   6.484   0.308   2.722  2.7991  1.7900 -2.4625
 1261TIP3    H225275   6.377   0.371   2.636 -2.5072 -0.7350  1.7450
 1262TIP3   OH225276   5.841   5.214   1.775  0.0853 -0.1347 -0.0725
 1262TIP3    H125277   5.760   5.262   1.760  0.3078  0.0354 -0.7481
 1262TIP3    H225278   5.822   5.124   1.749 -0.1790 -0.3136  0.7126
 1263TIP3   OH225279   1.247   4.877   5.731 -0.0007 -0.2711 -0.0014
 1263TIP3    H125280   1.312   4.874   5.801 -0.6997  0.0387  0.6729
 1263TIP3    H225281   1.258   4.793   5.685  0.9091 -0.1953  0.0573
 1264TIP3   OH225282   5.931   0.062  16.425 -0.6627 -0.1566  0.6103
 1264TIP3    H125283   5.907   0.152  16.449 -2.7476 -1.4264  3.9184
 1264TIP3    H225284   5.993   0.035  16.493 -0.3765 -1.3587 -0.1037
 1265TIP3   OH225285   6.625   5.303  12.694 -0.1388  0.4511 -0.0055
 1265TIP3    H125286   6.713   5.315  12.659 -0.4724 -0.6667 -1.3338
 1265TIP3    H225287   6.638   5.286  12.787  1.1638 -0.8837 -0.3942
 1266TIP3   OH225288   0.658   1.884   0.395 -0.0331 -0.7466  0.0904
 1266TIP3    H125289   0.577   1.885   0.446  0.0882 -0.7199  0.2810
 1266TIP3    H225290   0.647   1.810   0.335 -0.4048 -0.4478 -0.2192
 1267TIP3   OH225291   2.812   1.756   2.292 -0.1914 -0.0400 -0.6617
 1267TIP3    H125292   2.793   1.710   2.373  0.3777 -0.7969 -0.9502
 1267TIP3    H225293   2.886   1.813   2.314  1.0434 -1.4433 -1.0453
 1268TIP3   OH225294   1.698   5.666  14.125  0.4042 -0.2592  0.2382
 1268TIP3    H125295   1.669   5.604  14.192 -1.3301 -2.4136 -2.3084
 1268TIP3    H225296   1.642   5.743  14.138 -1.9303 -1.7352 -0.3411
 1269TIP3   OH225297   2.089   3.802  15.628  0.3165 -0.4281 -0.5848
 1269TIP3    H125298   2.059   3.825  15.539  0.6063  0.8401 -0.3684
 1269TIP3    H225299   2.134   3.718  15.616  2.1797  0.6957 -2.0318
 1270TIP3   OH225300   3.250   0.887   5.599  0.6316  0.3390  0.2512
 1270TIP3    H125301   3.342   0.881   5.572 -0.0017 -0.2690 -1.9512
 1270TIP3    H225302   3.214   0.958   5.547  0.1288  1.4896  2.0957
 1271TIP3   OH225303   2.114   6.395  14.599  0.3165  0.4592 -0.3446
 1271TIP3    H125304   2.050   6.466  14.600 -2.0569 -1.5401 -0.1723
 1271TIP3    H225305   2.099   6.350  14.516  1.8231  0.1476 -0.4870
 1272TIP3   OH225306   2.096   6.684   4.077  0.0296 -0.5124 -0.2105
 1272TIP3    H125307   2.049   6.747   4.132 -1.6223 -0.4306 -1.6174
 1272TIP3    H225308   2.148   6.632   4.138 -0.4207  0.6535  1.2223
 1273TIP3   OH225309   4.988   0.043  11.902  0.1000 -0.7756 -0.1542
 1273TIP3    H125310   4.958  -0.048  11.897  0.4535 -0.8495 -1.1091
 1273TIP3    H225311   5.076   0.041  11.864 -0.1501  0.0753 -0.7986
 1274TIP3   OH225312   3.259   1.436   5.465  0.6994 -0.6658 -0.0227
 1274TIP3    H125313   3.335   1.491   5.447  0.2821 -0.2565 -0.5624
 1274TIP3    H225314   3.248   1.383   5.386 -0.3469  0.1982 -0.4788
 1275TIP3   OH225315   6.571   6.170  10.963  0.3288  0.4596  0.4940
 1275TIP3    H125316   6.575   6.102  10.896  2.9740 -0.2253  1.2532
 1275TIP3    H225317   6.572   6.252  10.914 -2.1272  0.0661 -0.3989
 1276TIP3   OH225318   1.663   0.727   4.192  0.1578  0.0002 -0.4118
 1276TIP3    H125319   1.671   0.803   4.134  2.2506 -1.8749 -2.8101
 1276TIP3    H225320   1.577   0.738   4.234 -0.1616  2.9814 -1.5999
 1277TIP3   OH225321   1.098   4.456  13.704 -0.2493 -0.5434  0.0442
 1277TIP3    H125322   1.162   4.425  13.768  1.2743  0.9852 -0.6539
 1277TIP3    H225323   1.050   4.378  13.678  1.0537 -1.6858  0.9159
 1278TIP3   OH225324   6.474   4.637   2.569 -0.3656 -0.0891 -0.3207
 1278TIP3    H125325   6.506   4.612   2.482  2.0146  2.0852 -0.1692
 1278TIP3    H225326   6.379   4.642   2.558 -0.1194  0.4522 -2.9022
 1279TIP3   OH225327   0.920   4.598  11.400 -0.1152 -0.0260 -0.5579
 1279TIP3    H125328   0.973   4.524  11.371  0.2421 -0.1661  0.3991
 1279TIP3    H225329   0.883   4.635  11.320  1.8087  0.3678 -1.3227
 1280TIP3   OH225330   6.409   6.809  17.023 -0.1921 -0.2935  0.2838
 1280TIP3    H125331   6.419   6.902  17.003 -0.6232 -0.0579  1.0945
 1280TIP3    H225332   6.468   6.794  17.097 -1.0285 -0.3651  0.9559
 1281TIP3   OH225333   6.387   4.794  15.521  0.9582 -0.1269  0.6714
 1281TIP3    H125334   6.381   4.701  15.541  0.2642 -0.7919 -2.1846
 1281TIP3    H225335   6.315   4.834  15.569  0.9882 -1.1166  1.5691
 1282TIP3   OH225336   6.713   2.010   1.645  0.0932  0.6643  0.3144
 1282TIP3    H125337   6.667   1.930   1.619 -0.7415  1.2627 -0.0982
 1282TIP3    H225338   6.644   2.070   1.671  0.5485  1.8931 -1.1682
 1283TIP3   OH225339   2.460   3.587  11.683 -0.8258 -0.3717 -0.5961
 1283TIP3    H125340   2.450   3.586  11.778  0.2632 -1.2485 -0.4660
 1283TIP3    H225341   2.506   3.505  11.662  1.7469  1.1712 -1.5179
 1284TIP3   OH225342   3.173   5.240  14.463  0.8408  0.2745 -0.3922
 1284TIP3    H125343   3.114   5.169  14.490 -1.1558  2.6205  2.0783
 1284TIP3    H225344   3.234   5.249  14.536 -0.3705  2.4217  0.4722
 1285TIP3   OH225345   1.501   5.541  15.891  0.3283  0.2406 -0.2541
 1285TIP3    H125346   1.535   5.620  15.849  0.9694 -0.2572 -0.6970
 1285TIP3    H225347   1.407   5.554  15.893  0.3548  0.6625 -1.0812
 1286TIP3   OH225348   0.034   3.935  13.508  0.2669  0.1968 -0.2039
 1286TIP3    H125349   0.106   3.872  13.514  0.0873 -0.0864 -0.9206
 1286TIP3    H225350   0.010   3.952  13.599  2.3164  1.5651  0.1569
 1287TIP3   OH225351   5.561   0.247  11.315  0.3874  0.2091 -0.9046
 1287TIP3    H125352   5.657   0.243  11.313  0.3445 -1.0913 -1.0157
 1287TIP3    H225353   5.535   0.167  11.361 -0.6473  0.5898 -0.8142
 1288TIP3   OH225354   0.807   1.647   5.922 -0.1759 -0.0239  0.3598
 1288TIP3    H125355   0.782   1.719   5.980 -0.7170  1.0785 -1.1751
 1288TIP3    H225356   0.740   1.648   5.853  1.2805 -0.3004 -1.1093
 1289TIP3   OH225357   5.575   5.155   3.302 -0.8911 -0.9847  0.2098
 1289TIP3    H125358   5.576   5.191   3.391  0.6494  1.8436 -0.8276
 1289TIP3    H225359   5.645   5.090   3.302  0.1190  0.0764  0.6979
 1290TIP3   OH225360   3.311   3.738   1.733  0.3658  0.0087 -0.1230
 1290TIP3    H125361   3.329   3.667   1.671 -2.1325  0.9757 -2.1726
 1290TIP3    H225362   3.236   3.706   1.784 -0.1338  0.7523 -0.3731
 1291TIP3   OH225363   2.921   5.097  15.981  0.1143  0.4719  0.1379
 1291TIP3    H125364   2.851   5.033  15.975  2.2083 -1.8964 -0.6511
 1291TIP3    H225365   2.929   5.116  16.075  0.5250 -1.7889  0.6111
 1292TIP3   OH225366   2.629   3.150   4.036 -0.1392 -0.0104 -0.2698
 1292TIP3    H125367   2.593   3.173   4.122  0.3167  1.0844 -0.3620
 1292TIP3    H225368   2.589   3.066   4.016  0.4778 -0.7803  1.4527
 1293TIP3   OH225369   4.353   5.510  12.382  0.1970  0.1759 -0.0448
 1293TIP3    H125370   4.410   5.587  12.381  1.4231 -0.6177  1.7035
 1293TIP3    H225371   4.270   5.541  12.418  0.3375  0.8914 -0.3389
 1294TIP3   OH225372   1.264   1.691   5.094  0.2475  0.0622  0.1771
 1294TIP3    H125373   1.282   1.597   5.088  0.0638  0.1109 -1.9021
 1294TIP3    H225374   1.224   1.713   5.009 -0.0085  1.9540  0.7452
 1295TIP3   OH225375   2.069   5.936  15.293  0.6243 -0.0731  0.1147
 1295TIP3    H125376   2.083   5.870  15.226  0.6872 -0.4155  0.4592
 1295TIP3    H225377   2.109   5.899  15.372 -0.6267 -0.2796  0.6837
 1296TIP3   OH225378   3.487   5.265   2.273 -0.4178 -0.2275 -0.1700
 1296TIP3    H125379   3.495   5.342   2.329  1.3932  0.1359 -0.8706
 1296TIP3    H225380   3.394   5.241   2.278 -0.8875  1.5990  0.5575
 1297TIP3   OH225381   3.916   4.883   3.040 -0.2057 -0.1146  0.1461
 1297TIP3    H125382   3.932   4.975   3.060 -0.8462 -0.0262  0.2490
 1297TIP3    H225383   3.982   4.861   2.974  0.9010  0.0189  1.1723
 1298TIP3   OH225384   5.106   1.787   2.187 -0.1233 -0.0199 -0.3598
 1298TIP3    H125385   5.126   1.695   2.172 -1.0038 -0.0823 -1.2872
 1298TIP3    H225386   5.075   1.819   2.102  3.0466  1.9492 -0.9160
 1299TIP3   OH225387   0.486   4.178  15.643 -0.2821 -0.5980 -0.0044
 1299TIP3    H125388   0.525   4.247  15.696  1.6774 -1.1068 -0.6609
 1299TIP3    H225389   0.411   4.219  15.600  2.0534  1.9165 -2.1204
 1300TIP3   OH225390   4.342   0.945   5.207  0.8089  0.1214  0.2705
 1300TIP3    H125391   4.296   1.003   5.147  0.8345 -0.2123 -0.0805
 1300TIP3    H225392   4.402   0.896   5.150  1.5895  0.5388  0.7106
 1301TIP3   OH225393   3.212   4.153  13.497  0.0472 -0.2315  0.1218
 1301TIP3    H125394   3.208   4.064  13.531 -0.5260 -0.1449  0.3013
 1301TIP3    H225395   3.293   4.190  13.533 -0.0271 -0.4785  0.5454
 1302TIP3   OH225396   6.234   2.995   2.567  0.1808 -0.1223  0.1922
 1302TIP3    H125397   6.151   2.956   2.541  0.6728 -0.6086 -0.7000
 1302TIP3    H225398   6.232   3.083   2.530 -0.7285  0.5811  1.8032
 1303TIP3   OH225399   4.491   2.642   3.353  0.0946 -0.3446 -0.6225
 1303TIP3    H125400   4.438   2.572   3.315 -0.7249  0.1021 -0.3257
 1303TIP3    H225401   4.524   2.606   3.435 -3.3940  0.7602  1.4996
 1304TIP3   OH225402   4.060   5.212  11.711 -0.1749 -0.1053 -0.3891
 1304TIP3    H125403   4.021   5.143  11.766  0.1568  0.2353  0.2824
 1304TIP3    H225404   4.035   5.188  11.622 -0.5062 -0.8104 -0.1152
 1305TIP3   OH225405   6.595   1.389  14.759  0.0320 -0.2838  0.0807
 1305TIP3    H125406   6.510   1.422  14.730  0.0933 -0.3682 -0.1947
 1305TIP3    H225407   6.583   1.295  14.768 -0.2055 -0.1650  1.0835
 1306TIP3   OH225408   2.295   5.916  13.496 -0.4756  0.4456 -0.4792
 1306TIP3    H125409   2.314   5.830  13.458  0.6798  0.9407 -1.0375
 1306TIP3    H225410   2.290   5.899  13.590 -0.1775 -0.2236 -0.5756
 1307TIP3   OH225411   5.357   1.562  12.355 -0.5041  0.2210 -0.4408
 1307TIP3    H125412   5.331   1.569  12.447 -1.0867  0.3202 -0.6090
 1307TIP3    H225413   5.274   1.558  12.307 -0.2363  1.6715 -1.0748
 1308TIP3   OH225414   3.213   6.289  13.748  0.0709 -0.4986  0.1851
 1308TIP3    H125415   3.250   6.378  13.751  2.4495 -1.4150  0.1409
 1308TIP3    H225416   3.228   6.254  13.836  0.6216 -1.3827 -0.2452
 1309TIP3   OH225417   3.477   5.165  17.169 -0.2083  0.1848 -0.0190
 1309TIP3    H125418   3.455   5.105  17.241  0.3106 -0.4892 -0.4085
 1309TIP3    H225419   3.500   5.107  17.097  0.1531  0.8653 -0.4528
 1310TIP3   OH225420   2.685   6.726   4.400  0.5191 -0.0021  0.1470
 1310TIP3    H125421   2.655   6.653   4.454  0.3161 -1.5684 -1.9766
 1310TIP3    H225422   2.669   6.698   4.310  1.4628  2.2218 -0.7871
 1311TIP3   OH225423   6.226   0.774  13.556  0.5863  0.2437 -0.2353
 1311TIP3    H125424   6.248   0.687  13.591  0.7981 -0.2090 -1.4288
 1311TIP3    H225425   6.141   0.794  13.594  0.4526 -0.5742 -0.0785
 1312TIP3   OH225426   6.047   5.801   5.401 -0.0934  1.3146  0.2417
 1312TIP3    H125427   6.104   5.854   5.457 -0.5827  1.2472  0.8158
 1312TIP3    H225428   5.959   5.815   5.437 -0.0651 -1.1799  1.4824
 1313TIP3   OH225429   0.485   0.813  12.157 -0.1089 -0.0545 -0.0651
 1313TIP3    H125430   0.449   0.740  12.105  0.2611  0.3938 -0.9656
 1313TIP3    H225431   0.522   0.770  12.234 -0.3520 -0.7763 -0.3332
 1314TIP3   OH225432   0.513   5.918   5.780  0.7015  0.1814  0.1902
 1314TIP3    H125433   0.417   5.914   5.776  0.7334 -0.9090  0.2382
 1314TIP3    H225434   0.531   6.004   5.819 -0.2558  0.3423  0.3214
 1315TIP3   OH225435   4.061   0.653  14.882 -0.2703 -0.3048 -0.3224
 1315TIP3    H125436   4.090   0.562  14.874 -0.2782 -0.3791  0.4750
 1315TIP3    H225437   4.111   0.700  14.816  0.7315 -0.6532  0.1787
 1316TIP3   OH225438   3.023   2.970   2.511  0.2997 -0.0386 -0.0659
 1316TIP3    H125439   3.020   2.875   2.525 -1.0645 -0.1060 -0.6978
 1316TIP3    H225440   2.988   3.007   2.592 -0.7261 -0.1557 -0.4385
 1317TIP3   OH225441   6.353   3.843   3.962 -0.6563  0.2051 -0.3612
 1317TIP3    H125442   6.449   3.842   3.959 -0.6816 -1.3880 -1.9484
 1317TIP3    H225443   6.331   3.783   4.033 -0.4613 -1.5861 -1.7542
 1318TIP3   OH225444   5.942   0.150   4.628  0.6664 -0.2203  0.9133
 1318TIP3    H125445   5.870   0.194   4.583 -0.3668 -2.6031  0.0549
 1318TIP3    H225446   6.020   0.199   4.604 -0.2004  0.1399 -1.3895
 1319TIP3   OH225447   1.879   3.027   1.807  0.7934 -0.7423 -0.2834
 1319TIP3    H125448   1.881   2.965   1.734 -1.0705 -1.1294 -0.0725
 1319TIP3    H225449   1.928   2.985   1.877 -0.1577 -1.8636 -0.2612
 1320TIP3   OH225450   2.433   2.115  15.863  0.0013 -0.1514  0.1819
 1320TIP3    H125451   2.372   2.146  15.797  1.2180  2.1800  0.0393
 1320TIP3    H225452   2.401   2.153  15.945  1.5196  1.6713  0.0037
 1321TIP3   OH225453   6.148   6.560   3.501 -0.0190 -0.0892  0.2871
 1321TIP3    H125454   6.118   6.641   3.543 -1.1734 -0.5492  0.3633
 1321TIP3    H225455   6.072   6.502   3.503  1.0316 -1.4858  0.9665
 1322TIP3   OH225456   5.130   3.697   5.186 -0.1728  0.6464 -0.0116
 1322TIP3    H125457   5.113   3.645   5.265  0.7518 -0.3612 -0.4438
 1322TIP3    H225458   5.044   3.729   5.159 -1.1050 -2.0286 -0.6302
 1323TIP3   OH225459   3.299   4.028   4.357 -0.2909  0.2897  0.5192
 1323TIP3    H125460   3.297   4.007   4.264  0.5151  3.1493 -0.2472
 1323TIP3    H225461   3.386   4.000   4.386 -1.5158 -3.2719  1.2624
 1324TIP3   OH225462   2.348   6.494  12.271  0.5718 -0.0926  0.5721
 1324TIP3    H125463   2.300   6.573  12.296 -0.9250 -0.3317 -1.3240
 1324TIP3    H225464   2.342   6.438  12.348 -0.1375  0.8241  1.2093
 1325TIP3   OH225465   2.850   3.410  17.194  0.1203  0.0768  0.3940
 1325TIP3    H125466   2.781   3.356  17.155  1.7124 -1.0663 -0.9664
 1325TIP3    H225467   2.857   3.380  17.284 -0.5952 -0.3623  0.3047
 1326TIP3   OH225468   0.563   6.562   6.358 -0.2079 -0.1043  0.3809
 1326TIP3    H125469   0.584   6.468   6.359 -1.4372 -0.4653 -1.7144
 1326TIP3    H225470   0.609   6.597   6.434  1.8023 -2.0794  0.2054
 1327TIP3   OH225471   1.912   1.057  12.742 -0.2303 -0.4899  0.1297
 1327TIP3    H125472   1.918   1.026  12.652 -0.0928  0.6876 -0.2729
 1327TIP3    H225473   1.818   1.062  12.759 -0.2573 -1.1296  0.2154
 1328TIP3   OH225474   2.743   5.522  17.060 -0.4885 -0.1306  0.2164
 1328TIP3    H125475   2.692   5.441  17.050 -0.8610  0.3032 -1.7270
 1328TIP3    H225476   2.713   5.558  17.143 -0.8671 -1.6096  0.7575
 1329TIP3   OH225477   5.454   1.187  14.641  0.4560  0.1511  0.5236
 1329TIP3    H125478   5.546   1.173  14.621  0.3676 -0.4819  0.5368
 1329TIP3    H225479   5.425   1.251  14.576  0.2183 -1.7559 -1.3704
 1330TIP3   OH225480   5.039   4.277   3.512 -0.5881  0.1942 -0.1361
 1330TIP3    H125481   4.998   4.196   3.543 -3.6759  1.4049 -0.7207
 1330TIP3    H225482   5.062   4.324   3.592  2.2831 -1.5851  0.2460
 1331TIP3   OH225483   5.878   5.114  12.903 -0.5589  0.1094 -0.4912
 1331TIP3    H125484   5.867   5.161  12.820  0.3091  1.2294  0.0017
 1331TIP3    H225485   5.821   5.158  12.965 -0.6619 -0.2673 -0.3103
 1332TIP3   OH225486   3.167   5.894   5.450 -0.3823 -0.6037  0.3201
 1332TIP3    H125487   3.200   5.893   5.540  0.7613  0.2675 -0.0733
 1332TIP3    H225488   3.211   5.819   5.409  2.7317  1.5957 -0.7078
 1333TIP3   OH225489   1.104   0.936   0.371 -0.1434  0.0452 -0.9452
 1333TIP3    H125490   1.057   0.860   0.340  0.6757 -0.0994 -1.8785
 1333TIP3    H225491   1.117   0.990   0.293  2.3613 -0.5427 -1.0193
 1334TIP3   OH225492   4.691   1.635   2.247 -0.9648 -0.0746  0.0087
 1334TIP3    H125493   4.743   1.687   2.308 -1.5858 -0.7915  1.1737
 1334TIP3    H225494   4.751   1.565   2.218  0.4573  2.1311 -2.9079
 1335TIP3   OH225495   6.169   0.190  12.014  0.0138  0.2778 -0.1075
 1335TIP3    H125496   6.074   0.195  12.030  0.0694 -0.1089  0.3702
 1335TIP3    H225497   6.194   0.103  12.044  0.4183  0.1421 -0.8297
 1336TIP3   OH225498   4.327   2.679   3.615  0.2714 -0.0081  0.3514
 1336TIP3    H125499   4.315   2.594   3.659  0.0581 -0.0339  0.2423
 1336TIP3    H225500   4.362   2.656   3.529 -0.9922 -0.0697 -0.1676
 1337TIP3   OH225501   1.969   2.428   4.207  0.2868  0.0784  0.3708
 1337TIP3    H125502   1.939   2.367   4.139 -0.4239 -0.2653  0.9825
 1337TIP3    H225503   2.065   2.420   4.204  0.4096  1.4048 -1.7967
 1338TIP3   OH225504   0.587   3.427   1.005 -0.3206  0.0309  0.3373
 1338TIP3    H125505   0.589   3.410   1.099 -1.1472  0.5114  0.4522
 1338TIP3    H225506   0.508   3.479   0.991  1.2958  2.5288 -0.2140
 1339TIP3   OH225507   0.696   3.460  14.111  0.4163 -0.0862  0.0621
 1339TIP3    H125508   0.757   3.387  14.106 -2.8758 -3.1802  0.8841
 1339TIP3    H225509   0.668   3.461  14.202 -0.2074  1.7742 -0.1099
 1340TIP3   OH225510   4.136   2.362   2.818  0.7021  0.1404  0.1577
 1340TIP3    H125511   4.091   2.278   2.822  2.8875 -1.0825  0.9715
 1340TIP3    H225512   4.176   2.364   2.731  0.5565  0.4064  0.0937
 1341TIP3   OH225513   1.067   1.861  15.837  0.6748  0.3166  0.0577
 1341TIP3    H125514   1.137   1.925  15.825 -0.1669  1.2299 -0.1531
 1341TIP3    H225515   1.097   1.783  15.791  1.5919  0.6575  0.0647
 1342TIP3   OH225516   4.726   4.955   3.975 -0.0466  0.0105 -0.3577
 1342TIP3    H125517   4.790   4.953   4.047  0.2002 -0.0046 -0.5754
 1342TIP3    H225518   4.767   4.905   3.905 -0.6039 -0.6080 -0.2517
 1343TIP3   OH225519   3.249   5.059   0.297 -0.6030 -0.0530 -0.4378
 1343TIP3    H125520   3.318   5.067   0.231  0.2775  3.7298  0.7014
 1343TIP3    H225521   3.286   5.001   0.364  1.6905  2.0462  0.2576
 1344TIP3   OH225522   5.754   6.528   3.764 -0.6620  0.5155  0.2756
 1344TIP3    H125523   5.701   6.590   3.714  0.4182  0.0383 -1.5502
 1344TIP3    H225524   5.694   6.455   3.783 -1.1958  0.8811  0.0244
 1345TIP3   OH225525   4.061   4.547  12.817  0.1924 -0.3054 -0.1643
 1345TIP3    H125526   4.140   4.531  12.765  1.1643 -1.3167  1.5148
 1345TIP3    H225527   4.093   4.595  12.894 -1.3760  2.1660 -0.9471
 1346TIP3   OH225528   5.862   1.893  14.404 -0.2977 -0.1287 -0.5139
 1346TIP3    H125529   5.864   1.821  14.466  1.7064  1.4262  1.3866
 1346TIP3    H225530   5.851   1.972  14.457 -0.2356  1.1509 -2.2847
 1347TIP3   OH225531   2.276   5.136   5.624 -0.1535  0.2864 -0.2720
 1347TIP3    H125532   2.310   5.120   5.712 -0.5187  0.2351 -0.1357
 1347TIP3    H225533   2.344   5.105   5.565 -0.7895 -1.6938 -0.0177
 1348TIP3   OH225534   1.016   5.672  16.675  0.4690 -0.0607 -0.2847
 1348TIP3    H125535   1.009   5.760  16.713  1.1376 -0.5736  1.1091
 1348TIP3    H225536   1.082   5.680  16.607  0.2185  0.6042 -0.4542
 1349TIP3   OH225537   6.265   5.519   4.170 -0.4297 -0.2761 -0.4560
 1349TIP3    H125538   6.308   5.433   4.168  0.1640 -0.0227  0.6554
 1349TIP3    H225539   6.186   5.505   4.222 -1.1450 -0.4905 -1.5791
 1350TIP3   OH225540   2.106   2.433  11.459 -0.0850 -0.1397  0.5028
 1350TIP3    H125541   2.047   2.496  11.500 -2.0829 -1.2321 -0.5661
 1350TIP3    H225542   2.050   2.360  11.433  1.5224 -0.7199 -1.6775
 1351TIP3   OH225543   1.158   5.177  14.950 -0.1974  0.0206  0.5276
 1351TIP3    H125544   1.118   5.106  14.900  1.3736 -0.7456  0.3081
 1351TIP3    H225545   1.154   5.147  15.041  0.6137 -0.4464  0.4182
 1352TIP3   OH225546   2.425   6.557   6.798  0.4530  0.1962  0.0082
 1352TIP3    H125547   2.332   6.554   6.818  0.7884  1.1859  1.9280
 1352TIP3    H225548   2.460   6.626   6.855  2.7894 -1.8358  1.2262
 1353TIP3   OH225549   3.061   5.810   3.256 -0.3943  0.1760 -0.1098
 1353TIP3    H125550   3.015   5.853   3.184 -0.7052  1.8925  1.0583
 1353TIP3    H225551   3.063   5.718   3.232 -0.6163  0.6860 -2.2354
 1354TIP3   OH225552   1.909   3.540   2.060 -0.5404 -0.0731  0.1789
 1354TIP3    H125553   1.848   3.571   2.127  0.1077 -0.0249  0.7522
 1354TIP3    H225554   1.853   3.521   1.984 -1.4085 -1.0868  1.0405
 1355TIP3   OH225555   6.160   4.555  13.406 -0.3149 -0.5343  1.1350
 1355TIP3    H125556   6.253   4.540  13.418 -0.2650 -0.6636  0.5906
 1355TIP3    H225557   6.121   4.468  13.399 -0.1746 -0.4658 -0.8759
 1356TIP3   OH225558   4.728   2.570  15.742  0.2723  0.4435 -0.4252
 1356TIP3    H125559   4.651   2.594  15.794  0.2920 -0.7541  0.1875
 1356TIP3    H225560   4.708   2.600  15.654 -2.0436 -2.0368 -0.8896
 1357TIP3   OH225561   4.633   3.197  15.578 -0.2599 -0.8954  0.1454
 1357TIP3    H125562   4.676   3.282  15.570  0.8005 -1.5525 -1.7224
 1357TIP3    H225563   4.549   3.208  15.533 -0.4877 -0.6273  0.6267
 1358TIP3   OH225564   1.479   4.195  17.161  0.1534 -0.3281 -0.3469
 1358TIP3    H125565   1.476   4.235  17.074  0.6986 -0.0430 -0.2395
 1358TIP3    H225566   1.474   4.269  17.221 -1.0347 -0.5741 -0.1195
 1359TIP3   OH225567   1.379   0.060  12.104  0.2534 -0.2163 -0.3031
 1359TIP3    H125568   1.351   0.086  12.192 -1.3514 -1.3282 -0.4435
 1359TIP3    H225569   1.450   0.121  12.083  0.5304  0.2324  1.6540
 1360TIP3   OH225570   6.164   0.639  15.030 -0.0723  0.0866  0.3057
 1360TIP3    H125571   6.145   0.693  14.954  0.6153  0.9966  0.7633
 1360TIP3    H225572   6.164   0.549  14.996 -0.0518  0.4569 -0.7067
 1361TIP3   OH225573   6.641   3.643   5.978  0.3083  0.0273 -0.5610
 1361TIP3    H125574   6.686   3.723   6.006  0.5426  0.1809 -1.3502
 1361TIP3    H225575   6.574   3.674   5.917 -1.8688 -0.0400  1.6492
 1362TIP3   OH225576   2.030   0.663   0.595 -0.2968  0.4782  0.3882
 1362TIP3    H125577   1.992   0.627   0.676 -1.7901  0.8871 -0.0869
 1362TIP3    H225578   1.966   0.728   0.567 -0.7849 -0.9583 -2.1102
 1363TIP3   OH225579   5.557   3.646   4.890 -0.4154 -0.6690 -0.0994
 1363TIP3    H125580   5.579   3.685   4.975  0.1637 -1.6203  0.1962
 1363TIP3    H225581   5.463   3.628   4.896 -0.2401 -1.4015  0.6307
 1364TIP3   OH225582   2.309   0.375  12.087  0.0717 -0.0220 -0.3552
 1364TIP3    H125583   2.328   0.332  12.170  1.7188  2.8863  0.9391
 1364TIP3    H225584   2.243   0.440  12.108  0.0371  0.3274 -1.4704
 1365TIP3   OH225585   3.652   3.227  13.046 -0.4294 -0.8421  0.0628
 1365TIP3    H125586   3.656   3.141  13.088  2.0890 -0.8815 -0.1418
 1365TIP3    H225587   3.721   3.278  13.088 -2.6016  1.5306  0.9950
 1366TIP3   OH225588   6.693   1.740   6.028  0.1551 -0.3550  0.2079
 1366TIP3    H125589   6.687   1.657   6.074  0.5023 -1.0363 -0.9424
 1366TIP3    H225590   6.608   1.782   6.042  0.1211 -0.7133  1.1223
 1367TIP3   OH225591   0.345   3.066  16.987  0.0297 -0.9031  0.0168
 1367TIP3    H125592   0.423   3.121  16.978  1.4933 -2.7675  0.5777
 1367TIP3    H225593   0.325   3.038  16.898 -0.7202  0.4673 -0.2720
 1368TIP3   OH225594   6.184   3.846   5.733 -0.1189  0.2025  0.0297
 1368TIP3    H125595   6.123   3.773   5.739  0.9340 -0.7355 -0.3084
 1368TIP3    H225596   6.210   3.848   5.641  0.3000  0.6286  0.1540
 1369TIP3   OH225597   5.199   5.582  17.002 -0.1814  0.1612 -0.2875
 1369TIP3    H125598   5.239   5.504  17.039 -1.0956  0.5792  1.6872
 1369TIP3    H225599   5.132   5.549  16.942 -1.5384 -0.6437  1.5983
 1370TIP3   OH225600   0.592   0.233   4.995  0.4595  0.3659  0.5383
 1370TIP3    H125601   0.661   0.273   4.943 -0.4334  1.1367 -0.0947
 1370TIP3    H225602   0.592   0.281   5.078  0.3228  0.7387  0.3228
 1371TIP3   OH225603   1.254   4.297  13.873 -0.7739 -1.0574  0.1723
 1371TIP3    H125604   1.335   4.319  13.918 -1.0180  1.1114 -0.3502
 1371TIP3    H225605   1.272   4.212  13.832  2.0321  0.2661 -1.6682
 1372TIP3   OH225606   1.105   0.806   4.904  0.1722  0.0364  0.1528
 1372TIP3    H125607   1.092   0.885   4.956  0.7879 -0.0310  0.4191
 1372TIP3    H225608   1.177   0.760   4.948 -1.2646 -1.5059  0.9964
 1373TIP3   OH225609   1.899   0.609   4.261 -0.2774  0.7471 -0.0662
 1373TIP3    H125610   1.956   0.683   4.279  1.1061  0.0682 -1.4288
 1373TIP3    H225611   1.822   0.648   4.220 -0.0181  1.5132  0.1567
 1374TIP3   OH225612   0.707   0.744  11.597  0.0781  0.5065 -0.2457
 1374TIP3    H125613   0.621   0.745  11.556  0.1541  0.7448 -0.4078
 1374TIP3    H225614   0.757   0.809  11.547  0.1280  0.9088  0.3200
 1375TIP3   OH225615   5.189   5.046   0.869  0.5930  0.4243 -0.1072
 1375TIP3    H125616   5.117   4.995   0.831 -0.6486 -0.6821  3.3308
 1375TIP3    H225617   5.266   4.991   0.857 -0.1706 -0.9132  0.8170
 1376TIP3   OH225618   3.411   4.971   3.833  0.3997 -0.4999  0.4734
 1376TIP3    H125619   3.459   4.888   3.837 -0.6543 -1.0745  1.9395
 1376TIP3    H225620   3.413   4.994   3.740  0.1886 -2.5011 -0.0927
 1377TIP3   OH225621   1.911   0.111  11.319 -0.4123 -0.0671  0.6118
 1377TIP3    H125622   1.912   0.059  11.239 -0.5697 -1.7086  1.6260
 1377TIP3    H225623   1.965   0.061  11.380 -1.1177  0.6286  1.8423
 1378TIP3   OH225624   3.828   1.979  13.788 -0.1287  0.5977 -0.2505
 1378TIP3    H125625   3.756   1.940  13.738  0.9262 -0.9445 -0.6327
 1378TIP3    H225626   3.820   1.941  13.875  0.5296  0.0064 -0.4455
 1379TIP3   OH225627   6.698   5.797   1.474 -0.1273 -0.8402 -0.2762
 1379TIP3    H125628   6.619   5.752   1.503  0.3169 -1.4453  0.0050
 1379TIP3    H225629   6.669   5.887   1.457 -0.6265 -0.7539  0.9423
 1380TIP3   OH225630   3.969   4.719   5.153 -0.4340  0.3365  0.6352
 1380TIP3    H125631   3.921   4.785   5.202 -2.5370 -0.2415 -0.5077
 1380TIP3    H225632   3.957   4.744   5.061  0.7844 -0.3034  0.2810
 1381TIP3   OH225633   1.955   6.301  11.108  0.2528  0.1930  0.2508
 1381TIP3    H125634   1.991   6.380  11.066  2.8493  0.1235  2.0744
 1381TIP3    H225635   1.952   6.236  11.038  0.5455  1.1945 -0.7234
 1382TIP3   OH225636   6.311   4.333   6.687 -0.7187 -0.6193 -0.4917
 1382TIP3    H125637   6.377   4.382   6.638  0.2911  0.4759  1.7889
 1382TIP3    H225638   6.298   4.384   6.767 -1.7445 -2.6490  0.7270
 1383TIP3   OH225639   6.671   0.932  16.138 -0.0756  0.1783  0.3495
 1383TIP3    H125640   6.582   0.897  16.128  0.3654 -0.5819 -1.0929
 1383TIP3    H225641   6.675   1.005  16.076  0.2863  0.2482  0.4557
 1384TIP3   OH225642   2.500   5.232   2.798 -0.2905  0.4546  0.3190
 1384TIP3    H125643   2.564   5.276   2.854  0.8454  1.4084 -1.5915
 1384TIP3    H225644   2.551   5.164   2.754 -0.4931  1.3637 -1.3943
 1385TIP3   OH225645   3.908   4.665   0.442 -0.1301  0.4422 -0.5381
 1385TIP3    H125646   3.988   4.684   0.393 -0.6166 -0.2318 -1.6368
 1385TIP3    H225647   3.929   4.687   0.533  0.5103  2.6445 -1.1668
 1386TIP3   OH225648   5.366   2.849  14.579 -0.8298  0.2298 -0.1946
 1386TIP3    H125649   5.416   2.881  14.654  0.7290  0.0889 -1.1492
 1386TIP3    H225650   5.391   2.757  14.571 -1.3360  0.1247 -0.6266
 1387TIP3   OH225651   1.994   4.243  16.931 -0.4723  0.6259  0.3913
 1387TIP3    H125652   1.907   4.271  16.960 -1.3831 -1.5747 -0.0132
 1387TIP3    H225653   2.007   4.158  16.973  0.6964  0.0649 -1.0171
 1388TIP3   OH225654   1.634   6.110  13.932 -0.0432  0.4420 -0.3558
 1388TIP3    H125655   1.678   6.055  13.997  0.2212 -1.6407 -2.1961
 1388TIP3    H225656   1.701   6.172  13.904  0.1748  0.6143  0.5105
 1389TIP3   OH225657   1.617   3.410  12.847  0.5973  0.3661  0.4016
 1389TIP3    H125658   1.576   3.447  12.926  3.6365  1.5245  1.5769
 1389TIP3    H225659   1.625   3.484  12.788  2.2520  0.5330  0.7949
 1390TIP3   OH225660   3.419   5.547   2.833  0.2280  0.7945  0.3187
 1390TIP3    H125661   3.419   5.562   2.928 -0.3670  0.3930  0.3905
 1390TIP3    H225662   3.498   5.591   2.802  1.1687 -0.2099  1.1879
 1391TIP3   OH225663   4.259   1.264  12.027 -0.1632  0.2346 -0.0329
 1391TIP3    H125664   4.224   1.176  12.013 -0.7344  0.5925 -0.9466
 1391TIP3    H225665   4.319   1.278  11.954  1.1696  0.0154  0.9747
 1392TIP3   OH225666   5.086   0.287   5.041  0.0673  0.9967 -0.0948
 1392TIP3    H125667   5.145   0.334   5.101  0.2181  0.3495  0.2882
 1392TIP3    H225668   5.116   0.311   4.954  0.3534  1.3428  0.0939
 1393TIP3   OH225669   3.245   2.836  16.256  0.7170  0.0641 -0.1043
 1393TIP3    H125670   3.208   2.855  16.342 -1.0172 -1.1145 -0.5410
 1393TIP3    H225671   3.325   2.890  16.252  0.5634  0.5426  2.0021
 1394TIP3   OH225672   2.030   4.057  13.852  0.1626 -0.1067 -0.3009
 1394TIP3    H125673   1.945   4.072  13.892  0.6304  2.0654  0.0618
 1394TIP3    H225674   2.012   4.044  13.759 -0.6329 -0.8467 -0.0501
 1395TIP3   OH225675   6.726   5.878  13.929  0.7944 -0.3121  0.3018
 1395TIP3    H125676   6.778   5.859  13.850  1.5523 -0.6485  0.8605
 1395TIP3    H225677   6.757   5.964  13.958  0.6496 -0.2721  0.3359
 1396TIP3   OH225678   1.453   0.485   3.583 -0.0484 -0.2436 -0.4322
 1396TIP3    H125679   1.385   0.471   3.649  0.2847 -0.6039 -0.1622
 1396TIP3    H225680   1.515   0.413   3.595  0.2499 -0.0663 -0.8454
 1397TIP3   OH225681   4.532   6.649   2.423  0.2784  0.0305  0.0589
 1397TIP3    H125682   4.516   6.583   2.490 -0.0170  0.2935  0.2539
 1397TIP3    H225683   4.619   6.684   2.443 -0.3651  1.0852  1.1623
 1398TIP3   OH225684   2.334   0.351   1.649 -0.3372  0.0600  0.3872
 1398TIP3    H125685   2.255   0.298   1.657 -0.9999  0.7385 -1.1799
 1398TIP3    H225686   2.305   0.440   1.666 -0.2388  0.5030 -1.5284
 1399TIP3   OH225687   2.964   4.362  12.879 -0.1484 -0.9573 -0.4396
 1399TIP3    H125688   2.904   4.428  12.845  0.7588 -0.6832 -1.5697
 1399TIP3    H225689   2.917   4.321  12.951 -0.8750  0.6903  0.0697
 1400TIP3   OH225690   6.061   3.885  16.705  0.4032 -0.1045  0.0817
 1400TIP3    H125691   6.053   3.794  16.734  1.5873 -0.7976 -1.6131
 1400TIP3    H225692   6.107   3.880  16.621 -0.1320  2.0155 -0.4059
 1401TIP3   OH225693   2.327   3.439   6.156 -0.7619 -0.2135  0.5453
 1401TIP3    H125694   2.340   3.366   6.095 -2.2494 -0.1065  0.0627
 1401TIP3    H225695   2.259   3.409   6.216 -1.3341  0.7344  0.3922
 1402TIP3   OH225696   4.348   5.767   1.765  0.2168  0.0786 -0.5353
 1402TIP3    H125697   4.354   5.727   1.678  3.1886 -1.8985  0.4125
 1402TIP3    H225698   4.425   5.824   1.770  1.9680 -2.2507  1.7589
 1403TIP3   OH225699   5.171   1.454  11.594 -0.6648  0.3456 -0.4175
 1403TIP3    H125700   5.219   1.479  11.672 -0.6744 -0.7880 -0.0355
 1403TIP3    H225701   5.083   1.490  11.608 -0.9581 -0.6912  0.5731
 1404TIP3   OH225702   1.695   4.869   1.106 -0.0486  0.1023 -0.2046
 1404TIP3    H125703   1.690   4.951   1.058  0.7137 -1.3711 -3.0074
 1404TIP3    H225704   1.755   4.814   1.056  1.1186 -1.5055  2.6829
 1405TIP3   OH225705   2.727   5.445   2.568 -0.2203  0.1052  0.0710
 1405TIP3    H125706   2.815   5.480   2.554 -0.1351 -0.6004 -1.4000
 1405TIP3    H225707   2.679   5.468   2.488 -1.4944  0.7933  0.9987
 1406TIP3   OH225708   4.006   6.354  13.116  0.0593 -0.1982  0.0115
 1406TIP3    H125709   4.064   6.411  13.066 -1.0785 -0.5203 -1.7656
 1406TIP3    H225710   3.918   6.374  13.083 -0.5551 -1.6353  0.6857
 1407TIP3   OH225711   2.146   2.377  10.696  0.4691 -0.2479 -0.6643
 1407TIP3    H125712   2.151   2.471  10.716 -0.9611 -0.0677 -1.0778
 1407TIP3    H225713   2.130   2.373  10.602 -2.2067 -0.7847 -0.2593
 1408TIP3   OH225714   1.601   0.377  11.153  0.1857  0.2787  0.4345
 1408TIP3    H125715   1.690   0.400  11.176 -0.0188 -0.4239  2.0666
 1408TIP3    H225716   1.606   0.284  11.129 -0.2598 -0.0673  1.6134
 1409TIP3   OH225717   5.554   1.903  10.509  0.2142  0.0718 -0.2666
 1409TIP3    H125718   5.602   1.829  10.472  0.3683 -0.0029  0.0797
 1409TIP3    H225719   5.473   1.863  10.543 -0.4360  0.3001 -1.4817
 1410TIP3   OH225720   4.526   3.385   2.049 -0.2774  0.7441 -0.2771
 1410TIP3    H125721   4.546   3.347   2.134  0.6069 -0.0480 -0.8167
 1410TIP3    H225722   4.569   3.327   1.986 -0.5955  1.5225 -1.2407
 1411TIP3   OH225723   0.802   2.756   2.354 -0.1543  0.0591  0.1675
 1411TIP3    H125724   0.773   2.799   2.435  0.4184  0.0478  0.3860
 1411TIP3    H225725   0.762   2.808   2.284 -1.2237 -0.3388  0.4587
 1412TIP3   OH225726   3.621   2.766   2.956  0.1482  0.5481  0.7608
 1412TIP3    H125727   3.665   2.682   2.966  0.6568  0.5174 -1.4125
 1412TIP3    H225728   3.688   2.831   2.975  0.6664  0.4777 -0.7455
 1413TIP3   OH225729   0.609   4.232   1.210 -0.0607 -0.7230 -0.0995
 1413TIP3    H125730   0.600   4.150   1.162  2.1169  0.2976 -2.4967
 1413TIP3    H225731   0.694   4.227   1.253 -0.1959  0.0124  0.2872
 1414TIP3   OH225732   2.643   3.841  11.489 -0.2274 -0.2460  0.4645
 1414TIP3    H125733   2.604   3.915  11.443 -0.6235 -0.7048  0.0455
 1414TIP3    H225734   2.616   3.764  11.438  1.6386 -0.5654 -0.1580
 1415TIP3   OH225735   2.864   4.874  11.528 -0.2315 -0.2781  0.4811
 1415TIP3    H125736   2.786   4.930  11.537 -0.1562  0.0264 -0.6241
 1415TIP3    H225737   2.851   4.829  11.445  0.0183 -1.4543  1.0630
 1416TIP3   OH225738   2.628   6.729  14.064  0.4200 -0.3968 -0.6365
 1416TIP3    H125739   2.634   6.702  14.156  0.2913 -0.5319 -0.6677
 1416TIP3    H225740   2.711   6.774  14.047  0.4612 -0.4069 -0.4657
 1417TIP3   OH225741   3.945   4.096   5.650 -0.1825 -0.0542 -0.5685
 1417TIP3    H125742   4.008   4.152   5.606 -0.3678 -0.2781 -1.1189
 1417TIP3    H225743   3.986   4.075   5.734  0.1587  0.3880 -0.6248
 1418TIP3   OH225744   0.098   4.765  15.923  0.4780  0.0228  0.0612
 1418TIP3    H125745   0.062   4.800  15.842 -0.5032  0.3852  0.6312
 1418TIP3    H225746   0.060   4.678  15.932 -1.8024  1.0639  1.5537
 1419TIP3   OH225747   0.655   6.019   1.160  0.3168  0.1241  0.0651
 1419TIP3    H125748   0.657   6.097   1.214 -0.1871  0.3670 -0.2573
 1419TIP3    H225749   0.708   5.955   1.207 -0.0760  0.3474  0.8212
 1420TIP3   OH225750   4.410   4.413  14.338  0.3472  0.7787  0.2221
 1420TIP3    H125751   4.370   4.331  14.308  0.8812  0.7603 -0.4797
 1420TIP3    H225752   4.366   4.481  14.287 -0.5335  1.0047  1.2468
 1421TIP3   OH225753   1.351   5.401  14.615  0.0310  0.0707  0.3087
 1421TIP3    H125754   1.396   5.459  14.553 -0.8298 -0.9280 -1.2950
 1421TIP3    H225755   1.406   5.324  14.620 -0.7395 -0.5604 -0.5654
 1422TIP3   OH225756   2.940   3.402   5.550  0.2854 -0.2962  0.1864
 1422TIP3    H125757   2.894   3.484   5.566 -1.6388 -0.9872 -1.3631
 1422TIP3    H225758   2.877   3.334   5.576  1.2497 -1.2942 -0.0171
 1423TIP3   OH225759   0.253   3.409  12.562 -0.3325 -0.4934  0.4212
 1423TIP3    H125760   0.204   3.488  12.540 -1.3331 -1.4324 -0.8706
 1423TIP3    H225761   0.188   3.340  12.565  0.7083 -1.5205  0.1191
 1424TIP3   OH225762   1.367   3.397   4.960  0.0782 -0.8254  0.0217
 1424TIP3    H125763   1.379   3.478   4.909  0.1204 -0.4605  0.6039
 1424TIP3    H225764   1.342   3.331   4.895  1.0686 -0.5926 -0.6165
 1425TIP3   OH225765   2.711   3.511  16.313 -0.2404  0.1462 -0.0963
 1425TIP3    H125766   2.789   3.475  16.271  0.8673 -0.9489  2.6743
 1425TIP3    H225767   2.646   3.441  16.309 -0.0541 -0.0455  0.2243
 1426TIP3   OH225768   3.004   1.113  12.405  0.4988  0.0714  0.1406
 1426TIP3    H125769   3.004   1.028  12.449  0.2061  1.0748  2.2229
 1426TIP3    H225770   2.931   1.161  12.446  0.8484  1.4357 -0.7555
 1427TIP3   OH225771   5.683   4.332  11.343  0.4753 -0.0949 -0.3706
 1427TIP3    H125772   5.772   4.306  11.366  0.0777 -0.2376  1.0974
 1427TIP3    H225773   5.662   4.402  11.405 -1.1873 -1.5250  0.7678
 1428TIP3   OH225774   0.544   0.164  16.479  0.1432  0.0187 -0.8235
 1428TIP3    H125775   0.467   0.151  16.425  0.5886  0.7417 -1.6511
 1428TIP3    H225776   0.555   0.259  16.483 -0.6986  0.0889  1.7339
 1429TIP3   OH225777   4.681   6.122  15.880 -0.3247 -0.9238 -0.1716
 1429TIP3    H125778   4.774   6.142  15.890 -0.3657 -1.6098  2.3410
 1429TIP3    H225779   4.678   6.030  15.853 -0.2692 -1.1144  0.4616
 1430TIP3   OH225780   2.912   0.921   4.802  0.3075 -0.1121  0.5458
 1430TIP3    H125781   2.824   0.954   4.823  0.2988  0.5014 -0.3652
 1430TIP3    H225782   2.896   0.840   4.754  0.1826  0.4232 -0.3583
 1431TIP3   OH225783   5.463   2.540   6.570  0.7502 -0.0104 -0.0685
 1431TIP3    H125784   5.541   2.591   6.592 -0.4729  2.3828 -0.9820
 1431TIP3    H225785   5.398   2.566   6.635 -0.5666  1.3530 -1.8500
 1432TIP3   OH225786   0.325   1.125  12.465  0.0175  0.2446  0.3889
 1432TIP3    H125787   0.350   1.205  12.418  0.9904 -0.9605 -1.2457
 1432TIP3    H225788   0.251   1.090  12.415 -1.1975  0.6859  1.7909
 1433TIP3   OH225789   1.506   3.896   1.568  0.4650  0.0701 -0.4582
 1433TIP3    H125790   1.557   3.953   1.625  0.7164 -0.3258 -0.2799
 1433TIP3    H225791   1.531   3.922   1.480 -0.0559  0.8038 -0.3959
 1434TIP3   OH225792   4.303   1.039   5.485  0.4611 -0.1891 -0.0587
 1434TIP3    H125793   4.337   0.990   5.410  0.8236 -0.9143  0.5752
 1434TIP3    H225794   4.311   1.131   5.458 -2.2437 -0.4376 -2.1689
 1435TIP3   OH225795   3.881   4.057   0.129  0.0932 -0.5870  0.5691
 1435TIP3    H125796   3.924   3.980   0.165  0.8509  0.2045  1.4111
 1435TIP3    H225797   3.788   4.034   0.126  0.2844 -1.4491  1.0223
 1436TIP3   OH225798   0.827   6.004  10.571 -0.2923 -0.1000 -0.3068
 1436TIP3    H125799   0.871   6.070  10.518  1.7103 -0.5120  0.7465
 1436TIP3    H225800   0.735   6.014  10.550  0.1226  1.8927 -1.4269
 1437TIP3   OH225801   4.536   0.494   3.415 -0.1569  0.2183  0.0334
 1437TIP3    H125802   4.547   0.404   3.384 -1.7065 -0.1282  0.4251
 1437TIP3    H225803   4.494   0.485   3.501  0.7743  1.2854  0.6258
 1438TIP3   OH225804   6.445   6.045  14.701 -0.2041 -0.2498 -0.0557
 1438TIP3    H125805   6.374   6.085  14.751 -1.9771 -0.9355 -1.8691
 1438TIP3    H225806   6.505   6.117  14.682 -2.1078  1.1217 -1.2253
 1439TIP3   OH225807   6.820   3.338  15.687 -0.6391  0.0663  0.0156
 1439TIP3    H125808   6.762   3.336  15.763 -1.7606  0.9241 -0.7979
 1439TIP3    H225809   6.763   3.355  15.612  0.5294 -0.0805 -0.9470
 1440TIP3   OH225810   4.334   1.554  11.453 -0.3341 -0.3532 -0.2178
 1440TIP3    H125811   4.403   1.614  11.425 -0.6847  0.1635  0.0116
 1440TIP3    H225812   4.377   1.469  11.459  0.5533  0.1405  0.9520
 1441TIP3   OH225813   3.445   0.528  12.977 -0.3306 -0.0001  0.1441
 1441TIP3    H125814   3.421   0.592  13.044 -0.0551 -0.7596  0.9905
 1441TIP3    H225815   3.387   0.454  12.993 -0.9427  0.1865 -1.0997
 1442TIP3   OH225816   4.471   3.623  16.954 -0.1079 -0.1708  0.0733
 1442TIP3    H125817   4.485   3.713  16.922  1.8967  0.0354  1.3190
 1442TIP3    H225818   4.520   3.619  17.036 -1.0564 -2.1128  0.6033
 1443TIP3   OH225819   3.948   0.918   5.175  0.2986 -0.3911 -0.2592
 1443TIP3    H125820   3.864   0.890   5.140  0.0994  0.6105 -0.6287
 1443TIP3    H225821   4.010   0.853   5.144 -0.4118 -1.4907  0.5291
 1444TIP3   OH225822   0.633   3.117  12.469 -0.0506  0.1055  0.0789
 1444TIP3    H125823   0.542   3.095  12.491 -0.4206  1.8378  0.4076
 1444TIP3    H225824   0.626   3.175  12.393  0.7709  0.3592  0.1843
 1445TIP3   OH225825   1.491   3.790   0.276  0.0326 -0.3078  0.4456
 1445TIP3    H125826   1.570   3.781   0.329 -0.6535  2.7911  2.2428
 1445TIP3    H225827   1.523   3.825   0.192  0.5882  1.8465  1.4893
 1446TIP3   OH225828   2.499   6.176  15.617 -0.2781 -0.0544  0.0539
 1446TIP3    H125829   2.415   6.133  15.633 -0.0621 -0.2050  0.8288
 1446TIP3    H225830   2.481   6.241  15.549 -0.9620 -0.2644  0.0336
 1447TIP3   OH225831   6.500   0.198  16.631  0.0111 -0.6123 -0.1347
 1447TIP3    H125832   6.586   0.203  16.673  0.0659 -0.3826 -0.2719
 1447TIP3    H225833   6.476   0.106  16.636  0.1332 -0.6273  0.1697
 1448TIP3   OH225834   3.699   1.512  15.132 -0.2046  0.7029 -0.0512
 1448TIP3    H125835   3.781   1.467  15.111 -0.8423 -0.1123 -0.8706
 1448TIP3    H225836   3.704   1.530  15.225  0.5399 -0.1013  0.0741
 1449TIP3   OH225837   2.558   5.198   5.108  0.4144 -0.0421  0.3144
 1449TIP3    H125838   2.516   5.251   5.041 -1.9552 -0.5212  1.3120
 1449TIP3    H225839   2.629   5.253   5.142  1.0947  0.5362 -1.9268
 1450TIP3   OH225840   5.733   6.633  13.808 -0.0890 -0.2781  0.2877
 1450TIP3    H125841   5.681   6.594  13.878  0.7088 -1.9688 -0.0014
 1450TIP3    H225842   5.669   6.654  13.739 -0.6440 -0.2610  0.8022
 1451TIP3   OH225843   1.574   6.364   1.881 -0.2077  0.2350 -0.2695
 1451TIP3    H125844   1.508   6.299   1.904 -2.7514  2.3887 -1.0807
 1451TIP3    H225845   1.606   6.397   1.966  0.0437 -0.9579  0.1261
 1452TIP3   OH225846   4.357   6.798  12.958  0.5618 -0.2522  0.0369
 1452TIP3    H125847   4.442   6.812  12.917 -0.2463  0.2411 -1.5430
 1452TIP3    H225848   4.372   6.818  13.051  2.0724  0.1924 -0.2732
 1453TIP3   OH225849   0.529   4.733   3.008 -0.0886  0.1527  0.1721
 1453TIP3    H125850   0.616   4.693   3.010 -1.4183 -3.3641 -2.1810
 1453TIP3    H225851   0.517   4.757   2.916 -2.6055 -2.3389 -0.2855
 1454TIP3   OH225852   4.045   0.617   0.969  0.0913 -0.5030  0.5535
 1454TIP3    H125853   4.089   0.606   0.885  0.3631 -1.5671  0.8191
 1454TIP3    H225854   3.966   0.667   0.949  0.3628 -0.3814 -0.2585
 1455TIP3   OH225855   1.107   3.170  14.999 -0.5889  0.4413 -0.4674
 1455TIP3    H125856   1.053   3.193  15.074 -0.9911 -0.8981 -0.3231
 1455TIP3    H225857   1.083   3.234  14.932 -2.1642  0.0321 -0.3255
 1456TIP3   OH225858   2.208   3.105   3.414  0.0607  0.3017 -0.0723
 1456TIP3    H125859   2.145   3.110   3.486 -0.9477  0.2628 -0.9237
 1456TIP3    H225860   2.207   3.193   3.375  0.6560  0.3442 -0.0081
 1457TIP3   OH225861   5.822   2.733  15.039  0.2747  0.4550  0.1422
 1457TIP3    H125862   5.905   2.696  15.068 -0.3485  0.3332  1.9375
 1457TIP3    H225863   5.767   2.730  15.117 -0.5133  3.1344 -0.2177
 1458TIP3   OH225864   5.166   6.711   0.767  0.3776 -0.3754 -0.4264
 1458TIP3    H125865   5.073   6.688   0.773  0.0837  0.6845 -0.6824
 1458TIP3    H225866   5.177   6.784   0.828  1.5857 -1.9878  1.4001
 1459TIP3   OH225867   3.773   2.860  16.532  0.3097  0.5479  0.0029
 1459TIP3    H125868   3.714   2.786  16.540  0.8941 -0.1694 -1.9696
 1459TIP3    H225869   3.853   2.832  16.577 -0.0574  0.6762  0.7551
 1460TIP3   OH225870   6.008   4.837   3.516 -0.0199 -0.5198 -0.0837
 1460TIP3    H125871   5.990   4.771   3.449  2.9069 -1.7349  0.1576
 1460TIP3    H225872   6.090   4.878   3.488  0.4936 -0.0216  1.9518
 1461TIP3   OH225873   0.824   3.415  13.416 -0.3374 -0.3414 -0.4458
 1461TIP3    H125874   0.806   3.509  13.409 -1.1505 -0.5755 -1.8953
 1461TIP3    H225875   0.867   3.405  13.501  1.3080  1.5773 -0.9728
 1462TIP3   OH225876   0.377   6.622   5.187 -0.6216  0.1587 -0.2447
 1462TIP3    H125877   0.383   6.527   5.180 -0.9205  0.1958 -1.0752
 1462TIP3    H225878   0.455   6.647   5.237 -0.5833 -0.5244  0.0476
 1463TIP3   OH225879   3.233   0.444  12.144  0.5146  0.1376  0.3514
 1463TIP3    H125880   3.175   0.417  12.216  2.9383  0.1031  2.4386
 1463TIP3    H225881   3.303   0.492  12.187  2.8522 -1.1356 -1.8174
 1464TIP3   OH225882   2.863   1.478  11.600  0.0764  1.2106 -0.2391
 1464TIP3    H125883   2.817   1.561  11.607 -1.6917  0.2225  0.6214
 1464TIP3    H225884   2.817   1.431  11.530 -0.0391  0.3411  0.3987
 1465TIP3   OH225885   5.791   0.502   4.950 -0.6775  1.0045  0.2756
 1465TIP3    H125886   5.838   0.569   4.901  0.9954  0.0701  0.5196
 1465TIP3    H225887   5.749   0.448   4.882  2.4299 -0.8804 -0.3578
 1466TIP3   OH225888   0.386   5.053  16.721  0.2493  0.7224  0.0416
 1466TIP3    H125889   0.398   5.145  16.698  0.6414  0.1889 -2.0935
 1466TIP3    H225890   0.299   5.049  16.760 -0.3309  1.8035 -1.0779
 1467TIP3   OH225891   0.006   1.215   1.495  0.3511  0.4315 -0.0600
 1467TIP3    H125892   0.007   1.273   1.419  0.6762 -0.0868 -0.4560
 1467TIP3    H225893  -0.079   1.173   1.492  0.4437  0.2570 -0.2568
 1468TIP3   OH225894   6.431   5.195   2.404 -0.2262 -1.0101  0.3203
 1468TIP3    H125895   6.433   5.268   2.342 -0.1020  0.4483  1.9650
 1468TIP3    H225896   6.453   5.118   2.351 -0.5465  0.1008 -1.5053
 1469TIP3   OH225897   2.338   1.072   5.788  0.0527  0.1820 -0.0503
 1469TIP3    H125898   2.367   0.981   5.787 -1.4304 -0.3465  1.2430
 1469TIP3    H225899   2.243   1.068   5.790 -0.1424  1.8240 -2.0597
 1470TIP3   OH225900   5.517   5.833   0.077 -0.3166 -0.2236 -0.0619
 1470TIP3    H125901   5.539   5.741   0.062 -0.5696 -0.3894  0.5688
 1470TIP3    H225902   5.510   5.841   0.172  0.0007  0.5161 -0.0934
 1471TIP3   OH225903   4.379   0.114   5.967  0.2665  0.4769  0.1098
 1471TIP3    H125904   4.474   0.102   5.959  0.1407 -0.0419 -0.6976
 1471TIP3    H225905   4.369   0.168   6.046  1.2197  0.4181  0.2917
 1472TIP3   OH225906   3.963   5.437   3.045 -0.1434  0.2884  0.1305
 1472TIP3    H125907   4.020   5.512   3.029  0.3318  0.1272  1.0401
 1472TIP3    H225908   3.946   5.402   2.958  0.7177  0.6573 -0.2013
 1473TIP3   OH225909   0.877   2.210  12.061 -0.4018 -0.4175 -0.2480
 1473TIP3    H125910   0.971   2.198  12.077  0.0660  2.1159 -0.6445
 1473TIP3    H225911   0.835   2.167  12.135  1.0931 -1.0445  0.2863
 1474TIP3   OH225912   2.906   1.350  15.047 -0.4093 -0.2103 -0.2553
 1474TIP3    H125913   2.845   1.307  14.986 -0.7665  0.7119 -0.5732
 1474TIP3    H225914   2.940   1.425  14.998  1.8884 -1.3324 -0.4889
 1475TIP3   OH225915   3.624   5.538   0.340 -0.1027 -0.4948 -0.0187
 1475TIP3    H125916   3.633   5.448   0.309 -0.4233 -0.1805 -1.0726
 1475TIP3    H225917   3.712   5.575   0.333 -0.1886 -0.4030 -0.6483
 1476TIP3   OH225918   2.709   5.080  16.466 -0.0959 -0.4067  0.0481
 1476TIP3    H125919   2.637   5.019  16.482 -1.1834  0.6835 -0.5303
 1476TIP3    H225920   2.675   5.141  16.401  2.1886 -1.3050 -2.1825
 1477TIP3   OH225921   3.362   1.247  14.572 -0.3131  0.7150 -0.1377
 1477TIP3    H125922   3.385   1.335  14.540  1.6863  0.8239  1.4326
 1477TIP3    H225923   3.363   1.255  14.667  0.9919 -1.2297  0.0737
 1478TIP3   OH225924   0.904   0.454  12.693 -0.9016 -0.1274  0.2068
 1478TIP3    H125925   0.842   0.381  12.694 -1.4459  0.3177 -0.3033
 1478TIP3    H225926   0.864   0.519  12.636 -0.0397  0.2392 -0.0059
 1479TIP3   OH225927   1.601   4.900  16.724  0.6090 -0.2672  0.2162
 1479TIP3    H125928   1.516   4.945  16.722  0.1494 -1.0183  1.7375
 1479TIP3    H225929   1.579   4.808  16.738  1.6755 -0.4915  0.4564
 1480TIP3   OH225930   0.647   5.221   5.437 -0.6318  0.4746 -0.2656
 1480TIP3    H125931   0.621   5.229   5.345 -1.6818 -1.8449 -0.2325
 1480TIP3    H225932   0.738   5.251   5.438 -0.6667  0.7694 -2.0001
 1481TIP3   OH225933   0.236   0.837   2.674 -0.3224  0.3151  0.5413
 1481TIP3    H125934   0.220   0.748   2.643 -3.2943 -0.1468  2.9704
 1481TIP3    H225935   0.290   0.876   2.606 -1.2579 -2.4524 -2.0151
 1482TIP3   OH225936   6.107   5.268  14.781 -0.2591  0.3318 -0.0569
 1482TIP3    H125937   6.035   5.287  14.721 -0.0572  1.2588 -0.0206
 1482TIP3    H225938   6.074   5.292  14.867 -0.4200 -0.6550  0.1738
 1483TIP3   OH225939   0.310   0.240  13.885 -0.3259  0.4405  0.6257
 1483TIP3    H125940   0.239   0.259  13.823 -0.4452  2.7957  1.3615
 1483TIP3    H225941   0.377   0.198  13.833 -1.0310  0.9980 -0.7928
 1484TIP3   OH225942   0.375   5.097  11.502  0.2196 -0.0076  0.4305
 1484TIP3    H125943   0.364   5.044  11.423  0.8941  2.0680 -1.1490
 1484TIP3    H225944   0.286   5.128  11.522 -0.2374 -1.8629  1.5600
 1485TIP3   OH225945   3.012   2.575  12.474 -0.2813 -0.5067  0.0800
 1485TIP3    H125946   3.102   2.578  12.442 -0.2527 -0.7744  0.1340
 1485TIP3    H225947   2.961   2.542  12.400 -0.7626  2.1444 -0.8819
 1486TIP3   OH225948   4.330   4.627  14.794 -0.4920  0.0684 -0.5313
 1486TIP3    H125949   4.251   4.621  14.740 -0.1678  0.5093 -1.0645
 1486TIP3    H225950   4.384   4.554  14.765 -0.7856 -0.3577 -0.0215
 1487TIP3   OH225951   1.243   2.829  12.031 -0.1643 -0.6713  0.8602
 1487TIP3    H125952   1.310   2.866  11.973 -1.8937 -1.4475 -1.8143
 1487TIP3    H225953   1.262   2.868  12.116  0.7467  3.0104 -0.7997
 1488TIP3   OH225954   0.747   4.348  17.167 -0.1395  0.0830 -0.3236
 1488TIP3    H125955   0.719   4.274  17.221  0.0739 -0.0505 -0.3917
 1488TIP3    H225956   0.672   4.408  17.166 -1.8454 -1.8238 -3.3824
 1489TIP3   OH225957   5.533   1.007   6.277  0.2468 -0.2408 -0.6967
 1489TIP3    H125958   5.579   0.935   6.235  0.1966 -1.3313  1.0134
 1489TIP3    H225959   5.602   1.056   6.322 -0.1312 -1.6346  1.5238
 1490TIP3   OH225960   4.980   3.988   0.195  0.2582 -0.2007  0.0359
 1490TIP3    H125961   4.983   4.082   0.215 -0.7373 -0.0532 -0.4547
 1490TIP3    H225962   5.072   3.964   0.179  0.7419  0.2838  1.8753
 1491TIP3   OH225963   4.565   1.425  13.917  0.1301 -0.1097 -0.4190
 1491TIP3    H125964   4.621   1.348  13.925 -1.0163 -0.8921  0.3391
 1491TIP3    H225965   4.625   1.500  13.924  1.1148 -0.9217 -0.0632
 1492TIP3   OH225966   4.679   1.075   0.797 -0.1131 -0.6574  0.0160
 1492TIP3    H125967   4.708   1.110   0.882 -0.8677  0.9740 -0.3675
 1492TIP3    H225968   4.621   1.142   0.762 -0.0211 -1.4306 -1.6897
 1493TIP3   OH225969   2.599   4.060  13.564  0.5056 -0.4893  0.1851
 1493TIP3    H125970   2.593   4.017  13.479 -2.3116  0.3441 -0.1422
 1493TIP3    H225971   2.550   4.142  13.553 -0.2393 -0.5106  2.6925
 1494TIP3   OH225972   3.416   5.426  14.473  0.4012 -0.1236  0.3767
 1494TIP3    H125973   3.421   5.475  14.555  1.6848 -0.6895  0.6599
 1494TIP3    H225974   3.503   5.387  14.463 -0.0422 -0.8671 -0.7589
 1495TIP3   OH225975   4.476   4.470  11.073 -0.3419  0.0424  0.3424
 1495TIP3    H125976   4.481   4.404  11.004  0.5785  0.8017 -0.3458
 1495TIP3    H225977   4.567   4.481  11.102 -0.4378  1.2081  0.2389
 1496TIP3   OH225978   6.142   2.774  13.414  0.3586 -0.1798  0.3746
 1496TIP3    H125979   6.148   2.850  13.356 -1.5946  0.3892  0.8474
 1496TIP3    H225980   6.118   2.701  13.356 -1.1527  0.2984  0.3442
 1497TIP3   OH225981   4.939   1.970   5.617  0.9265  0.1713  0.2019
 1497TIP3    H125982   4.875   2.037   5.596  1.1906  1.1300  2.1832
 1497TIP3    H225983   4.902   1.923   5.691  0.6850 -2.0380 -1.2275
 1498TIP3   OH225984   4.364   5.967  13.778 -0.1653  0.1131 -0.5599
 1498TIP3    H125985   4.406   5.968  13.693 -0.1032 -1.7718 -0.5807
 1498TIP3    H225986   4.308   6.045  13.778 -1.1222 -0.5192 -2.8006
 1499TIP3   OH225987   5.269   0.069  13.303 -0.0484  0.4245  0.2513
 1499TIP3    H125988   5.299   0.000  13.244  1.2070  0.1115  1.1929
 1499TIP3    H225989   5.344   0.128  13.311 -0.7388  1.3252  0.3077
 1500TIP3   OH225990   4.642   1.618  17.207  0.5167 -0.2900 -0.2671
 1500TIP3    H125991   4.724   1.659  17.235  0.9820 -0.0227 -1.8979
 1500TIP3    H225992   4.655   1.525  17.223  1.3324 -0.2985 -0.9089
 1501TIP3   OH225993   2.192   1.871   0.916 -0.2744  0.2851  0.6819
 1501TIP3    H125994   2.265   1.827   0.960 -0.5165  0.3782  1.1888
 1501TIP3    H225995   2.145   1.800   0.871 -0.3296  0.1088  1.0152
 1502TIP3   OH225996   2.139   2.814  16.799  0.1485 -0.2318 -0.3159
 1502TIP3    H125997   2.064   2.778  16.847  1.2409 -2.5323 -0.1984
 1502TIP3    H225998   2.100   2.852  16.721 -1.5898  2.7970  1.7914
 1503TIP3   OH225999   3.377   3.434  11.745 -0.4906  0.1613 -0.3465
 1503TIP3    H126000   3.305   3.468  11.693 -0.1369  0.0922 -0.8889
 1503TIP3    H226001   3.397   3.349  11.705 -1.9832 -1.1758  1.5529
 1504TIP3   OH226002   1.296   3.323   0.537  0.0173  0.2869  0.3732
 1504TIP3    H126003   1.317   3.230   0.541  0.8060  0.3865 -0.8653
 1504TIP3    H226004   1.301   3.353   0.627  2.6642 -0.2694  0.4748
 1505TIP3   OH226005   0.880   4.802  17.023 -0.1476  0.5640  0.0696
 1505TIP3    H126006   0.836   4.720  17.000 -0.8851  1.0002 -0.0903
 1505TIP3    H226007   0.900   4.793  17.116 -1.6510  0.8325  0.4421
 1506TIP3   OH226008   2.577   4.634   5.802 -0.1437  0.9640  0.0476
 1506TIP3    H126009   2.610   4.641   5.891  1.6527 -0.6323 -0.4259
 1506TIP3    H226010   2.507   4.568   5.808  1.3286 -0.6758  0.0115
 1507TIP3   OH226011   6.645   4.886   5.741  0.1807 -0.2128 -0.1406
 1507TIP3    H126012   6.611   4.865   5.828 -0.4008 -0.0011 -0.3131
 1507TIP3    H226013   6.691   4.970   5.753  0.5642 -0.4517  0.0717
 1508TIP3   OH226014   0.015   6.562   0.116  0.2856  0.3740 -0.1283
 1508TIP3    H126015  -0.065   6.510   0.118  0.4369  0.1486  0.7922
 1508TIP3    H226016   0.085   6.499   0.136  0.5046  0.8594  0.7009
 1509TIP3   OH226017   2.438   2.160   1.829  0.1540 -0.3596 -0.0679
 1509TIP3    H126018   2.370   2.124   1.886  0.0152  0.4419  0.2780
 1509TIP3    H226019   2.450   2.093   1.761  1.7359 -2.3119  1.9407
 1510TIP3   OH226020   3.259   5.888  14.011 -0.1635  0.0803  0.2474
 1510TIP3    H126021   3.201   5.826  13.967  0.4712 -0.6890  0.4713
 1510TIP3    H226022   3.219   5.902  14.097 -0.1056 -0.3298  0.3437
 1511TIP3   OH226023   2.839   5.272   4.128  0.5024  0.1394 -0.4514
 1511TIP3    H126024   2.876   5.184   4.131  0.5021  0.1419  2.5845
 1511TIP3    H226025   2.911   5.329   4.156  0.6497  1.2285 -2.8407
 1512TIP3   OH226026   3.759   5.904   2.861  0.0416  0.0484 -0.2601
 1512TIP3    H126027   3.801   5.986   2.890 -2.3878  1.2488  0.1444
 1512TIP3    H226028   3.778   5.899   2.768 -0.5172  1.5978 -0.4922
 1513TIP3   OH226029   0.680   2.717  10.852 -0.4082  0.7680  0.3805
 1513TIP3    H126030   0.710   2.630  10.827 -3.7430 -0.1020 -1.1534
 1513TIP3    H226031   0.690   2.770  10.773  1.2633  1.7807  1.2002
 1514TIP3   OH226032   3.624   5.816   0.085  0.0559 -0.9702 -0.2974
 1514TIP3    H126033   3.571   5.736   0.082  0.3276 -1.2191  1.0711
 1514TIP3    H226034   3.629   5.839   0.178 -1.7358  1.8360 -0.7807
 1515TIP3   OH226035   0.315   5.743  11.203  0.2681 -0.0604 -0.2075
 1515TIP3    H126036   0.385   5.683  11.177  1.2132  0.8429  0.1863
 1515TIP3    H226037   0.283   5.707  11.286  1.2583  0.2921  0.3497
 1516TIP3   OH226038   1.863   3.631   2.451  0.1748 -0.1372 -0.2910
 1516TIP3    H126039   1.903   3.663   2.370 -2.1693 -0.0878 -1.5078
 1516TIP3    H226040   1.868   3.536   2.444 -2.8038 -0.2873 -2.1380
 1517TIP3   OH226041   3.214   5.198   6.489 -0.1431 -0.0835 -0.2364
 1517TIP3    H126042   3.271   5.275   6.493 -1.2024  0.6850  0.5785
 1517TIP3    H226043   3.146   5.221   6.427  0.8428 -1.3303 -1.8610
 1518TIP3   OH226044   0.403   3.357  17.214  0.1417 -0.2771 -0.0225
 1518TIP3    H126045   0.497   3.364  17.233 -0.2647  1.9346  1.7324
 1518TIP3    H226046   0.393   3.396  17.128  1.0190 -2.4445 -1.1826
 1519TIP3   OH226047   1.106   5.292  11.519  0.4336  0.1633 -0.0886
 1519TIP3    H126048   1.108   5.321  11.428  0.9709  0.1426 -0.0835
 1519TIP3    H226049   1.065   5.365  11.567  0.5926  0.3717 -0.2706
 1520TIP3   OH226050   3.634   4.216   0.312  0.0370  0.1356  0.4076
 1520TIP3    H126051   3.650   4.137   0.363 -1.2828  0.1370  0.8590
 1520TIP3    H226052   3.635   4.287   0.376 -0.9905  0.2085  0.3634
 1521TIP3   OH226053   4.127   0.249  11.043  0.3007  0.1300 -0.4339
 1521TIP3    H126054   4.203   0.195  11.064  0.6059  0.7133 -0.0138
 1521TIP3    H226055   4.066   0.189  10.999  0.9178 -0.3855 -0.5958
 1522TIP3   OH226056   0.150   0.564  15.156 -0.4665  0.3320  0.3616
 1522TIP3    H126057   0.106   0.479  15.161  0.4428 -0.1027  1.1750
 1522TIP3    H226058   0.144   0.600  15.244 -0.5680  0.9835  0.0978
 1523TIP3   OH226059   1.472   2.031  15.414 -0.0370  0.7875  0.1405
 1523TIP3    H126060   1.541   2.079  15.369  0.5977 -0.2930 -0.0924
 1523TIP3    H226061   1.497   2.031  15.506  0.5334  0.0175 -0.0025
 1524TIP3   OH226062   5.177   5.178   2.794  0.4106 -0.0786  0.0695
 1524TIP3    H126063   5.198   5.265   2.760  4.7015 -1.6121 -1.8919
 1524TIP3    H226064   5.081   5.172   2.787  0.1835  3.3747 -2.5982
 1525TIP3   OH226065   5.666   1.412  16.157  0.0908 -0.6103 -0.0126
 1525TIP3    H126066   5.667   1.396  16.252 -1.3342 -1.7049 -0.1506
 1525TIP3    H226067   5.574   1.410  16.133  0.3658  0.7366 -1.2748
 1526TIP3   OH226068   3.784   0.936   3.033  0.1898  0.0931  0.0015
 1526TIP3    H126069   3.815   0.959   2.945 -1.5456 -0.0860 -0.6821
 1526TIP3    H226070   3.855   0.884   3.070  1.0858  0.4324 -1.1720
 1527TIP3   OH226071   4.355   0.773  12.666 -0.1546 -0.8250  0.0841
 1527TIP3    H126072   4.406   0.704  12.707 -0.8319 -1.2171  0.2766
 1527TIP3    H226073   4.277   0.781  12.720 -0.7138 -0.8414 -0.6997
 1528TIP3   OH226074   1.131   0.071  10.495 -0.4040  0.1213  0.4656
 1528TIP3    H126075   1.146   0.091  10.403  2.0437  0.5704  0.8785
 1528TIP3    H226076   1.102  -0.020  10.495 -0.9275  0.2716 -0.7733
 1529TIP3   OH226077   2.762   3.826   2.781  0.0444  0.6260  0.3297
 1529TIP3    H126078   2.816   3.748   2.765  0.7599  1.0803  0.4572
 1529TIP3    H226079   2.693   3.821   2.715  0.4198  0.1851 -0.0388
 1530TIP3   OH226080   5.861   6.558   3.338  0.4618 -0.1444 -0.3101
 1530TIP3    H126081   5.909   6.594   3.263 -0.2366 -0.0764 -0.7303
 1530TIP3    H226082   5.853   6.632   3.399 -1.4430  0.6301 -1.4038
 1531TIP3   OH226083   6.731   3.369  14.457 -0.0430  0.6674  1.0102
 1531TIP3    H126084   6.662   3.303  14.446  1.3769 -0.8248  0.5435
 1531TIP3    H226085   6.811   3.318  14.469  1.2881  2.2956 -0.3515
 1532TIP3   OH226086   5.687   1.160   4.505  0.0920 -0.5304  0.7494
 1532TIP3    H126087   5.670   1.252   4.525  2.7910  0.0949  0.5938
 1532TIP3    H226088   5.684   1.155   4.410 -1.1812 -0.8861  0.7960
 1533TIP3   OH226089   1.110   3.087   0.960 -0.1524  0.2573 -0.0519
 1533TIP3    H126090   1.121   3.051   1.048  1.5470  1.2868  0.2028
 1533TIP3    H226091   1.071   3.173   0.973 -0.3239  0.2279 -0.3509
 1534TIP3   OH226092   4.155   4.721   1.545 -0.9178 -0.0005  0.3582
 1534TIP3    H126093   4.084   4.705   1.484  0.4350 -0.6700 -1.1111
 1534TIP3    H226094   4.209   4.642   1.540  0.0413  0.5660  1.2748
 1535TIP3   OH226095   4.155   5.976  15.292  0.1857  0.2262  0.2680
 1535TIP3    H126096   4.072   5.982  15.245  0.3958 -0.8429 -0.2687
 1535TIP3    H226097   4.212   6.039  15.248 -0.3406  1.0109  0.6783
 1536TIP3   OH226098   0.303   2.680   2.837  0.4316  0.2133  0.8913
 1536TIP3    H126099   0.352   2.607   2.799  1.1166  0.7500  0.7207
 1536TIP3    H226100   0.237   2.701   2.771  1.5007  1.0234  0.0478
 1537TIP3   OH226101   4.229   5.833  15.023 -0.3639  0.2977 -0.1756
 1537TIP3    H126102   4.215   5.905  15.084 -1.1738  1.1296 -1.2890
 1537TIP3    H226103   4.259   5.875  14.942  0.3280 -0.7305 -0.4799
 1538TIP3   OH226104   5.321   6.214   2.371 -0.2920 -0.1421  0.2992
 1538TIP3    H126105   5.345   6.225   2.279 -1.4092  0.7901  0.1006
 1538TIP3    H226106   5.327   6.302   2.408 -0.6652 -0.3697  0.9190
 1539TIP3   OH226107   4.972   4.289  16.581  0.5338  0.2489  0.4220
 1539TIP3    H126108   5.020   4.210  16.555 -0.3021 -0.6099  1.4272
 1539TIP3    H226109   4.900   4.295  16.519  0.2212 -0.1474  0.7477
 1540TIP3   OH226110   2.793   6.457  13.739 -0.1785 -0.2952  0.4719
 1540TIP3    H126111   2.753   6.386  13.690 -0.6518  0.3416 -0.0795
 1540TIP3    H226112   2.869   6.484  13.687  1.3600 -1.8632  1.7811
 1541TIP3   OH226113   4.323   1.296  15.715  0.0017  0.0518 -0.0819
 1541TIP3    H126114   4.246   1.303  15.772  0.9226  2.8748  1.0149
 1541TIP3    H226115   4.367   1.216  15.744 -0.4709  0.5023  2.1068
 1542TIP3   OH226116   4.319   6.757  11.856 -0.0854 -0.5173  0.4703
 1542TIP3    H126117   4.313   6.795  11.943 -1.1897 -2.2777  1.2131
 1542TIP3    H226118   4.334   6.664  11.870 -0.0398 -0.8102 -1.2241
 1543TIP3   OH226119   5.422   2.753   4.734  0.5595 -0.3893 -0.2015
 1543TIP3    H126120   5.510   2.713   4.734  0.7566 -0.0511 -1.9271
 1543TIP3    H226121   5.431   2.830   4.677 -0.7066  0.0186  0.1228
 1544TIP3   OH226122   2.681   6.554  12.550 -0.8518  0.3148 -0.3377
 1544TIP3    H126123   2.645   6.481  12.500  1.8055 -1.1728 -0.2658
 1544TIP3    H226124   2.708   6.515  12.633  2.5555  0.7445 -1.0761
 1545TIP3   OH226125   3.724   6.540   2.205  0.2240 -0.0088 -0.1428
 1545TIP3    H126126   3.643   6.570   2.164  0.6221  0.8313 -0.3282
 1545TIP3    H226127   3.766   6.487   2.137  0.1666  0.1355 -0.2917
 1546TIP3   OH226128   6.065   4.998  11.352  0.2867  0.2301  0.2707
 1546TIP3    H126129   6.008   5.047  11.412  0.9235 -0.5969  1.5903
 1546TIP3    H226130   6.077   5.057  11.277  0.2207  1.6828  1.3560
 1547TIP3   OH226131   0.231   6.720  12.848 -0.0999 -0.5130  0.1176
 1547TIP3    H126132   0.244   6.697  12.940 -1.7393 -0.6492  0.3448
 1547TIP3    H226133   0.253   6.640  12.800 -0.8535 -0.9813  0.5312
 1548TIP3   OH226134   2.949   4.203  13.422 -0.2047 -0.5391  0.1247
 1548TIP3    H126135   2.885   4.153  13.473 -1.0608 -0.6320 -0.9778
 1548TIP3    H226136   3.034   4.177  13.458 -0.7191 -1.4474  0.7481
 1549TIP3   OH226137   2.526   2.678   3.120  0.0179  0.0753 -0.7586
 1549TIP3    H126138   2.551   2.600   3.071 -0.5769 -0.6341  0.0400
 1549TIP3    H226139   2.583   2.677   3.196 -0.7761 -0.2270 -0.1580
 1550TIP3   OH226140   1.044   1.079   4.409 -0.2217 -0.1971  0.3081
 1550TIP3    H126141   1.091   0.996   4.423 -0.0439 -0.2863 -0.7317
 1550TIP3    H226142   1.049   1.093   4.314  2.2308  2.4382  0.6836
 1551TIP3   OH226143   2.975   6.698   4.140  0.0591 -0.1620  0.0073
 1551TIP3    H126144   2.903   6.681   4.079 -0.2387 -0.1081  0.3438
 1551TIP3    H226145   3.020   6.774   4.104 -0.0910 -0.1545 -0.1652
 1552TIP3   OH226146   3.810   4.817  12.690  0.1639 -0.1229  0.5202
 1552TIP3    H126147   3.802   4.781  12.778  0.5321  1.1805  1.1204
 1552TIP3    H226148   3.873   4.889  12.699  1.0661 -0.6623 -1.0328
 1553TIP3   OH226149   0.216   6.620   4.920 -0.5630 -0.2614  0.4618
 1553TIP3    H126150   0.220   6.683   4.992  1.0498 -0.4751  0.5976
 1553TIP3    H226151   0.215   6.535   4.963 -1.2026 -0.3584  0.2541
 1554TIP3   OH226152   0.008   0.225   3.735 -0.5142  0.1147 -0.6637
 1554TIP3    H126153   0.008   0.177   3.818  0.6081  1.2294  0.0083
 1554TIP3    H226154   0.022   0.316   3.760  2.9252  0.1673 -2.2020
 1555TIP3   OH226155   3.438   0.168   0.322  0.3352 -0.3994 -0.1884
 1555TIP3    H126156   3.351   0.177   0.283 -0.5064 -1.2718  1.4085
 1555TIP3    H226157   3.480   0.099   0.271 -0.0778 -0.2904 -0.6827
 1556TIP3   OH226158   2.488   6.169  13.229 -0.3821  0.2378  0.1681
 1556TIP3    H126159   2.506   6.123  13.311  0.9721 -0.5986 -0.5778
 1556TIP3    H226160   2.574   6.200  13.199 -0.7588 -0.0639 -1.2901
 1557TIP3   OH226161   1.995   4.074  15.038  0.0717  0.4972  0.3731
 1557TIP3    H126162   1.969   3.993  14.993 -1.6731  2.1458 -1.8050
 1557TIP3    H226163   2.044   4.044  15.114  0.3695 -2.5752 -0.8844
 1558TIP3   OH226164   4.246   0.970  14.414  0.2970 -0.0762 -0.2769
 1558TIP3    H126165   4.150   0.968  14.411  0.3064  0.2149 -2.0982
 1558TIP3    H226166   4.267   0.986  14.506 -1.4090  0.1873  0.1045
 1559TIP3   OH226167   0.994   6.261  11.451  0.0891 -0.2113  0.8532
 1559TIP3    H126168   0.977   6.353  11.431  1.2993 -0.5897 -2.6174
 1559TIP3    H226169   1.080   6.263  11.493  1.6549  0.2011 -2.0440
 1560TIP3   OH226170   1.344   4.768   0.465  0.7897 -0.3363 -0.0399
 1560TIP3    H126171   1.431   4.790   0.497  0.3556  1.0258  0.2649
 1560TIP3    H226172   1.357   4.691   0.410  2.1672 -0.2051  0.0733
 1561TIP3   OH226173   5.853   4.243  14.637  0.0752 -0.9408  0.0668
 1561TIP3    H126174   5.775   4.198  14.607  0.8692 -2.4437  0.1811
 1561TIP3    H226175   5.891   4.281  14.558 -1.2423  0.6451  0.1352
 1562TIP3   OH226176   5.597   2.466   0.126 -0.1454 -0.8253 -0.6972
 1562TIP3    H126177   5.652   2.542   0.143  1.7925 -2.2593 -0.1304
 1562TIP3    H226178   5.508   2.494   0.148  0.8779  0.4322  2.3022
 1563TIP3   OH226179   2.226   0.207  14.221 -0.0864 -0.7187 -0.4539
 1563TIP3    H126180   2.288   0.170  14.159 -1.9213 -2.7773 -1.2112
 1563TIP3    H226181   2.241   0.158  14.302  0.1881 -0.2671 -0.2320
 1564TIP3   OH226182   4.496   0.166  14.870  0.3319  0.0058 -0.5946
 1564TIP3    H126183   4.568   0.229  14.863  1.3336 -1.0504 -0.0298
 1564TIP3    H226184   4.531   0.085  14.834 -0.7900 -0.3823 -0.8614
 1565TIP3   OH226185   5.445   2.065  13.745 -0.6469 -0.3106 -0.3976
 1565TIP3    H126186   5.531   2.073  13.705  0.1790 -0.7275  1.2098
 1565TIP3    H226187   5.418   2.155  13.763 -1.6371 -0.0046 -2.9784
 1566TIP3   OH226188   2.752   0.431  13.412  0.6712 -0.3353  0.2675
 1566TIP3    H126189   2.682   0.472  13.463 -0.1207 -0.4870 -0.6600
 1566TIP3    H226190   2.833   0.463  13.452  0.0884 -0.7324  1.8278
 1567TIP3   OH226191   1.984   6.096   0.760 -0.1300  0.1348  0.8425
 1567TIP3    H126192   1.965   6.175   0.809 -0.2404  0.6698 -0.0475
 1567TIP3    H226193   1.934   6.104   0.679  0.7866 -0.2734  0.2098
 1568TIP3   OH226194   3.103   4.217   2.875  0.2216  0.2069 -0.3255
 1568TIP3    H126195   3.130   4.126   2.888 -1.1126 -0.1585  0.1463
 1568TIP3    H226196   3.011   4.211   2.848 -0.1591  1.4332  0.5685
 1569TIP3   OH226197   5.191   1.145  15.192 -0.4536 -0.2675  0.0794
 1569TIP3    H126198   5.192   1.228  15.239 -2.2466 -1.4110  2.3701
 1569TIP3    H226199   5.121   1.155  15.127  0.5403  0.5877 -0.8753
 1570TIP3   OH226200   5.926   4.370   6.260  0.5467 -0.4293  0.0692
 1570TIP3    H126201   5.993   4.433   6.286 -0.0776 -0.0137  0.7290
 1570TIP3    H226202   5.894   4.401   6.175  0.6642 -0.2000  0.1095
 1571TIP3   OH226203   5.381   1.119   0.865  0.4671 -0.3264  0.0888
 1571TIP3    H126204   5.443   1.124   0.939  2.0172 -2.3751 -0.9524
 1571TIP3    H226205   5.295   1.116   0.906  1.1872  0.2101  1.7335
 1572TIP3   OH226206   1.128   4.310   1.976  0.0715  0.0619 -0.1889
 1572TIP3    H126207   1.093   4.337   2.061  0.0278  2.4711 -0.9242
 1572TIP3    H226208   1.218   4.283   1.994  0.0356  0.4678  0.6172
 1573TIP3   OH226209   5.977   1.850  16.554 -0.1781  0.0161  0.2239
 1573TIP3    H126210   5.959   1.821  16.644 -0.4761 -0.0569  0.1442
 1573TIP3    H226211   5.962   1.772  16.500 -0.0779  0.0796  0.1030
 1574TIP3   OH226212   2.741   0.399   2.262 -0.3610  0.2340 -0.7911
 1574TIP3    H126213   2.766   0.308   2.279  1.3160  0.5077 -1.5868
 1574TIP3    H226214   2.823   0.443   2.240 -0.8164  2.3963  1.4000
 1575TIP3   OH226215   1.901   1.527   2.458 -0.5889 -0.1819  0.0523
 1575TIP3    H126216   1.962   1.485   2.398 -0.5426 -0.2239  0.1287
 1575TIP3    H226217   1.816   1.523   2.412 -0.2752  1.2361 -0.7209
 1576TIP3   OH226218   5.634   1.672  10.366 -0.0600 -0.2468  0.8486
 1576TIP3    H126219   5.587   1.649  10.286 -0.1817  0.5147  0.6862
 1576TIP3    H226220   5.725   1.683  10.338 -0.1952  0.5555  0.6947
 1577TIP3   OH226221   3.611   0.584   4.571  0.0595 -0.1102 -1.1921
 1577TIP3    H126222   3.557   0.624   4.503 -1.3207  0.4669  0.1780
 1577TIP3    H226223   3.689   0.639   4.575 -1.6582  2.4791  0.4504
 1578TIP3   OH226224   3.781   1.841  15.341  0.5835  0.0927  0.4244
 1578TIP3    H126225   3.738   1.893  15.409 -1.6314 -0.2816 -0.6271
 1578TIP3    H226226   3.874   1.859  15.353  0.2567  0.3155  3.3179
 1579TIP3   OH226227   5.361   4.684  11.466 -0.7010  0.1437  0.8752
 1579TIP3    H126228   5.456   4.682  11.480 -0.4991  1.0029 -0.2599
 1579TIP3    H226229   5.332   4.596  11.492  0.3517 -0.0399  1.5236
 1580TIP3   OH226230   2.793   5.323  14.532 -0.1058 -0.1392 -0.1806
 1580TIP3    H126231   2.844   5.257  14.578 -0.5154  1.0028  2.0913
 1580TIP3    H226232   2.841   5.405  14.547 -0.1192  0.2600 -2.0855
 1581TIP3   OH226233   2.867   0.191  13.972  0.0556  0.4317  0.0905
 1581TIP3    H126234   2.894   0.111  14.016 -3.4885 -0.0406  1.6947
 1581TIP3    H226235   2.897   0.179  13.882  1.3146 -1.7956  0.7171
 1582TIP3   OH226236   1.338   2.219   3.602 -0.2729  0.2855 -0.3475
 1582TIP3    H126237   1.411   2.158   3.602  0.2129  0.8296 -1.4225
 1582TIP3    H226238   1.374   2.299   3.563 -1.7832  0.1094 -2.2291
 1583TIP3   OH226239   6.634   6.329  16.053 -1.0897 -0.2988  0.0445
 1583TIP3    H126240   6.705   6.266  16.064 -0.8387  0.1543  1.1466
 1583TIP3    H226241   6.564   6.280  16.010 -0.4202 -0.9668 -0.3045
 1584TIP3   OH226242   5.981   6.639  16.615  0.6898  0.0703  0.2424
 1584TIP3    H126243   5.983   6.590  16.697  0.2588  1.2081  0.9438
 1584TIP3    H226244   6.034   6.716  16.631 -0.3188  0.8761 -0.1564
 1585TIP3   OH226245   6.331   1.297  15.102  0.8183 -0.2807 -0.2565
 1585TIP3    H126246   6.406   1.329  15.052 -0.3391  4.3415  0.5750
 1585TIP3    H226247   6.334   1.346  15.184 -0.7415 -3.2319  1.7389
 1586TIP3   OH226248   5.221   6.329  12.645 -0.2931 -0.0907  0.4935
 1586TIP3    H126249   5.160   6.368  12.706  0.6524  0.6864  0.9693
 1586TIP3    H226250   5.281   6.278  12.699 -0.5589 -0.9113  0.0306
 1587TIP3   OH226251   5.129   0.079   0.964  0.1887 -0.6888 -0.3194
 1587TIP3    H126252   5.163   0.077   1.053  0.0490 -0.3976 -0.2583
 1587TIP3    H226253   5.168   0.156   0.925 -2.6089  1.3976  0.6637
 1588TIP3   OH226254   1.850   4.182   0.034  0.3880  0.4546  0.0018
 1588TIP3    H126255   1.906   4.228   0.096  1.0971 -0.5087  0.1015
 1588TIP3    H226256   1.897   4.100   0.015 -1.3922 -0.8008  0.7867
 1589TIP3   OH226257   3.180   3.712   4.346 -0.6359  0.1384 -0.0302
 1589TIP3    H126258   3.104   3.656   4.363 -1.2137  1.1631  0.8956
 1589TIP3    H226259   3.196   3.703   4.252 -2.1622  0.2223 -0.3139
 1590TIP3   OH226260   5.035   2.065   1.421  0.0787  0.4801  0.0941
 1590TIP3    H126261   5.041   2.102   1.333  0.8233 -0.8379 -0.4416
 1590TIP3    H226262   5.098   2.115   1.473 -0.0143  0.9509 -0.2420
 1591TIP3   OH226263   4.888   2.526   1.603  0.1528 -0.0775  0.2161
 1591TIP3    H126264   4.805   2.574   1.594 -0.0423 -0.7168 -1.9384
 1591TIP3    H226265   4.876   2.472   1.681 -1.5384 -0.2718 -0.1406
 1592TIP3   OH226266   6.741   3.624   3.722  0.4660 -0.2542 -0.4926
 1592TIP3    H126267   6.741   3.710   3.681  1.4988 -0.1906 -0.3716
 1592TIP3    H226268   6.662   3.624   3.777  1.5473  1.4026  1.1550
 1593TIP3   OH226269   4.257   0.736  13.320 -0.5723  0.1323  0.2926
 1593TIP3    H126270   4.268   0.829  13.342 -2.4188  0.4512 -0.0319
 1593TIP3    H226271   4.344   0.699  13.334 -0.1419  1.5997  1.8870
 1594TIP3   OH226272   3.251   1.363   4.869 -0.1439 -0.7973  0.8374
 1594TIP3    H126273   3.208   1.286   4.908  0.0433 -1.0293  0.5933
 1594TIP3    H226274   3.336   1.366   4.912 -0.8896  0.4653  2.3287
 1595TIP3   OH226275   1.146   3.525  11.790  0.0300 -0.0157  0.6030
 1595TIP3    H126276   1.083   3.486  11.729 -0.3157 -0.0903  1.0015
 1595TIP3    H226277   1.193   3.450  11.826  2.5877  0.1319 -1.9962
 1596TIP3   OH226278   4.501   2.710  12.317 -0.2001 -0.0952  0.3541
 1596TIP3    H126279   4.460   2.648  12.256 -0.1375 -0.8487  1.0558
 1596TIP3    H226280   4.484   2.673  12.404 -2.0653  2.0084  0.9775
 1597TIP3   OH226281   3.996   3.175   5.313 -0.2889 -0.0501 -0.1601
 1597TIP3    H126282   4.021   3.097   5.263  0.8156  0.9273 -1.1928
 1597TIP3    H226283   4.051   3.173   5.390  0.2814  0.0951 -0.5603
 1598TIP3   OH226284   1.395   4.029   1.178 -0.3455 -0.0087  0.0214
 1598TIP3    H126285   1.368   4.121   1.187 -1.4444 -0.2810 -0.3388
 1598TIP3    H226286   1.443   4.010   1.259 -0.2427  0.8358  0.1669
 1599TIP3   OH226287   0.458   3.225   2.151  0.2068  0.0036 -0.1667
 1599TIP3    H126288   0.367   3.205   2.130  0.0721 -0.6944  0.9714
 1599TIP3    H226289   0.509   3.184   2.081 -0.4148  3.0477 -2.6004
 1600TIP3   OH226290   4.708   5.722   0.936  0.6515 -0.5797 -0.5118
 1600TIP3    H126291   4.777   5.767   0.985  0.5210 -1.2358  0.2798
 1600TIP3    H226292   4.713   5.631   0.964 -0.3688 -0.6910 -0.6481
 1601TIP3   OH226293   6.596   3.575  12.172  0.3488 -0.2033 -0.6264
 1601TIP3    H126294   6.516   3.609  12.132  0.8249  1.2950 -0.3770
 1601TIP3    H226295   6.591   3.481  12.160 -1.0311 -0.0551 -1.3949
 1602TIP3   OH226296   5.556   3.843   0.652 -0.2111  0.8246 -0.0029
 1602TIP3    H126297   5.604   3.762   0.635  2.1979  1.7660  1.6913
 1602TIP3    H226298   5.472   3.814   0.689 -0.3542 -0.8739 -1.5032
 1603TIP3   OH226299   4.635   4.701  14.890  0.2963 -0.2453 -0.7236
 1603TIP3    H126300   4.665   4.788  14.920 -0.7092  0.1115 -0.7303
 1603TIP3    H226301   4.540   4.706  14.895  0.2394 -1.4798 -0.3911
 1604TIP3   OH226302   1.033   2.597   4.823  0.3752  0.1598  0.0559
 1604TIP3    H126303   0.988   2.512   4.821 -1.0828  0.8281  1.6707
 1604TIP3    H226304   1.053   2.610   4.915  0.0628  1.8179 -0.0923
 1605TIP3   OH226305   4.061   1.969   6.354  0.9351  0.2543  0.3833
 1605TIP3    H126306   4.039   1.893   6.408 -0.6832  0.3316 -0.1245
 1605TIP3    H226307   4.076   1.933   6.267 -2.8059  0.7016 -0.6151
 1606TIP3   OH226308   5.795   4.136  13.404  0.2836  0.0978 -0.7907
 1606TIP3    H126309   5.750   4.132  13.488  0.6356  0.9864 -0.5553
 1606TIP3    H226310   5.726   4.122  13.339  0.2162 -2.0348 -0.3425
 1607TIP3   OH226311   4.666   2.290   3.217  0.7103 -0.3465 -0.0323
 1607TIP3    H126312   4.694   2.347   3.288 -0.3841 -0.3269  0.3975
 1607TIP3    H226313   4.717   2.210   3.230  2.9740  0.8252 -1.2157
 1608TIP3   OH226314   3.602   6.187  10.519 -0.1566 -0.4256 -0.0871
 1608TIP3    H126315   3.537   6.249  10.552  1.5423  0.7199  1.3689
 1608TIP3    H226316   3.621   6.216  10.430  0.5551  1.1760  0.5494
 1609TIP3   OH226317   6.018   0.833   5.374 -0.0896 -0.2621  0.4134
 1609TIP3    H126318   5.941   0.816   5.319  0.7318  0.8427 -1.1557
 1609TIP3    H226319   6.092   0.806   5.320  0.6954 -0.2557  1.4634
 1610TIP3   OH226320   2.652   0.564  11.207  0.2308 -0.1822  0.1566
 1610TIP3    H126321   2.649   0.660  11.207 -0.9275 -0.1988 -0.8078
 1610TIP3    H226322   2.708   0.542  11.281 -0.0461  1.2279  0.8148
 1611TIP3   OH226323   1.136   4.907   6.244  0.3819  0.3555 -0.0767
 1611TIP3    H126324   1.067   4.945   6.190  0.5332 -2.1524 -2.2062
 1611TIP3    H226325   1.089   4.857   6.311  0.2147  1.9505  1.0767
 1612TIP3   OH226326   3.424   4.781  14.116  0.2773 -0.1822  0.7282
 1612TIP3    H126327   3.460   4.757  14.201  0.1162 -0.1359  0.8113
 1612TIP3    H226328   3.499   4.808  14.064  0.4633 -0.9010  0.6172
 1613TIP3   OH226329   3.908   3.831   5.005 -0.9093 -0.2005  0.2342
 1613TIP3    H126330   3.950   3.901   4.955 -1.7201  0.7828  0.8826
 1613TIP3    H226331   3.907   3.864   5.095 -0.5445 -1.4231  0.7141
 1614TIP3   OH226332   6.382   5.642   5.944  0.7635 -0.2386  0.2278
 1614TIP3    H126333   6.406   5.735   5.942 -1.6007  0.4491  0.7984
 1614TIP3    H226334   6.466   5.596   5.938  2.0227  1.9164  0.0909
 1615TIP3   OH226335   2.700   3.672  14.477  0.0820  0.0775 -0.3084
 1615TIP3    H126336   2.704   3.767  14.461  1.2101 -0.2891 -2.5941
 1615TIP3    H226337   2.756   3.659  14.554  0.8831  1.1487 -0.6871
 1616TIP3   OH226338   3.979   1.783  17.223 -0.7516  0.1809 -0.2269
 1616TIP3    H126339   4.062   1.831  17.213 -0.5134 -0.2509 -0.3598
 1616TIP3    H226340   3.954   1.799  17.314  0.1310 -0.6929  0.1972
 1617TIP3   OH226341   0.284   1.130  11.728  0.3479 -0.2492  0.1828
 1617TIP3    H126342   0.349   1.138  11.658  0.4901  1.0284  0.4420
 1617TIP3    H226343   0.335   1.104  11.805  0.3846 -0.3435  0.1268
 1618TIP3   OH226344   0.748   3.315  15.654 -0.0429 -0.2311 -0.7376
 1618TIP3    H126345   0.812   3.372  15.696  2.4876 -3.3203 -0.0351
 1618TIP3    H226346   0.672   3.317  15.713  0.0972  2.0581 -0.5710
 1619TIP3   OH226347   6.169   4.368   2.120  0.0465 -0.1990  0.1665
 1619TIP3    H126348   6.152   4.422   2.043 -1.7138 -1.7904 -0.6398
 1619TIP3    H226349   6.177   4.279   2.086  1.2349 -0.7038  1.6333
 1620TIP3   OH226350   0.479   2.457   6.829 -0.1413  0.3477 -0.5788
 1620TIP3    H126351   0.499   2.514   6.903  2.1224  1.3324 -1.8591
 1620TIP3    H226352   0.436   2.514   6.765 -0.2498 -0.0061 -0.8248
 1621TIP3   OH226353   0.837   6.092   0.113 -0.1967  0.3080 -0.0389
 1621TIP3    H126354   0.916   6.038   0.115 -0.4592 -0.1011 -0.5065
 1621TIP3    H226355   0.851   6.157   0.182  0.4390  0.0904  0.0459
 1622TIP3   OH226356   5.524   6.237   1.050  0.3564  0.0492 -0.7202
 1622TIP3    H126357   5.503   6.315   1.101  1.0961  0.2095 -0.6427
 1622TIP3    H226358   5.596   6.265   0.993 -2.0857  0.6294 -3.7567
 1623TIP3   OH226359   2.447   4.091  12.277  0.2039 -0.5324  0.3790
 1623TIP3    H126360   2.358   4.057  12.269 -0.4769  1.3945 -1.2331
 1623TIP3    H226361   2.486   4.075  12.191  0.9295 -0.0745  0.6163
 1624TIP3   OH226362   5.021   0.542  16.260 -0.2619 -0.0227  0.5247
 1624TIP3    H126363   5.106   0.556  16.300  0.3053 -1.9334  0.0942
 1624TIP3    H226364   4.958   0.559  16.331  0.5170  0.3625  1.1415
 1625TIP3   OH226365   3.002   6.691   0.028 -0.5395 -0.0441  0.0050
 1625TIP3    H126366   2.987   6.769   0.082 -0.1727  0.5820 -0.7837
 1625TIP3    H226367   3.013   6.620   0.091  0.1499  0.7224  0.7645
 1626TIP3   OH226368   6.205   6.105  13.068  0.3562 -0.4271  0.1000
 1626TIP3    H126369   6.278   6.147  13.023 -0.1466  0.4072  0.0511
 1626TIP3    H226370   6.181   6.032  13.010 -0.8614  1.1627 -1.4779
 1627TIP3   OH226371   5.957   2.921   3.074  0.0391 -0.0709  0.2927
 1627TIP3    H126372   5.964   2.961   2.988 -1.6211 -0.1187  0.0982
 1627TIP3    H226373   5.928   2.992   3.132 -1.5964 -0.6251  0.2120
 1628TIP3   OH226374   5.247   4.485   4.623  0.1930  0.1435  0.0942
 1628TIP3    H126375   5.339   4.508   4.609  0.2324 -0.0311  0.0621
 1628TIP3    H226376   5.220   4.538   4.698  0.3585  0.0955  0.1884
 1629TIP3   OH226377   0.526   1.221   4.063 -0.0314 -0.6592  0.2274
 1629TIP3    H126378   0.621   1.229   4.066  0.0757 -0.5806 -2.0086
 1629TIP3    H226379   0.496   1.305   4.028 -0.6540 -1.7509 -2.0028
 1630TIP3   OH226380   0.722   4.900   0.896 -0.3262  0.1422 -0.0119
 1630TIP3    H126381   0.804   4.852   0.902 -0.7204 -0.4105  1.5986
 1630TIP3    H226382   0.742   4.986   0.934 -1.0610 -0.8965  3.0436
 1631TIP3   OH226383   5.270   6.165  14.269  0.1061  0.0833  0.0738
 1631TIP3    H126384   5.310   6.252  14.261  0.8058 -0.3357 -1.2291
 1631TIP3    H226385   5.307   6.130  14.351 -0.6540  1.2231  0.9331
 1632TIP3   OH226386   5.169   1.601   2.682  0.1245  0.1039  0.3943
 1632TIP3    H126387   5.089   1.584   2.731 -0.1833  1.6957  0.5023
 1632TIP3    H226388   5.157   1.556   2.598 -0.7184  0.0298  0.5493
 1633TIP3   OH226389   4.510   1.818  17.091  0.2627  0.4198  0.5515
 1633TIP3    H126390   4.536   1.742  17.143  0.9687  0.6514  0.5577
 1633TIP3    H226391   4.552   1.804  17.006  0.2082  0.6919  0.4777
 1634TIP3   OH226392   2.799   4.116  16.436 -0.0872 -0.0043  0.0371
 1634TIP3    H126393   2.868   4.104  16.370 -1.1957 -1.8465 -0.8531
 1634TIP3    H226394   2.802   4.210  16.456  1.4262  0.2950 -1.3517
 1635TIP3   OH226395   4.772   1.631   1.304  0.1038 -0.2065 -0.2129
 1635TIP3    H126396   4.805   1.717   1.278 -0.4411  0.1173  0.1516
 1635TIP3    H226397   4.726   1.599   1.226 -0.8822  0.4388  0.0850
 1636TIP3   OH226398   0.301   2.031   0.291  0.3955  0.2796 -0.0761
 1636TIP3    H126399   0.375   2.072   0.334  1.2324 -0.0640 -1.1397
 1636TIP3    H226400   0.237   2.102   0.279  0.3487  0.4753  1.2402
 1637TIP3   OH226401   1.816   1.982  15.939 -0.2347 -0.2209  0.6550
 1637TIP3    H126402   1.863   1.991  15.855  1.8863 -1.5491  1.5991
 1637TIP3    H226403   1.814   1.887  15.954 -3.1776 -0.2143  0.7866
 1638TIP3   OH226404   4.144   1.664   1.012  0.0130 -0.5640 -1.1656
 1638TIP3    H126405   4.088   1.739   1.029 -1.8102 -1.9595 -0.6189
 1638TIP3    H226406   4.093   1.609   0.952  1.3172 -1.3358 -1.6068
 1639TIP3   OH226407   0.641   4.939  14.801 -0.3991 -0.0039 -0.1500
 1639TIP3    H126408   0.668   4.963  14.713 -1.4846  0.9669 -0.2335
 1639TIP3    H226409   0.561   4.989  14.817 -0.4351 -0.4531  1.2430
 1640TIP3   OH226410   0.662   4.297   4.930 -0.4518  0.2498 -0.2275
 1640TIP3    H126411   0.753   4.275   4.952  0.3296  0.4486 -2.8765
 1640TIP3    H226412   0.670   4.371   4.869 -2.2353 -0.8811 -1.9417
 1641TIP3   OH226413   2.240   2.370  15.136 -0.4617  0.2424 -0.2682
 1641TIP3    H126414   2.201   2.313  15.070 -1.9717 -0.0081  0.8086
 1641TIP3    H226415   2.324   2.396  15.097 -0.7561 -0.8618 -1.7551
 1642TIP3   OH226416   4.947   2.456  12.534  0.0018  0.2328  0.6248
 1642TIP3    H126417   4.851   2.458  12.532 -0.1119 -1.7374  1.7415
 1642TIP3    H226418   4.972   2.400  12.461  0.4560  2.0812 -0.7290
 1643TIP3   OH226419   3.703   3.768   4.427  0.4042 -0.1063  0.4445
 1643TIP3    H126420   3.632   3.739   4.485 -0.3560  0.3207 -0.2360
 1643TIP3    H226421   3.703   3.704   4.356 -2.7266  2.4087 -2.2277
 1644TIP3   OH226422   1.896   5.264  14.742 -0.6596 -0.1884  0.4869
 1644TIP3    H126423   1.842   5.309  14.677 -0.1540  1.4767  1.1786
 1644TIP3    H226424   1.918   5.331  14.806  1.8218 -0.9097  0.5056
 1645TIP3   OH226425   1.670   3.449  13.611  0.1523  0.6294 -0.0765
 1645TIP3    H126426   1.655   3.479  13.521 -1.0512 -0.2795 -0.2018
 1645TIP3    H226427   1.665   3.353  13.605  0.9145  0.5279  0.8221
 1646TIP3   OH226428   2.098   6.095  16.854  0.0263  0.1457 -0.0849
 1646TIP3    H126429   2.074   6.127  16.941  0.9338 -0.5415  0.4360
 1646TIP3    H226430   2.036   6.138  16.795 -0.1393  1.1924  0.8107
 1647TIP3   OH226431   0.019   3.579   2.986  0.9074  0.0264 -0.2842
 1647TIP3    H126432   0.082   3.559   3.054  1.4551 -0.8703 -1.0347
 1647TIP3    H226433  -0.051   3.627   3.031  0.5581 -1.7575  1.2041
 1648TIP3   OH226434   5.764   2.295   1.760 -0.0980 -0.2892  0.0548
 1648TIP3    H126435   5.855   2.275   1.737  0.2873  0.6644  0.6691
 1648TIP3    H226436   5.719   2.210   1.757  0.9015 -0.8399  0.1341
 1649TIP3   OH226437   5.947   1.141  11.543  1.0924 -0.6550  0.5218
 1649TIP3    H126438   5.972   1.183  11.461  1.8220 -0.5062  0.8109
 1649TIP3    H226439   5.874   1.193  11.576  0.2060 -1.2418 -0.4676
 1650TIP3   OH226440   3.552   2.710  10.879  0.2514 -0.2535  0.1185
 1650TIP3    H126441   3.527   2.634  10.932 -0.7569 -0.1203 -0.1640
 1650TIP3    H226442   3.473   2.734  10.831  0.3678  1.3698  0.6808
 1651TIP3   OH226443   2.611   6.660  13.775 -0.4372  0.5343 -0.1462
 1651TIP3    H126444   2.688   6.604  13.784 -0.7839 -0.2561 -1.7069
 1651TIP3    H226445   2.587   6.684  13.864  0.7144 -0.4481  0.4456
 1652TIP3   OH226446   3.198   1.636  16.055  0.6059 -0.1073 -0.0052
 1652TIP3    H126447   3.136   1.666  15.989  0.6872  0.3957  0.1420
 1652TIP3    H226448   3.170   1.680  16.135  0.4955 -0.7264  0.3002
 1653TIP3   OH226449   3.382   3.450   3.536  0.0661  0.0715 -0.0085
 1653TIP3    H126450   3.441   3.381   3.568 -0.5139 -0.3174  0.2347
 1653TIP3    H226451   3.311   3.452   3.600 -1.3719 -1.0533 -1.4943
 1654TIP3   OH226452   5.892   6.638  12.623 -0.4624  0.4601  0.1333
 1654TIP3    H126453   5.921   6.568  12.565  1.3198  1.2535 -0.0003
 1654TIP3    H226454   5.923   6.613  12.710  0.7001  1.3114 -0.0067
 1655TIP3   OH226455   0.313   0.347  11.504  0.0343 -0.0927  0.4343
 1655TIP3    H126456   0.316   0.254  11.483  1.7409 -0.0191  0.1332
 1655TIP3    H226457   0.239   0.381  11.454  0.2323 -1.0545 -0.5557
 1656TIP3   OH226458   1.474   5.646   4.294 -0.0544 -0.2072  0.5374
 1656TIP3    H126459   1.512   5.588   4.228  2.0686 -0.5380  1.9475
 1656TIP3    H226460   1.380   5.644   4.276  0.3442 -1.0877 -1.7933
 1657TIP3   OH226461   3.903   3.627  16.400 -0.1447 -0.1457  0.1803
 1657TIP3    H126462   3.811   3.612  16.419  0.2896 -1.5714  1.2969
 1657TIP3    H226463   3.903   3.686  16.324 -1.9586 -0.3705 -0.0197
 1658TIP3   OH226464   0.101   1.128   4.266  0.3695  0.3534 -0.5441
 1658TIP3    H126465   0.119   1.105   4.358 -1.3249  0.3074 -0.1858
 1658TIP3    H226466   0.138   1.056   4.216  2.7465  1.1506 -0.0422
 1659TIP3   OH226467   1.236   4.429   0.912 -0.0687  0.3091  0.2578
 1659TIP3    H126468   1.205   4.471   0.832  0.4341  0.7629  0.2934
 1659TIP3    H226469   1.161   4.431   0.971 -0.1348  0.8981  0.1583
 1660TIP3   OH226470   4.191   3.286   0.568 -0.2340  0.9408 -0.0087
 1660TIP3    H126471   4.116   3.291   0.508 -1.3257 -2.9030  0.7573
 1660TIP3    H226472   4.261   3.247   0.515  1.2622  4.1222 -0.5984
 1661TIP3   OH226473   1.418   4.290  10.571 -0.2745  0.6090  0.2930
 1661TIP3    H126474   1.475   4.262  10.644 -0.0163 -0.6249 -0.3571
 1661TIP3    H226475   1.450   4.240  10.496 -2.2846 -0.2035 -0.0713
 1662TIP3   OH226476   4.891   6.761   2.587 -0.1397  0.3047 -0.1540
 1662TIP3    H126477   4.842   6.769   2.505 -3.1969  0.6270  1.5557
 1662TIP3    H226478   4.911   6.851   2.613  2.6644  0.1585 -1.4267
 1663TIP3   OH226479   6.063   2.724  10.577  0.1376  0.5803 -0.1904
 1663TIP3    H126480   6.115   2.800  10.552  1.7708 -0.4835 -0.1408
 1663TIP3    H226481   6.106   2.650  10.535 -0.7336 -0.4699  0.6972
 1664TIP3   OH226482   2.182   4.199  16.736 -0.1528 -0.2715 -0.1012
 1664TIP3    H126483   2.148   4.256  16.667  2.5448  0.4183 -0.9932
 1664TIP3    H226484   2.136   4.227  16.815 -1.6930  0.4637 -1.2028
 1665TIP3   OH226485   1.598   0.243  15.685 -0.7152  0.0199  0.1279
 1665TIP3    H126486   1.563   0.318  15.637  0.1205  1.0354  1.0528
 1665TIP3    H226487   1.690   0.266  15.701  0.1397 -2.0667 -1.2810
 1666TIP3   OH226488   6.505   5.049   6.660 -0.0638 -1.0002 -0.1228
 1666TIP3    H126489   6.515   5.017   6.749  1.1439  1.3293  0.6519
 1666TIP3    H226490   6.567   4.997   6.608  0.3908 -1.2820  0.6888
 1667TIP3   OH226491   4.945   0.182   2.704 -0.0521 -0.2273  0.1277
 1667TIP3    H126492   4.958   0.242   2.630 -1.7013 -1.2121 -1.0171
 1667TIP3    H226493   4.870   0.218   2.751  0.6759  0.1108  1.0453
 1668TIP3   OH226494   4.116   3.542   5.753 -0.2533 -0.5512  1.0807
 1668TIP3    H126495   4.126   3.474   5.686  2.1164 -0.1214  0.9032
 1668TIP3    H226496   4.098   3.495   5.834  2.1750 -1.5321  1.1253
 1669TIP3   OH226497   0.700   3.343  11.878 -0.1937  0.0559 -0.2964
 1669TIP3    H126498   0.716   3.255  11.844 -2.8301 -0.9932  0.8606
 1669TIP3    H226499   0.787   3.378  11.898  0.9026 -2.9129  0.6988
 1670TIP3   OH226500   3.412   6.753  12.022  0.0281  0.0120 -0.0311
 1670TIP3    H126501   3.373   6.835  12.052  0.2527 -0.1255  0.6531
 1670TIP3    H226502   3.436   6.707  12.103 -1.7508 -1.5515 -0.3045
 1671TIP3   OH226503   2.276   5.733  12.232 -0.1104 -0.5423  0.8466
 1671TIP3    H126504   2.314   5.818  12.252 -2.4167  0.4777  1.2163
 1671TIP3    H226505   2.299   5.678  12.308  0.1865  0.1581  1.2753
 1672TIP3   OH226506   1.578   4.044  13.676 -0.5708  0.5068 -0.1043
 1672TIP3    H126507   1.651   4.106  13.675  0.3530 -0.5478  0.4318
 1672TIP3    H226508   1.551   4.039  13.584  0.1146  0.8062 -0.3306
 1673TIP3   OH226509   1.102   6.172   4.292  0.0039  0.0272  0.3632
 1673TIP3    H126510   1.181   6.121   4.274 -0.4011 -0.0480 -1.3274
 1673TIP3    H226511   1.127   6.230   4.364  1.7692  0.3834 -0.4875
 1674TIP3   OH226512   1.210   4.499   4.040 -0.2150 -0.2249 -0.2659
 1674TIP3    H126513   1.171   4.520   4.124 -2.3033  0.3299 -1.2959
 1674TIP3    H226514   1.167   4.417   4.014 -0.5074  0.2328 -1.2854
 1675TIP3   OH226515   5.242   3.633  12.887 -0.1534  0.4179  0.1381
 1675TIP3    H126516   5.256   3.638  12.982 -2.1313  3.5090  0.3957
 1675TIP3    H226517   5.303   3.697  12.851 -2.8196  3.0607 -0.0578
 1676TIP3   OH226518   6.235   1.055  13.909 -0.2161 -0.4534  0.1262
 1676TIP3    H126519   6.283   0.973  13.924  0.2832 -0.1939 -0.0496
 1676TIP3    H226520   6.302   1.123  13.909 -0.3991 -0.2356 -1.4728
 1677TIP3   OH226521   4.626   2.864  13.688 -0.7639 -0.3652  0.1560
 1677TIP3    H126522   4.638   2.936  13.626 -1.1951 -0.1827  0.2819
 1677TIP3    H226523   4.705   2.866  13.742  0.1027 -1.1523 -0.9957
 1678TIP3   OH226524   0.826   5.156   4.062 -0.1912  0.1842 -0.5162
 1678TIP3    H126525   0.817   5.061   4.069 -1.1427  0.2571 -0.5696
 1678TIP3    H226526   0.889   5.180   4.130 -2.0778 -0.1677  1.4409
 1679TIP3   OH226527   5.039   0.208  17.032  0.5761 -0.4000  0.0729
 1679TIP3    H126528   5.019   0.206  16.938 -0.8530  1.9408  0.2522
 1679TIP3    H226529   4.956   0.187  17.074  0.6856  0.5726  0.8036
 1680TIP3   OH226530   4.573   2.050   5.619  0.1785 -0.2672 -0.1561
 1680TIP3    H126531   4.544   2.026   5.707  3.6105 -0.4177  1.1115
 1680TIP3    H226532   4.569   1.969   5.568 -1.4941 -0.2561 -0.0799
 1681TIP3   OH226533   3.093   0.058  11.955 -0.1356  0.0515 -0.0268
 1681TIP3    H126534   3.166   0.072  12.014 -0.5073  0.1802  0.4060
 1681TIP3    H226535   3.016   0.050  12.012 -0.5237  0.3522 -0.4923
 1682TIP3   OH226536   6.132   3.389   5.833  0.4956 -0.1303  0.0841
 1682TIP3    H126537   6.086   3.470   5.857  0.2953 -0.1684 -0.1724
 1682TIP3    H226538   6.093   3.363   5.749  0.0862 -0.8598  0.4884
 1683TIP3   OH226539   2.102   1.637  11.466 -0.1732  0.8262  0.2722
 1683TIP3    H126540   2.010   1.662  11.464 -0.4033 -0.0493 -1.4682
 1683TIP3    H226541   2.102   1.543  11.449  0.9847  0.5555  1.5674
 1684TIP3   OH226542   3.757   4.016   3.118  0.0026 -0.4589  0.1112
 1684TIP3    H126543   3.834   4.031   3.171  1.1055 -0.8532 -1.3099
 1684TIP3    H226544   3.726   3.930   3.144 -1.4585  0.6623  2.4100
 1685TIP3   OH226545   3.158   4.282  13.770 -0.0290  0.1796 -0.4232
 1685TIP3    H126546   3.170   4.332  13.850 -2.1875  0.6825 -0.3432
 1685TIP3    H226547   3.188   4.340  13.700 -0.8885  0.9388 -0.1836
 1686TIP3   OH226548   1.058   3.060  11.272 -0.1347 -0.6393  0.0429
 1686TIP3    H126549   1.014   3.102  11.198 -1.5535  1.0876  1.7484
 1686TIP3    H226550   0.987   3.019  11.322  0.7774 -1.6367  0.5549
 1687TIP3   OH226551   3.719   2.694  15.173 -0.2624 -0.1062  0.7700
 1687TIP3    H126552   3.778   2.708  15.246  1.8051  1.9407 -1.1079
 1687TIP3    H226553   3.635   2.730  15.202  0.0956 -0.6837  2.6034
 1688TIP3   OH226554   5.321   5.370  12.554  0.2574  0.0864 -0.6387
 1688TIP3    H126555   5.330   5.275  12.555 -0.6384 -0.0458 -1.8607
 1688TIP3    H226556   5.337   5.394  12.462 -0.0922  1.0440 -0.4629
 1689TIP3   OH226557   1.512   6.786   4.173 -0.1065  0.4399 -0.1064
 1689TIP3    H126558   1.456   6.713   4.198  0.5324 -0.5802 -1.5165
 1689TIP3    H226559   1.596   6.745   4.149  0.4876  1.6976 -0.2705
 1690TIP3   OH226560   6.705   0.876   6.297  0.0418  0.1592 -0.0837
 1690TIP3    H126561   6.735   0.966   6.291  1.2823 -0.1645  0.7416
 1690TIP3    H226562   6.743   0.844   6.379 -1.2061 -0.8169  0.1492
 1691TIP3   OH226563   2.542   6.722   4.731  0.1555 -0.1641 -0.1683
 1691TIP3    H126564   2.532   6.701   4.824  1.8156 -0.0721  0.0515
 1691TIP3    H226565   2.630   6.757   4.723 -0.5133  1.3520 -1.5190
 1692TIP3   OH226566   5.888   1.273  13.684  0.7020  0.3179  0.3063
 1692TIP3    H126567   5.924   1.202  13.738  1.3274 -0.6157 -1.2752
 1692TIP3    H226568   5.848   1.333  13.747 -1.1748 -2.1382  1.6476
 1693TIP3   OH226569   4.592   3.895  11.865 -0.0339 -0.7154 -0.1059
 1693TIP3    H126570   4.612   3.985  11.840 -0.4148  0.1821  2.5894
 1693TIP3    H226571   4.653   3.842  11.814  3.4573  1.3399  1.5965
 1694TIP3   OH226572   5.479   1.092  15.688  0.8957 -0.1948 -0.1492
 1694TIP3    H126573   5.505   1.001  15.697 -0.6072 -0.7118 -0.7324
 1694TIP3    H226574   5.458   1.102  15.595 -0.8421  0.1882  0.2546
 1695TIP3   OH226575   0.610   5.434  14.973 -0.1563  0.4150 -0.2030
 1695TIP3    H126576   0.583   5.477  14.892  0.9091  1.5774  0.0260
 1695TIP3    H226577   0.683   5.378  14.948  0.8101  1.5119  0.0887
 1696TIP3   OH226578   4.272   2.697  16.115 -0.1447  0.2366 -0.1987
 1696TIP3    H126579   4.208   2.759  16.151 -0.9168 -1.5344  1.6665
 1696TIP3    H226580   4.223   2.648  16.050 -0.0916  0.2763 -0.2681
 1697TIP3   OH226581   5.485   3.221  12.525  0.2180 -0.2167  0.1064
 1697TIP3    H126582   5.570   3.257  12.500  0.1532 -0.0394  0.1410
 1697TIP3    H226583   5.422   3.275  12.479  0.1304 -0.5191 -0.1383
 1698TIP3   OH226584   5.751   4.691  13.367 -0.5618  0.3853 -0.4801
 1698TIP3    H126585   5.827   4.669  13.421  0.6991  2.1048 -1.4676
 1698TIP3    H226586   5.714   4.606  13.342 -0.2475 -0.4691  1.7140
 1699TIP3   OH226587   5.315   0.699   3.140  0.1006 -0.1316 -0.2906
 1699TIP3    H126588   5.256   0.654   3.201  1.0478 -1.7529 -0.4891
 1699TIP3    H226589   5.391   0.641   3.135 -0.7712 -1.2311 -4.6549
 1700TIP3   OH226590   5.779   5.220   6.405 -0.3263  0.0795  0.2378
 1700TIP3    H126591   5.818   5.297   6.364  1.0034  0.2281  1.6764
 1700TIP3    H226592   5.702   5.200   6.351  0.4211  1.2008 -1.3307
 1701TIP3   OH226593   5.639   1.154   2.110 -0.5824 -0.3437  0.2898
 1701TIP3    H126594   5.649   1.173   2.016  0.5533  1.8807  0.7865
 1701TIP3    H226595   5.564   1.095   2.115  0.3000 -1.8579 -2.1409
 1702TIP3   OH226596   5.941   4.078   0.319 -0.1046  0.0279 -0.3825
 1702TIP3    H126597   6.034   4.068   0.300 -0.4611  0.1128 -2.3850
 1702TIP3    H226598   5.938   4.131   0.399  1.5598  0.0830 -0.3312
 1703TIP3   OH226599   6.126   4.896  13.945 -0.3845 -0.6367  0.3457
 1703TIP3    H126600   6.039   4.883  13.983 -0.3596  0.7644  0.9536
 1703TIP3    H226601   6.146   4.988  13.962  1.7822 -1.2376  1.4431
 1704TIP3   OH226602   4.138   0.247   4.985  0.8822 -0.0413 -0.0805
 1704TIP3    H126603   4.169   0.237   5.076  2.6851 -0.8900 -0.7442
 1704TIP3    H226604   4.043   0.260   4.994  1.0907  0.4758  1.9553
 1705TIP3   OH226605   3.402   6.138  13.937  0.0229 -0.5576 -0.2437
 1705TIP3    H126606   3.382   6.045  13.947  0.3900 -0.5786  0.3199
 1705TIP3    H226607   3.484   6.140  13.888 -0.3933 -0.5067 -0.9580
 1706TIP3   OH226608   4.215   6.431   5.012  0.3564  0.3036  0.0496
 1706TIP3    H126609   4.262   6.349   5.027  0.0731  0.4006  1.6951
 1706TIP3    H226610   4.284   6.494   4.990  0.7144 -0.0983  0.0060
 1707TIP3   OH226611   3.236   0.760  16.522 -0.8658 -0.0375  0.3020
 1707TIP3    H126612   3.258   0.703  16.595  1.1225 -2.1122 -1.7430
 1707TIP3    H226613   3.206   0.700  16.453 -0.6545  1.5883 -1.2876
 1708TIP3   OH226614   5.346   0.401   2.300 -0.5163  0.0094 -0.1043
 1708TIP3    H126615   5.425   0.347   2.291 -1.4041 -1.2771 -0.4598
 1708TIP3    H226616   5.334   0.439   2.213 -1.1493 -1.0629 -0.5058
 1709TIP3   OH226617   5.357   6.395   4.192 -0.0068 -0.7737 -0.1071
 1709TIP3    H126618   5.423   6.418   4.259  0.1620 -1.0713 -0.1714
 1709TIP3    H226619   5.409   6.365   4.118 -0.0239  2.0823 -1.4164
 1710TIP3   OH226620   5.938   5.221  14.050 -0.3721 -0.1049 -0.3456
 1710TIP3    H126621   6.004   5.177  13.996 -0.5891 -0.3783 -0.3930
 1710TIP3    H226622   5.975   5.306  14.069  1.4461 -1.3851  2.3553
 1711TIP3   OH226623   0.368   0.730  13.258 -0.1985 -0.0946  0.0368
 1711TIP3    H126624   0.451   0.776  13.270 -0.6484  0.5028  0.9070
 1711TIP3    H226625   0.381   0.679  13.178  0.5946  0.9151 -0.5060
 1712TIP3   OH226626   1.972   0.826   1.647  0.2107 -0.1712  0.0538
 1712TIP3    H126627   1.928   0.902   1.610 -0.9793  0.5530  2.6950
 1712TIP3    H226628   1.953   0.755   1.585 -1.0518  1.0659 -1.0538
 1713TIP3   OH226629   0.101   2.931  16.347  0.7983  0.1677 -0.1354
 1713TIP3    H126630   0.164   2.987  16.392  0.3456  0.4061  0.2061
 1713TIP3    H226631   0.019   2.943  16.395  0.3860  0.1895 -0.8349
 1714TIP3   OH226632   6.720   6.396  14.376 -0.2229  0.2807  0.2715
 1714TIP3    H126633   6.695   6.473  14.326 -1.5693 -1.5098 -1.9409
 1714TIP3    H226634   6.644   6.338  14.373  1.7271 -2.4353 -0.7954
 1715TIP3   OH226635   2.031   6.668  14.900  0.1519  0.1410  0.2148
 1715TIP3    H126636   2.052   6.702  14.986  1.6642  1.1560 -0.5113
 1715TIP3    H226637   1.992   6.742  14.853 -1.9763 -0.7663  0.4097
 1716TIP3   OH226638   6.398   3.831   1.712  0.4558 -0.7894 -0.5535
 1716TIP3    H126639   6.357   3.906   1.668  0.6172  0.3976  1.1988
 1716TIP3    H226640   6.379   3.757   1.656 -0.0966  0.4934 -2.1496
 1717TIP3   OH226641   0.796   3.808  15.588  0.4282  0.1081 -0.0319
 1717TIP3    H126642   0.830   3.889  15.624  2.1142 -0.4839 -0.2103
 1717TIP3    H226643   0.851   3.790  15.512  0.2836 -1.3406  0.1722
 1718TIP3   OH226644   0.669   0.702  10.608  0.2844 -0.0839 -0.1032
 1718TIP3    H126645   0.689   0.626  10.663  1.7867  2.1183  2.6301
 1718TIP3    H226646   0.581   0.686  10.575  0.8965 -3.4063 -0.4568
 1719TIP3   OH226647   0.956   3.321  13.649  0.4498  0.8140 -0.2700
 1719TIP3    H126648   0.924   3.312  13.739  2.5223  3.1115  0.8194
 1719TIP3    H226649   1.026   3.256  13.642 -0.7829 -0.5013 -0.8394
 1720TIP3   OH226650   0.829   1.423   1.410 -0.7256  0.0945  0.2025
 1720TIP3    H126651   0.862   1.512   1.396  0.5053 -0.4909 -0.8149
 1720TIP3    H226652   0.852   1.403   1.501 -1.1180  0.8410  0.4772
 1721TIP3   OH226653   5.245   2.094  12.855  0.1642  0.8746  0.8834
 1721TIP3    H126654   5.170   2.037  12.842  0.9354 -0.0613  0.3466
 1721TIP3    H226655   5.208   2.180  12.874 -1.0820  0.8485 -1.1261
 1722TIP3   OH226656   3.104   3.711  15.242  0.2286 -0.3619 -0.4529
 1722TIP3    H126657   3.143   3.662  15.313 -0.3248 -1.7779 -1.0972
 1722TIP3    H226658   3.026   3.752  15.281  1.4895  1.3102  0.4644
 1723TIP3   OH226659   4.855   3.418   2.443 -0.3186  0.8515  0.0841
 1723TIP3    H126660   4.874   3.482   2.375 -0.4289  0.6325 -0.1560
 1723TIP3    H226661   4.936   3.412   2.494 -0.4149  1.4112  0.3029
 1724TIP3   OH226662   1.084   2.290   1.846  0.3876 -0.8467 -0.4234
 1724TIP3    H126663   1.086   2.385   1.843  0.4140 -0.8531 -0.6087
 1724TIP3    H226664   1.107   2.262   1.758  3.5335 -1.0613  0.3657
 1725TIP3   OH226665   3.426   6.133   1.741 -0.6749  0.1174 -0.4281
 1725TIP3    H126666   3.437   6.061   1.803  0.8057  1.4929  1.0234
 1725TIP3    H226667   3.332   6.143   1.731 -0.9482 -0.5784  1.1317
 1726TIP3   OH226668   5.727   4.583   0.489  0.4715 -0.5354  0.0658
 1726TIP3    H126669   5.677   4.590   0.408  0.2142  1.5073  0.3479
 1726TIP3    H226670   5.781   4.504   0.477  0.2105 -0.4632 -1.9393
 1727TIP3   OH226671   3.194   4.916  11.284  0.2140 -0.1415 -0.0338
 1727TIP3    H126672   3.154   4.843  11.330 -0.1089 -1.5409 -2.4014
 1727TIP3    H226673   3.125   4.982  11.278 -0.6987 -1.1345 -1.0199
 1728TIP3   OH226674   0.115   1.059  13.055  0.1448  0.1335  0.0777
 1728TIP3    H126675   0.135   0.979  13.104  1.3671  0.2375 -0.2263
 1728TIP3    H226676   0.019   1.064  13.055 -0.1013 -2.5120 -1.7572
 1729TIP3   OH226677   3.543   1.189   1.873  0.4293 -0.5175  0.1792
 1729TIP3    H126678   3.624   1.148   1.843  0.6552  1.4110 -2.1643
 1729TIP3    H226679   3.572   1.254   1.938  0.5419 -1.0165  0.6357
 1730TIP3   OH226680   1.515   5.900   1.277 -0.1640 -0.9538  0.5882
 1730TIP3    H126681   1.607   5.892   1.300  0.2771  0.6755 -0.4639
 1730TIP3    H226682   1.486   5.981   1.319 -0.6709 -0.6188 -0.3696
 1731TIP3   OH226683   6.069   0.951   0.273 -0.1493  0.5409  0.1715
 1731TIP3    H126684   6.018   0.888   0.222  2.1848 -0.4211 -1.0925
 1731TIP3    H226685   6.086   0.907   0.356  2.0876 -0.9406 -0.9654
 1732TIP3   OH226686   4.920   4.912   0.625  1.1785 -0.5884 -0.2499
 1732TIP3    H126687   4.944   4.943   0.537  0.9741  0.5642  0.0882
 1732TIP3    H226688   4.877   4.987   0.666  0.2147 -1.4843  0.4292
 1733TIP3   OH226689   6.080   0.418   2.880  0.1013  0.2377  0.1325
 1733TIP3    H126690   6.026   0.339   2.880 -1.8899  1.4787  1.8210
 1733TIP3    H226691   6.138   0.408   2.955 -1.6107  1.1698  1.6887
 1734TIP3   OH226692   0.713   0.074  15.038 -0.5769  0.2930  0.2226
 1734TIP3    H126693   0.721  -0.020  15.021 -0.6361  0.5035 -1.0814
 1734TIP3    H226694   0.776   0.091  15.108 -0.5748 -0.7164  0.4842
 1735TIP3   OH226695   6.532   3.951  13.153 -0.0013  0.3582 -0.0240
 1735TIP3    H126696   6.465   3.926  13.217  1.1974 -2.6342  0.2158
 1735TIP3    H226697   6.612   3.907  13.184  1.1350  0.6154 -2.4098
 1736TIP3   OH226698   1.031   1.095   3.889  0.6012  0.0363  0.3418
 1736TIP3    H126699   0.950   1.062   3.928  0.5241 -0.0944  0.0716
 1736TIP3    H226700   1.011   1.105   3.796  0.7456  0.4700  0.3525
 1737TIP3   OH226701   5.129   3.049   4.005 -0.5057 -0.0229  0.0963
 1737TIP3    H126702   5.182   3.099   3.943  0.2236  0.4424  1.0613
 1737TIP3    H226703   5.051   3.102   4.019 -1.0015 -0.4566 -0.9245
 1738TIP3   OH226704   4.895   3.296  14.078 -0.1196 -0.4897  0.6569
 1738TIP3    H126705   4.867   3.375  14.124 -2.5658 -0.0529 -1.4035
 1738TIP3    H226706   4.891   3.227  14.145 -2.2450  0.3561  1.5041
 1739TIP3   OH226707   0.957   2.761  12.228 -0.5467 -0.1994  0.1411
 1739TIP3    H126708   0.984   2.805  12.148  0.6804 -0.0627  0.6073
 1739TIP3    H226709   0.863   2.777  12.234 -0.6384 -0.1030 -1.1918
 1740TIP3   OH226710   0.340   2.684   2.266  0.2967 -0.7088  0.1113
 1740TIP3    H126711   0.330   2.695   2.171 -0.8689 -0.3186  0.2634
 1740TIP3    H226712   0.433   2.668   2.279  0.9089  1.7195 -0.8583
 1741TIP3   OH226713   1.151   6.535   1.858 -0.0174  0.4068 -0.1781
 1741TIP3    H126714   1.188   6.535   1.947  0.6676 -1.9635 -0.3842
 1741TIP3    H226715   1.072   6.481   1.866  0.1903 -0.0371 -1.0402
 1742TIP3   OH226716   4.925   2.170  16.056  0.0914  0.5632 -0.4731
 1742TIP3    H126717   4.883   2.205  15.977  0.0127 -0.4922 -0.9067
 1742TIP3    H226718   5.018   2.168  16.035  0.1104  0.6393 -0.3969
 1743TIP3   OH226719   5.977   2.404  12.191  0.5065  0.2289  0.2435
 1743TIP3    H126720   5.895   2.396  12.142  0.6476  0.7310 -0.0791
 1743TIP3    H226721   6.014   2.315  12.189  0.6240  0.2850 -0.7792
 1744TIP3   OH226722   5.261   1.995  11.924 -0.1593  0.2524  0.5845
 1744TIP3    H126723   5.252   1.971  12.016 -0.3287 -0.5922  0.3523
 1744TIP3    H226724   5.352   1.975  11.903 -0.0508  0.6855  0.6311
 1745TIP3   OH226725   1.747   6.364   6.062 -0.1629 -0.3948 -0.4733
 1745TIP3    H126726   1.760   6.449   6.021  2.1890 -0.2797  0.4025
 1745TIP3    H226727   1.713   6.383   6.149  0.0546 -0.3764 -0.3932
 1746TIP3   OH226728   3.068   0.454   5.404  0.3167 -0.1966 -0.4744
 1746TIP3    H126729   3.137   0.407   5.357  0.7762  0.3086 -0.3250
 1746TIP3    H226730   3.096   0.453   5.495  0.3126  0.3154 -0.4612
 1747TIP3   OH226731   5.969   0.120  12.215  0.5772 -0.4121 -0.1383
 1747TIP3    H126732   6.015   0.163  12.287 -0.4731 -0.9295  0.8794
 1747TIP3    H226733   5.877   0.121  12.242  0.2437 -1.1554 -1.1990
 1748TIP3   OH226734   4.034   4.451   5.725  0.0842  0.4462  0.3249
 1748TIP3    H126735   4.005   4.361   5.712  0.5406  0.3487 -0.0602
 1748TIP3    H226736   4.077   4.451   5.810  2.2359 -0.2837 -0.6861
 1749TIP3   OH226737   0.121   6.348  16.617 -0.2091  0.2261 -0.1124
 1749TIP3    H126738   0.151   6.296  16.691  1.2665  0.1586 -0.7381
 1749TIP3    H226739   0.185   6.419  16.609 -1.6271  1.6092  0.1046
 1750TIP3   OH226740   2.395   1.989   4.062 -0.0387  0.3120  0.6254
 1750TIP3    H126741   2.465   1.939   4.104 -1.0044 -0.9852  0.7726
 1750TIP3    H226742   2.406   1.972   3.969 -0.4903 -0.3724  0.6898
 1751TIP3   OH226743   3.016   1.824   0.279 -0.0716  0.3891 -0.2936
 1751TIP3    H126744   3.001   1.869   0.196  0.3191 -0.0896 -0.6378
 1751TIP3    H226745   3.065   1.886   0.332  0.7864  0.2566 -0.8983
 1752TIP3   OH226746   6.778   4.573  14.166 -0.4736  0.2119 -0.3386
 1752TIP3    H126747   6.796   4.496  14.112  0.9112  0.2003  0.0959
 1752TIP3    H226748   6.842   4.638  14.136 -1.8312  1.3293 -0.9210
 1753TIP3   OH226749   0.433   2.607   4.966 -0.4366  0.3045 -0.7028
 1753TIP3    H126750   0.387   2.611   4.882 -1.6974 -1.2546 -0.1489
 1753TIP3    H226751   0.523   2.633   4.945 -0.8124  0.3506 -2.4495
 1754TIP3   OH226752   3.042   0.654  13.383  0.3803 -0.4692 -0.5118
 1754TIP3    H126753   3.065   0.683  13.471  2.2787 -1.3267 -0.6669
 1754TIP3    H226754   2.978   0.718  13.352  0.0180  0.0982  1.3061
 1755TIP3   OH226755   2.606   3.787   4.737  0.3613 -0.0292  0.3341
 1755TIP3    H126756   2.672   3.717   4.730  0.9857  0.5125  0.6865
 1755TIP3    H226757   2.524   3.744   4.714  0.8774 -0.6481 -0.4321
 1756TIP3   OH226758   3.934   5.965  12.899  0.0840  0.3001 -0.4534
 1756TIP3    H126759   3.915   6.032  12.964  0.2543 -0.1375  0.0592
 1756TIP3    H226760   3.939   6.012  12.816 -0.7319  0.7817 -0.2416
 1757TIP3   OH226761   2.590   6.120   4.576 -0.2031  0.4485 -0.5066
 1757TIP3    H126762   2.556   6.097   4.662 -2.5400 -2.0965 -1.9407
 1757TIP3    H226763   2.517   6.164   4.532  0.8364  1.4123 -1.3465
 1758TIP3   OH226764   5.514   1.330   2.267  0.0177  0.2511 -0.3054
 1758TIP3    H126765   5.566   1.258   2.231  0.3710  0.2771  0.1437
 1758TIP3    H226766   5.541   1.335   2.359 -0.3136  0.6841 -0.2306
 1759TIP3   OH226767   0.406   0.520  13.967 -0.4687 -0.2491 -0.1606
 1759TIP3    H126768   0.379   0.433  13.936  0.9488 -0.5641 -0.5866
 1759TIP3    H226769   0.458   0.556  13.895 -0.8267  0.8615  0.1111
 1760TIP3   OH226770   4.171   3.532  16.133  0.3497  0.5050 -0.0797
 1760TIP3    H126771   4.082   3.495  16.129  1.7145 -3.2036 -0.1613
 1760TIP3    H226772   4.215   3.496  16.056  1.5795  3.6777 -1.0321
 1761TIP3   OH226773   0.928   1.534   2.051  0.3304 -0.3444 -0.0517
 1761TIP3    H126774   0.863   1.536   2.120  0.3442 -0.8222 -0.0209
 1761TIP3    H226775   0.918   1.448   2.010  1.3752 -0.6938  0.3775
 1762TIP3   OH226776   6.366   3.305   5.112 -0.0199  0.2824 -0.0642
 1762TIP3    H126777   6.386   3.254   5.191  1.6655  1.1620  0.1238
 1762TIP3    H226778   6.271   3.298   5.103  0.1189 -3.1873 -0.2728
 1763TIP3   OH226779   3.217   2.612  11.861 -0.1439  0.3435 -0.0844
 1763TIP3    H126780   3.127   2.589  11.884 -0.7455  2.8904  0.4724
 1763TIP3    H226781   3.271   2.554  11.914 -1.3755 -2.0721 -1.3284
 1764TIP3   OH226782   5.018   2.270  16.292 -0.2000  0.0246  0.6678
 1764TIP3    H126783   4.951   2.333  16.317 -0.4740  0.8148 -1.8075
 1764TIP3    H226784   4.977   2.215  16.226  0.9358 -0.9005  0.6929
 1765TIP3   OH226785   0.426   5.128  17.092  0.0303 -0.3855  0.0366
 1765TIP3    H126786   0.419   5.155  17.183  0.2132 -0.1126 -0.0271
 1765TIP3    H226787   0.382   5.198  17.043  0.6535 -0.1118 -0.1431
 1766TIP3   OH226788   4.219   0.395   2.999  0.2418 -0.2801 -0.2190
 1766TIP3    H126789   4.256   0.480   2.974  1.3370 -0.4853  0.6092
 1766TIP3    H226790   4.150   0.379   2.935  1.4147  0.2546 -1.6784
 1767TIP3   OH226791   0.114   4.175  13.381  0.1386  0.9861  0.3060
 1767TIP3    H126792   0.096   4.095  13.431  3.3165 -0.5512 -0.7377
 1767TIP3    H226793   0.088   4.246  13.440  1.8613 -0.7410  3.4145
 1768TIP3   OH226794   1.913   1.082   1.154 -0.3497  0.7058 -0.1012
 1768TIP3    H126795   1.959   1.002   1.128  0.7715  1.0853  0.6461
 1768TIP3    H226796   1.842   1.051   1.211  0.5731  0.2914  0.8367
 1769TIP3   OH226797   6.196   4.643  16.751 -0.1018 -0.2861 -0.2007
 1769TIP3    H126798   6.146   4.667  16.829 -1.1540 -2.9052  0.0397
 1769TIP3    H226799   6.281   4.686  16.763 -0.4233 -0.1532  2.1220
 1770TIP3   OH226800   2.967   0.398  11.959  0.0418 -0.4930 -0.3747
 1770TIP3    H126801   3.019   0.412  12.038  1.3299 -0.9336 -1.1139
 1770TIP3    H226802   2.935   0.308  11.966  2.2975 -1.4641 -1.4980
 1771TIP3   OH226803   4.604   4.988  14.173  0.8187  0.3131  0.0909
 1771TIP3    H126804   4.546   4.979  14.249  1.3841 -0.4143  0.4578
 1771TIP3    H226805   4.692   4.975  14.209  1.0720 -0.2929 -0.7252
 1772TIP3   OH226806   0.656   6.749   5.017  0.0797  0.2962  0.0724
 1772TIP3    H126807   0.629   6.840   5.002  0.7678  0.5107  0.0861
 1772TIP3    H226808   0.634   6.733   5.109 -3.3391 -0.7404 -0.7715
 1773TIP3   OH226809   0.760   6.619  16.859 -0.0652 -0.6480  0.0308
 1773TIP3    H126810   0.855   6.607  16.869 -0.3014 -2.0896  0.8853
 1773TIP3    H226811   0.748   6.713  16.855  1.4111 -0.4367 -0.0422
 1774TIP3   OH226812   1.683   5.744  12.661  0.1512  0.2950 -0.3785
 1774TIP3    H126813   1.667   5.737  12.567 -0.3417 -1.1343 -0.2120
 1774TIP3    H226814   1.735   5.824  12.670 -0.9154  1.1953 -1.7046
 1775TIP3   OH226815   3.584   4.080   2.287  0.1486  0.2016 -0.2995
 1775TIP3    H126816   3.599   4.022   2.361 -2.7287  0.9204  0.9645
 1775TIP3    H226817   3.520   4.035   2.232 -0.1032  1.0280 -0.7070
 1776TIP3   OH226818   6.548   2.517   4.970  0.7934 -0.0795  0.5437
 1776TIP3    H126819   6.561   2.443   4.911  0.1656  0.2840 -0.0649
 1776TIP3    H226820   6.458   2.545   4.954  0.8695  0.5101  1.1138
 1777TIP3   OH226821   0.759   6.771  15.918  0.1835 -0.1591  0.7207
 1777TIP3    H126822   0.705   6.744  15.992 -0.1080 -0.5216  0.3832
 1777TIP3    H226823   0.715   6.848  15.882  0.7141  0.4516  1.3502
 1778TIP3   OH226824   2.174   2.645  12.257  0.4901 -0.5872 -0.3709
 1778TIP3    H126825   2.265   2.634  12.229  0.4466  0.0998 -0.7863
 1778TIP3    H226826   2.127   2.670  12.178 -0.2105 -1.6445 -0.3111
 1779TIP3   OH226827   4.011   5.148   2.981  0.0648 -0.2408  0.4792
 1779TIP3    H126828   4.056   5.230   2.963  1.2790 -1.1546 -0.9691
 1779TIP3    H226829   3.919   5.165   2.962  0.5363  0.3607 -1.4685
 1780TIP3   OH226830   4.580   3.051   2.611 -0.2225 -0.3505 -0.4762
 1780TIP3    H126831   4.514   3.118   2.594 -0.3227 -1.2598 -4.8731
 1780TIP3    H226832   4.530   2.972   2.628 -0.1470 -0.1871  0.5743
 1781TIP3   OH226833   5.340   0.346  15.389  0.1988 -0.0223  0.1190
 1781TIP3    H126834   5.276   0.413  15.364  0.1593 -0.1848 -0.2157
 1781TIP3    H226835   5.401   0.393  15.447 -0.5064  0.0083  0.8608
 1782TIP3   OH226836   0.896   2.646  14.658 -0.5436 -0.5558 -0.1358
 1782TIP3    H126837   0.947   2.692  14.592 -0.8125 -0.3582 -0.2084
 1782TIP3    H226838   0.836   2.591  14.608 -0.0546 -1.1787 -0.0469
 1783TIP3   OH226839   1.115   3.536  13.249  0.1791  0.1963  0.0245
 1783TIP3    H126840   1.206   3.518  13.276 -0.0981  1.4127  1.9777
 1783TIP3    H226841   1.109   3.631  13.248 -1.5134  0.1663  1.6783
 1784TIP3   OH226842   0.414   2.935   3.957  0.4740  0.6234 -0.7388
 1784TIP3    H126843   0.344   2.955   3.894  0.2731  1.3894 -0.2885
 1784TIP3    H226844   0.452   3.021   3.978  0.7702  0.3393 -0.0861
 1785TIP3   OH226845   4.449   1.078  12.730  0.6445 -0.4172  0.0647
 1785TIP3    H126846   4.482   1.000  12.685  0.7506  0.0518 -0.6745
 1785TIP3    H226847   4.356   1.060  12.743  0.3751 -0.0969 -1.3276
 1786TIP3   OH226848   0.007   2.668  11.793 -0.0652  0.0823 -0.2437
 1786TIP3    H126849   0.079   2.677  11.730 -1.0151 -0.1455 -1.4013
 1786TIP3    H226850   0.015   2.578  11.825 -0.3780 -0.2459 -1.0680
 1787TIP3   OH226851   2.826   4.118   2.805  0.5583  0.7805  0.1125
 1787TIP3    H126852   2.790   4.029   2.810  1.7403  0.3053  0.4624
 1787TIP3    H226853   2.807   4.146   2.715 -1.5805  0.9733  0.5622
 1788TIP3   OH226854   6.736   1.471   4.302 -0.4364 -0.4265 -0.1634
 1788TIP3    H126855   6.816   1.499   4.346  0.0929  0.1604 -1.4565
 1788TIP3    H226856   6.752   1.379   4.279 -0.9138 -0.8956  1.2447
 1789TIP3   OH226857   3.194   0.133  14.191  0.4851  0.1554 -0.1102
 1789TIP3    H126858   3.224   0.049  14.226  2.7913 -0.1322 -2.4729
 1789TIP3    H226859   3.126   0.161  14.252 -2.2002 -4.5036 -0.4935
 1790TIP3   OH226860   4.853   6.079  14.324  0.5523 -0.0936  0.1140
 1790TIP3    H126861   4.895   6.002  14.284 -1.1197 -0.8595 -0.2643
 1790TIP3    H226862   4.805   6.120  14.252 -0.1222  0.2039  0.7248
 1791TIP3   OH226863   3.429   0.574   6.202 -0.4551  0.6039 -0.2091
 1791TIP3    H126864   3.407   0.612   6.287 -1.3011  0.8478 -0.5263
 1791TIP3    H226865   3.369   0.501   6.192 -1.4061  1.4994 -1.2553
 1792TIP3   OH226866   3.485   4.011   0.015 -0.1696  0.2488  0.7677
 1792TIP3    H126867   3.408   3.954   0.017 -0.2518  0.3694  1.0879
 1792TIP3    H226868   3.531   3.993   0.098  0.6732 -0.5448  0.1550
 1793TIP3   OH226869   5.219   3.695  15.396 -0.8949 -0.2434  0.4148
 1793TIP3    H126870   5.285   3.727  15.458  0.5338  0.0845 -1.2112
 1793TIP3    H226871   5.258   3.616  15.359 -2.8155 -1.9133  1.7024
 1794TIP3   OH226872   6.553   2.144   1.947 -0.2705 -0.5999 -0.3891
 1794TIP3    H126873   6.583   2.092   2.022  1.1225  1.2062  0.4108
 1794TIP3    H226874   6.550   2.234   1.981 -0.3466  0.1567 -2.2997
 1795TIP3   OH226875   6.624   1.836   5.027  0.0732 -0.1612 -0.0591
 1795TIP3    H126876   6.532   1.824   5.052  0.0784  0.4948  0.3020
 1795TIP3    H226877   6.653   1.911   5.078  0.4007  0.5253 -1.2156
 1796TIP3   OH226878   3.285   5.583  14.049  0.2051 -0.1457  0.0934
 1796TIP3    H126879   3.193   5.583  14.023 -0.3398 -0.6339  1.8939
 1796TIP3    H226880   3.323   5.658  14.002 -1.8481  2.0352  1.6812
 1797TIP3   OH226881   3.800   2.166   2.442  0.0271  0.4259  0.3023
 1797TIP3    H126882   3.872   2.216   2.405  1.9644 -0.3413  2.7600
 1797TIP3    H226883   3.771   2.109   2.371  1.8688  0.7253 -0.7571
 1798TIP3   OH226884   2.376   1.300   3.561  0.6243 -0.2412  0.9986
 1798TIP3    H126885   2.293   1.346   3.555  0.2898 -0.8834  0.5706
 1798TIP3    H226886   2.362   1.235   3.630  1.1994  0.5027  1.8309
 1799TIP3   OH226887   1.697   0.430   2.487  0.1728  0.2909 -0.4269
 1799TIP3    H126888   1.669   0.481   2.563 -0.6743  0.1746 -0.6401
 1799TIP3    H226889   1.654   0.345   2.498  2.7956 -0.9653  0.7146
 1800TIP3   OH226890   6.395   1.792  15.352 -0.5879 -0.1990 -0.4154
 1800TIP3    H126891   6.426   1.792  15.443 -1.1645  0.1359 -0.2094
 1800TIP3    H226892   6.300   1.807  15.360 -0.5104  0.6918 -1.1103
 1801TIP3   OH226893   6.784   3.864  15.283  0.3577  0.2685  0.1118
 1801TIP3    H126894   6.878   3.881  15.279  0.4668  0.4077  2.0817
 1801TIP3    H226895   6.776   3.769  15.286  0.4151  0.2527 -0.2026
 1802TIP3   OH226896   4.394   1.075   2.879 -0.1996  0.1028 -0.2473
 1802TIP3    H126897   4.372   1.120   2.797  0.2351 -0.1263 -0.4962
 1802TIP3    H226898   4.370   1.137   2.948  1.0264  1.0157 -0.5971
 1803TIP3   OH226899   4.594   1.762   5.704  0.5314 -0.2294  0.1290
 1803TIP3    H126900   4.499   1.746   5.701  0.4034  0.4196  0.5049
 1803TIP3    H226901   4.619   1.774   5.612  0.1540  0.1002  0.0659
 1804TIP3   OH226902   5.950   1.778   4.935  0.6610 -0.0910  0.3431
 1804TIP3    H126903   5.894   1.856   4.928 -0.2124 -0.6727  0.5685
 1804TIP3    H226904   5.986   1.766   4.847  0.5593  0.4026  0.2332
 1805TIP3   OH226905   3.911   6.271   1.245  0.1014 -0.4245 -0.8055
 1805TIP3    H126906   3.965   6.346   1.271 -0.0490 -1.1150  1.7887
 1805TIP3    H226907   3.823   6.307   1.234  0.1424 -0.0981 -0.1230
 1806TIP3   OH226908   5.300   4.575   5.149  0.3211  0.0685  0.2152
 1806TIP3    H126909   5.392   4.555   5.132  0.5139  0.3646  0.8675
 1806TIP3    H226910   5.294   4.580   5.245 -0.3487  0.1569  0.1724
 1807TIP3   OH226911   2.094   1.365   3.621 -0.2075 -0.1826  0.1121
 1807TIP3    H126912   2.095   1.434   3.688 -0.7081 -0.0972  0.0391
 1807TIP3    H226913   2.045   1.294   3.662 -1.0675  0.1098 -0.3898
 1808TIP3   OH226914   2.358   2.761   1.712 -0.0555 -0.2127 -0.0237
 1808TIP3    H126915   2.383   2.837   1.766  1.2449  0.2727 -1.2501
 1808TIP3    H226916   2.330   2.695   1.775 -0.9877  1.1848  1.1017
 1809TIP3   OH226917   2.926   4.532   4.522  0.5599  0.3857  0.0800
 1809TIP3    H126918   2.967   4.451   4.553 -2.6833 -2.0863 -1.5125
 1809TIP3    H226919   2.979   4.559   4.447  1.3225 -0.5804  0.2466
 1810TIP3   OH226920   3.532   1.005  16.177  0.2750  0.2869 -0.7694
 1810TIP3    H126921   3.472   1.080  16.171 -0.1680  0.2178  1.7166
 1810TIP3    H226922   3.588   1.025  16.252  1.8902 -0.6953 -1.6696
 1811TIP3   OH226923   1.540   1.572   2.606  0.7037 -0.9562  0.2125
 1811TIP3    H126924   1.534   1.660   2.569  0.2550 -1.2422 -0.4187
 1811TIP3    H226925   1.589   1.583   2.687 -0.1127  0.0134  0.5942
 1812TIP3   OH226926   0.820   5.948   3.431  0.4887  0.0737  0.4583
 1812TIP3    H126927   0.829   5.942   3.336  0.9868 -1.3656  0.5644
 1812TIP3    H226928   0.767   5.872   3.454  0.7908  0.1319  1.3780
 1813TIP3   OH226929   4.731   6.109  13.233 -0.2221 -0.5311 -0.1294
 1813TIP3    H126930   4.816   6.143  13.259 -0.9721  0.8737  0.6378
 1813TIP3    H226931   4.746   6.067  13.149  0.7076  2.3145 -1.5174
 1814TIP3   OH226932   5.503   0.456   0.787 -0.1368  0.4210  0.4009
 1814TIP3    H126933   5.482   0.474   0.695  1.1546 -1.0808 -0.2352
 1814TIP3    H226934   5.593   0.487   0.798 -0.4495  1.0492  1.3180
 1815TIP3   OH226935   5.716   3.618  14.775  0.6213 -0.2867 -0.1216
 1815TIP3    H126936   5.648   3.614  14.841 -0.9056  0.9180 -1.5270
 1815TIP3    H226937   5.797   3.629  14.824 -0.4117  0.1588  1.5553
 1816TIP3   OH226938   0.335   1.033   3.295 -0.5502 -0.1822  0.0354
 1816TIP3    H126939   0.244   1.005   3.290 -0.6380  0.0164  0.4474
 1816TIP3    H226940   0.385   0.951   3.300 -0.6408 -0.3138 -0.9696
 1817TIP3   OH226941   6.195   0.087   5.729  0.5386  0.2392  0.1802
 1817TIP3    H126942   6.244   0.048   5.802 -0.1886  1.6835  1.5201
 1817TIP3    H226943   6.222   0.179   5.729  1.4671  0.0183 -2.2451
 1818TIP3   OH226944   6.105   6.168  14.217  0.7370 -0.0830  0.3528
 1818TIP3    H126945   6.134   6.078  14.206  1.1200  0.1133 -0.2812
 1818TIP3    H226946   6.097   6.179  14.312  1.2144 -0.6149  0.4597
 1819TIP3   OH226947   3.805   5.178  13.731  0.2478 -0.0914  0.4277
 1819TIP3    H126948   3.733   5.130  13.690  0.8544 -1.3296  0.7841
 1819TIP3    H226949   3.762   5.252  13.775 -0.5168  0.6546 -1.4825
 1820TIP3   OH226950   5.999   6.051  11.134 -0.5246  0.5459 -0.3123
 1820TIP3    H126951   6.054   6.004  11.072 -1.4468 -1.0434 -0.0092
 1820TIP3    H226952   6.046   6.132  11.153  0.7561  0.1112 -1.4946
 1821TIP3   OH226953   3.647   3.817   0.979  0.1151 -0.3037 -0.5191
 1821TIP3    H126954   3.606   3.870   1.046  0.5097 -1.1740  0.4352
 1821TIP3    H226955   3.741   3.837   0.986  0.2239 -0.8323 -0.4114
 1822TIP3   OH226956   1.033   4.508   4.568 -0.1384  0.1310  0.3936
 1822TIP3    H126957   0.953   4.502   4.620 -1.0479 -2.2118 -1.1247
 1822TIP3    H226958   1.067   4.419   4.566  0.5402  0.3826 -1.9727
 1823TIP3   OH226959   3.616   3.024   4.175 -0.8965 -0.3526 -0.4656
 1823TIP3    H126960   3.530   3.062   4.192 -0.6779  0.7639 -1.7256
 1823TIP3    H226961   3.662   3.031   4.258 -1.1058  1.5413 -0.4657
 1824TIP3   OH226962   3.867   0.175   3.564 -0.4676 -0.4577  0.3637
 1824TIP3    H126963   3.924   0.251   3.577  0.3708 -0.9501 -0.2984
 1824TIP3    H226964   3.907   0.128   3.491 -1.0316 -1.4812  0.6992
 1825TIP3   OH226965   3.680   0.099  14.648 -0.8783  0.4581  0.0134
 1825TIP3    H126966   3.726   0.071  14.569 -2.6921 -2.9898  0.0248
 1825TIP3    H226967   3.602   0.144  14.616 -1.7450 -1.1639 -0.2230
 1826TIP3   OH226968   3.041   4.056  15.755 -0.1761  0.3805 -0.2482
 1826TIP3    H126969   3.126   4.023  15.729  0.1385  1.0448 -0.0920
 1826TIP3    H226970   3.001   4.089  15.675  0.2634  1.2627 -0.1144
 1827TIP3   OH226971   1.678   3.395   6.064  0.4758 -0.1209 -0.4649
 1827TIP3    H126972   1.737   3.357   6.129 -0.8367 -1.4715 -0.0067
 1827TIP3    H226973   1.693   3.343   5.985  1.3474  0.8720 -0.9794
 1828TIP3   OH226974   2.675   5.789   5.289  0.3940  0.4485 -0.6338
 1828TIP3    H126975   2.747   5.788   5.352  0.7923  0.2680 -1.0835
 1828TIP3    H226976   2.707   5.737   5.216 -0.2843  0.1795 -0.7465
 1829TIP3   OH226977   5.103   1.176   4.944  0.5403 -0.0612  0.3404
 1829TIP3    H126978   5.072   1.164   4.854 -1.7552  0.7976  0.9547
 1829TIP3    H226979   5.136   1.090   4.970 -0.1956 -0.7122 -0.7955
 1830TIP3   OH226980   6.501   2.273   1.725 -0.0644 -0.1122 -0.0777
 1830TIP3    H126981   6.518   2.230   1.809 -0.9835 -0.6956 -0.1758
 1830TIP3    H226982   6.586   2.278   1.683  0.3656 -0.0690  0.7683
 1831TIP3   OH226983   1.115   5.491  14.703 -0.2719 -0.5491  0.5025
 1831TIP3    H126984   1.185   5.437  14.668 -0.6785 -0.3145 -0.7194
 1831TIP3    H226985   1.139   5.580  14.678 -0.6501 -0.3897  0.6967
 1832TIP3   OH226986   5.983   0.931  13.585 -0.2813 -0.4739  0.1611
 1832TIP3    H126987   5.957   0.980  13.663  0.1584  0.2585 -0.1471
 1832TIP3    H226988   5.901   0.896  13.550 -0.9586  2.1269 -1.0255
 1833TIP3   OH226989   4.832   4.102   4.744  0.1997 -0.1513 -0.0633
 1833TIP3    H126990   4.870   4.184   4.775 -0.9260 -0.5107  2.5614
 1833TIP3    H226991   4.865   4.036   4.806  0.5403 -1.6062 -1.7138
 1834TIP3   OH226992   1.386   3.286  13.562 -0.4276 -0.4813  0.0278
 1834TIP3    H126993   1.406   3.291  13.656 -0.9228  0.5581  0.0916
 1834TIP3    H226994   1.467   3.255  13.522  0.4452  0.9600  0.5918
 1835TIP3   OH226995   2.015   3.757  12.933 -0.2537 -0.2627 -0.1770
 1835TIP3    H126996   2.099   3.787  12.969 -1.9991  1.7391  2.6586
 1835TIP3    H226997   2.001   3.671  12.973 -0.8321  0.6978  1.8278
 1836TIP3   OH226998   5.791   1.254  15.751  0.0159  0.2858 -0.1080
 1836TIP3    H126999   5.702   1.277  15.724 -0.1095 -1.1410 -1.0613
 1836TIP3    H227000   5.811   1.175  15.699  0.5931 -1.3634  2.4562
 1837TIP3   OH227001   0.217   6.112   4.010  0.1269 -0.6893  0.7208
 1837TIP3    H127002   0.182   6.023   4.019 -1.6057 -0.3005 -1.4679
 1837TIP3    H227003   0.207   6.133   3.917 -0.1959  2.0774  1.2991
 1838TIP3   OH227004   1.292   6.612  11.021  0.1747  0.4519 -0.9788
 1838TIP3    H127005   1.214   6.617  10.965 -1.1941 -2.6442  0.4565
 1838TIP3    H227006   1.311   6.519  11.027  1.4646  0.8249  2.0878
 1839TIP3   OH227007   1.427   2.583  11.265 -0.3521 -0.0879  0.2556
 1839TIP3    H127008   1.456   2.670  11.235 -0.7752 -0.1564 -0.3625
 1839TIP3    H227009   1.332   2.590  11.273 -0.4308 -0.5913 -0.1445
 1840TIP3   OH227010   4.746   6.078  11.381 -0.5257 -0.0501 -0.4850
 1840TIP3    H127011   4.757   5.985  11.402  0.6852  0.2284  0.1909
 1840TIP3    H227012   4.657   6.083  11.345 -1.2455 -1.2036  0.9811
 1841TIP3   OH227013   0.731   3.294   5.900 -0.0278  0.0708  0.0696
 1841TIP3    H127014   0.663   3.241   5.856 -0.5172  1.6415 -1.1921
 1841TIP3    H227015   0.801   3.300   5.835  0.6449 -0.2047  0.7605
 1842TIP3   OH227016   6.600   4.053  11.241 -0.1982 -0.4171 -0.5223
 1842TIP3    H127017   6.617   4.021  11.153 -1.3363 -3.0460  0.1197
 1842TIP3    H227018   6.511   4.088  11.237 -0.3928 -0.8902 -0.3259
 1843TIP3   OH227019   4.448   3.133  14.133 -0.0924  0.1217  0.3573
 1843TIP3    H127020   4.498   3.101  14.059  0.1580 -0.2072  0.6681
 1843TIP3    H227021   4.445   3.228  14.121 -2.6567 -0.1083 -1.7357
 1844TIP3   OH227022   6.366   0.408  16.999  0.0744  0.0423 -0.1951
 1844TIP3    H127023   6.359   0.433  16.907  0.5138  2.3808  0.3356
 1844TIP3    H227024   6.458   0.383  17.010  0.1295  0.2096 -0.2795
 1845TIP3   OH227025   0.771   1.007   2.054 -0.1582 -0.1630 -0.3669
 1845TIP3    H127026   0.754   0.956   1.975 -2.1625  2.2120 -1.5654
 1845TIP3    H227027   0.867   1.013   2.058  0.1502 -3.2759 -0.5445
 1846TIP3   OH227028   0.226   5.831  16.660 -0.2191 -0.7175  0.0758
 1846TIP3    H127029   0.208   5.868  16.573 -1.2964  1.1463  1.0187
 1846TIP3    H227030   0.310   5.869  16.686 -0.8038  0.2659  0.5947
 1847TIP3   OH227031   0.067   2.817   2.372 -0.1688 -0.1111  0.0662
 1847TIP3    H127032   0.056   2.907   2.402 -0.2436  0.6882 -2.1537
 1847TIP3    H227033   0.152   2.817   2.328 -0.6496 -0.8182 -0.9014
 1848TIP3   OH227034   5.523   4.052  16.942 -0.4206  0.3049 -0.1433
 1848TIP3    H127035   5.548   3.963  16.918  0.9839  0.4821  0.5754
 1848TIP3    H227036   5.487   4.045  17.030  0.5722  0.5479  0.3020
 1849TIP3   OH227037   4.192   3.745   5.919 -0.4290 -0.3783 -0.0148
 1849TIP3    H127038   4.160   3.669   5.872 -0.8997  0.3694 -0.9312
 1849TIP3    H227039   4.129   3.757   5.990 -1.3537  0.1702 -0.9020
 1850TIP3   OH227040   0.862   4.731   4.304  0.3189  0.0400 -0.4787
 1850TIP3    H127041   0.809   4.667   4.256 -0.2917  0.5647 -0.5179
 1850TIP3    H227042   0.813   4.748   4.384  1.5987 -1.2386  0.6313
 1851TIP3   OH227043   3.421   2.420  11.326 -0.1012  0.4962 -0.8403
 1851TIP3    H127044   3.335   2.462  11.329  1.0106  2.8457  0.3856
 1851TIP3    H227045   3.442   2.401  11.417  0.5700 -0.3583 -1.1561
 1852TIP3   OH227046   2.540   1.355  14.781 -0.0212 -0.2639 -0.3346
 1852TIP3    H127047   2.581   1.284  14.832 -1.5077 -0.5268  0.5734
 1852TIP3    H227048   2.519   1.315  14.697 -0.5460 -0.8202  0.0527
 1853TIP3   OH227049   6.318   0.931  14.776 -0.2767 -0.6543 -0.2182
 1853TIP3    H127050   6.239   0.880  14.757 -0.9034  0.5396 -0.9130
 1853TIP3    H227051   6.299   0.975  14.858 -0.1559 -0.7031 -0.1641
 1854TIP3   OH227052   1.454   2.029  13.236 -0.5890 -0.2371  0.5099
 1854TIP3    H127053   1.416   2.015  13.149  0.4472 -0.7293  0.1219
 1854TIP3    H227054   1.385   2.002  13.297 -1.9368  1.6659 -0.0931
 1855TIP3   OH227055   3.589   5.471  15.270  0.3163 -0.1976  0.5615
 1855TIP3    H127056   3.635   5.471  15.354 -0.1480  0.9401  0.8461
 1855TIP3    H227057   3.578   5.564  15.250  0.5671 -0.4631 -0.8532
 1856TIP3   OH227058   6.087   1.780  16.160  0.0265  0.1044 -0.1443
 1856TIP3    H127059   6.022   1.850  16.165 -1.2806 -1.0826  0.3598
 1856TIP3    H227060   6.037   1.700  16.178  1.8085 -0.7667  1.2654
 1857TIP3   OH227061   5.959   3.497  15.958 -0.6970  0.1527  0.7487
 1857TIP3    H127062   5.903   3.479  16.034 -1.4483  0.8726  0.3710
 1857TIP3    H227063   6.040   3.532  15.996 -1.0258  0.4025  1.2305
 1858TIP3   OH227064   4.366   0.817   4.194 -0.2001  0.2552 -0.4401
 1858TIP3    H127065   4.461   0.811   4.200 -0.1976  0.1259 -0.6059
 1858TIP3    H227066   4.338   0.845   4.281  0.1544  2.1654 -0.8930
 1859TIP3   OH227067   2.472   3.313   4.797 -0.2659 -0.1094  0.3872
 1859TIP3    H127068   2.439   3.352   4.878 -0.9770 -1.4286  0.7499
 1859TIP3    H227069   2.566   3.300   4.813 -0.1241  0.8818  0.4673
 1860TIP3   OH227070   6.414   0.809  16.151 -0.4529  0.2084  0.3416
 1860TIP3    H127071   6.330   0.802  16.106 -0.5582 -1.2292  0.7062
 1860TIP3    H227072   6.435   0.719  16.177 -0.5904  0.9712  3.4839
 1861TIP3   OH227073   5.856   1.705  16.963  0.1904  0.4533  0.1406
 1861TIP3    H127074   5.914   1.635  16.993  0.3881  0.2386 -0.7125
 1861TIP3    H227075   5.812   1.668  16.886 -0.5457  0.8689  0.3504
 1862TIP3   OH227076   2.545   0.766  11.001 -0.4573 -0.1605 -0.0190
 1862TIP3    H127077   2.518   0.680  10.969 -0.0549 -0.8456  1.4274
 1862TIP3    H227078   2.625   0.785  10.952 -1.5858  0.3167 -1.7762
 1863TIP3   OH227079   5.423   6.100   3.391 -0.0511 -0.3547  0.4236
 1863TIP3    H127080   5.462   6.089   3.478 -0.7715  1.8090  1.0759
 1863TIP3    H227081   5.498   6.109   3.332  0.4784  0.8575  1.2387
 1864TIP3   OH227082   2.692   4.232   3.255 -0.5938 -0.5185 -0.1217
 1864TIP3    H127083   2.723   4.142   3.243 -0.2945 -0.3755 -0.4386
 1864TIP3    H227084   2.658   4.257   3.169  0.6968  0.1929 -0.4520
 1865TIP3   OH227085   2.048   1.456  14.533  0.1196  0.0517 -0.0484
 1865TIP3    H127086   2.140   1.442  14.556  0.2853  1.0483 -0.0841
 1865TIP3    H227087   2.049   1.532  14.475 -0.5896 -0.7645 -1.1732
 1866TIP3   OH227088   3.104   3.031   0.299 -0.5719  0.6750  0.7384
 1866TIP3    H127089   3.053   3.028   0.380 -2.0618 -1.6969 -0.2002
 1866TIP3    H227090   3.074   2.956   0.248  1.5685  1.0762 -1.3013
 1867TIP3   OH227091   2.345   6.160   4.050 -0.3530  0.0448  0.3130
 1867TIP3    H127092   2.307   6.215   3.982 -0.8663 -1.1286 -0.3915
 1867TIP3    H227093   2.276   6.097   4.071  0.5116 -0.8821  0.4454
 1868TIP3   OH227094   5.548   1.896  11.745 -0.2517  0.0630  0.7011
 1868TIP3    H127095   5.613   1.962  11.721 -0.8003  0.3815  0.0556
 1868TIP3    H227096   5.598   1.828  11.790  0.9830 -0.9052 -1.9519
 1869TIP3   OH227097   3.909   1.447  15.658 -0.0649 -0.2681  0.3322
 1869TIP3    H127098   3.860   1.516  15.614 -1.1921  0.1105  2.0735
 1869TIP3    H227099   3.954   1.400  15.587  0.1301  1.7480 -0.9564
 1870TIP3   OH227100   1.736   1.793   2.802 -0.0748  0.1980 -0.5079
 1870TIP3    H127101   1.684   1.768   2.878  0.6642 -0.4547 -0.2067
 1870TIP3    H227102   1.795   1.861   2.834  1.0871 -0.9371 -0.1679
 1871TIP3   OH227103   3.307   4.242   1.196  0.0776  0.2070  0.2661
 1871TIP3    H127104   3.399   4.265   1.212 -0.0519  0.0820  1.2063
 1871TIP3    H227105   3.278   4.199   1.276 -0.6134 -0.3683 -0.2793
 1872TIP3   OH227106   2.809   0.353  11.585 -0.1748 -0.0851 -0.4702
 1872TIP3    H127107   2.716   0.333  11.595 -0.4099  1.5914  1.3085
 1872TIP3    H227108   2.855   0.274  11.614 -1.0393 -0.3376  0.2269
 1873TIP3   OH227109   2.436   2.065  13.936  0.2534 -0.4742  0.0781
 1873TIP3    H127110   2.517   2.090  13.890 -0.7764 -0.4894 -1.8704
 1873TIP3    H227111   2.394   2.148  13.958  0.8095 -0.4660  1.1253
 1874TIP3   OH227112   4.281   2.353  12.879 -0.0137  0.3440 -0.2312
 1874TIP3    H127113   4.285   2.429  12.937  1.4928 -0.3058  0.5527
 1874TIP3    H227114   4.217   2.378  12.812  0.1512  2.1422  0.2282
 1875TIP3   OH227115   2.066   3.985  16.596 -0.4515 -0.5500  0.8672
 1875TIP3    H127116   2.109   4.055  16.646 -1.3192  0.2835  0.4767
 1875TIP3    H227117   1.983   3.971  16.641 -1.2619  0.2316 -0.3129
 1876TIP3   OH227118   5.235   0.947   1.146  0.0675  0.0515 -0.0682
 1876TIP3    H127119   5.261   0.916   1.232  0.7611 -0.0087 -0.2910
 1876TIP3    H227120   5.230   0.869   1.092 -0.9621  0.0169  0.0528
 1877TIP3   OH227121   2.789   2.566  15.523  0.1802  0.0144  0.3610
 1877TIP3    H127122   2.746   2.623  15.586  1.5029  0.6708  0.7214
 1877TIP3    H227123   2.770   2.477  15.553  0.4884  0.3129  1.4840
 1878TIP3   OH227124   3.718   4.914  10.703 -0.6254  0.4434 -0.4428
 1878TIP3    H127125   3.725   4.879  10.614  0.3399  1.8240 -0.9416
 1878TIP3    H227126   3.641   4.972  10.700 -2.0010 -1.2508  0.2838
 1879TIP3   OH227127   5.605   0.834  15.641  0.0119  0.7403 -0.1339
 1879TIP3    H127128   5.666   0.848  15.713  0.5741 -3.9747  0.6116
 1879TIP3    H227129   5.653   0.860  15.563  2.2848 -0.8627  0.6467
 1880TIP3   OH227130   2.024   6.297  16.634 -0.4832  0.2710  0.3043
 1880TIP3    H127131   2.006   6.348  16.555  1.8276  0.6133 -0.0944
 1880TIP3    H227132   2.079   6.225  16.604  0.2302  0.2609  1.5377
 1881TIP3   OH227133   2.900   1.677   4.634 -0.0650  0.5443  0.3771
 1881TIP3    H127134   2.905   1.773   4.634 -1.6337  0.9562 -5.1571
 1881TIP3    H227135   2.991   1.649   4.624  0.1660  2.0936 -4.2461
 1882TIP3   OH227136   2.674   4.294   0.462 -0.7122  0.2760  0.1174
 1882TIP3    H127137   2.580   4.280   0.479 -1.1339 -0.1119 -2.2228
 1882TIP3    H227138   2.683   4.285   0.367  1.8527 -0.5276  0.3548
 1883TIP3   OH227139   6.131   6.171   1.173 -0.1672  0.2677  0.3249
 1883TIP3    H127140   6.143   6.195   1.081  2.0378 -1.5875  0.0349
 1883TIP3    H227141   6.037   6.157   1.182 -0.3893  0.1049 -1.7680
 1884TIP3   OH227142   0.234   5.689   0.256 -0.1646 -0.2160  0.2678
 1884TIP3    H127143   0.160   5.746   0.237  1.2651  1.0530 -1.9102
 1884TIP3    H227144   0.301   5.748   0.291  0.9394 -0.7095 -0.9296
 1885TIP3   OH227145   0.262   0.357  10.688 -0.4747  0.1418  0.2470
 1885TIP3    H127146   0.175   0.373  10.650  0.0402  3.2223  0.1233
 1885TIP3    H227147   0.244   0.305  10.766 -2.2119 -0.8448 -0.7264
 1886TIP3   OH227148   6.342   3.624   1.552  0.0693 -0.0947  0.0393
 1886TIP3    H127149   6.258   3.586   1.528  0.0743 -0.7558  1.0133
 1886TIP3    H227150   6.405   3.580   1.494 -0.0845 -0.7094  0.3194
 1887TIP3   OH227151   2.457   4.915   2.451 -0.3250  0.3112  0.1328
 1887TIP3    H127152   2.480   4.824   2.432 -2.2149  0.1680 -1.8117
 1887TIP3    H227153   2.413   4.912   2.536 -0.4065 -0.5950  0.0620
 1888TIP3   OH227154   4.705   3.435  12.955 -0.1187 -0.3882 -0.4131
 1888TIP3    H127155   4.766   3.426  12.882  2.4059 -0.2637  1.5488
 1888TIP3    H227156   4.726   3.362  13.013 -0.5231  0.7459  1.2266
 1889TIP3   OH227157   1.875   4.802  15.850 -0.6890 -0.2773  0.0159
 1889TIP3    H127158   1.936   4.748  15.799 -1.9694  0.1697 -2.0811
 1889TIP3    H227159   1.931   4.870  15.890  0.3047 -0.3451 -1.2003
 1890TIP3   OH227160   6.271   3.762  15.776  0.2084  0.6636  0.4132
 1890TIP3    H127161   6.224   3.838  15.743 -0.0541 -0.2657 -1.5142
 1890TIP3    H227162   6.326   3.735  15.702 -0.3963 -1.5404  0.7121
 1891TIP3   OH227163   2.661   1.265   3.597  0.0180  0.1587  0.8953
 1891TIP3    H127164   2.576   1.254   3.554  0.1201  2.0177  0.1405
 1891TIP3    H227165   2.640   1.308   3.680  0.2738  1.5613  0.2586
 1892TIP3   OH227166   3.076   6.513   0.204 -0.3121  0.0204 -0.0952
 1892TIP3    H127167   3.055   6.423   0.179 -0.5831  0.3341 -1.0508
 1892TIP3    H227168   3.142   6.504   0.272  0.1966 -0.8991 -0.6868
 1893TIP3   OH227169   0.496   2.673   4.365  0.2120  0.8772  0.0705
 1893TIP3    H127170   0.550   2.597   4.344 -0.1085 -0.1315  2.5461
 1893TIP3    H227171   0.532   2.706   4.447 -0.5282  2.5723 -0.2423
 1894TIP3   OH227172   0.383   2.886   5.110 -0.1830 -0.1471  0.2857
 1894TIP3    H127173   0.409   2.976   5.128 -1.4407  0.1286  0.8672
 1894TIP3    H227174   0.359   2.886   5.017 -0.8865  0.3201  0.4573
 1895TIP3   OH227175   2.860   6.430  11.465  0.1781 -0.1567  0.0244
 1895TIP3    H127176   2.874   6.423  11.370  0.8059  0.5881  0.0622
 1895TIP3    H227177   2.897   6.515  11.489  0.9317 -0.7711  1.1069
 1896TIP3   OH227178   1.704   2.722  15.036  0.1144  0.0162 -0.4745
 1896TIP3    H127179   1.623   2.770  15.018 -0.5889  0.1984  2.6018
 1896TIP3    H227180   1.754   2.780  15.093  1.4889 -0.9347 -0.6700
 1897TIP3   OH227181   0.160   3.134  15.930  0.4047  0.4236  0.1524
 1897TIP3    H127182   0.180   3.126  15.836 -3.1026 -0.9846 -0.6242
 1897TIP3    H227183   0.160   3.229  15.945 -1.7592  0.9126 -2.1080
 1898TIP3   OH227184   5.252   1.439  14.632  0.1724 -0.0986 -0.4042
 1898TIP3    H127185   5.161   1.423  14.653 -0.0912  0.0586 -1.3708
 1898TIP3    H227186   5.300   1.421  14.713 -0.7865  0.5774  0.3283
 1899TIP3   OH227187   5.999   4.041  14.072 -0.0217 -0.2597 -0.8345
 1899TIP3    H127188   6.069   4.107  14.072  0.1524 -0.4267  0.0814
 1899TIP3    H227189   5.987   4.020  14.164 -1.1914 -0.3369 -0.9894
 1900TIP3   OH227190   2.414   4.963  10.625  0.1885  0.2258 -0.4496
 1900TIP3    H127191   2.439   4.987  10.714  1.9389  1.1526 -1.1419
 1900TIP3    H227192   2.320   4.946  10.630  0.4019 -0.5954  1.7298
 1901TIP3   OH227193   6.774   3.404  16.947 -0.0880  0.6134 -0.0175
 1901TIP3    H127194   6.836   3.470  16.916  0.7358 -0.1030  0.0900
 1901TIP3    H227195   6.780   3.332  16.884 -2.5650  1.4655 -1.3942
 1902TIP3   OH227196   6.187   4.223  15.228  0.1373  0.3555 -0.4908
 1902TIP3    H127197   6.236   4.196  15.151  1.0981  1.3365 -0.2547
 1902TIP3    H227198   6.136   4.299  15.199  0.4736  0.7053 -0.1767
 1903TIP3   OH227199   1.188   1.441   4.139 -0.2665 -0.5820 -0.4487
 1903TIP3    H127200   1.149   1.513   4.188 -1.0371  0.3814 -2.4097
 1903TIP3    H227201   1.120   1.373   4.139  0.8686 -1.9137  2.3907
 1904TIP3   OH227202   2.486   1.568   4.953  0.3012 -0.1477  0.6963
 1904TIP3    H127203   2.419   1.582   5.020  1.0878 -0.2794  1.5197
 1904TIP3    H227204   2.491   1.473   4.943 -0.8856 -0.1058 -0.6712
 1905TIP3   OH227205   4.870   2.142  13.748  0.7138 -0.0216 -0.0075
 1905TIP3    H127206   4.925   2.186  13.813 -0.1827 -0.0470  0.7925
 1905TIP3    H227207   4.903   2.052  13.745 -1.3027 -1.0067  2.9376
 1906TIP3   OH227208   1.527   1.540  13.621 -0.6444 -0.3029  0.2814
 1906TIP3    H127209   1.508   1.466  13.563  0.8620 -1.0940  0.7442
 1906TIP3    H227210   1.487   1.515  13.705 -1.1824 -0.0340  0.1053
 1907TIP3   OH227211   3.749   6.062  12.519 -0.1678  0.1397  0.6949
 1907TIP3    H127212   3.696   5.995  12.475 -0.9558  0.3955  1.2289
 1907TIP3    H227213   3.838   6.026  12.521 -0.7838 -1.4041  1.9760
 1908TIP3   OH227214   6.207   6.325   5.252 -0.2417 -0.5065  0.1947
 1908TIP3    H127215   6.139   6.367   5.199  0.2787  0.6183  0.4030
 1908TIP3    H227216   6.217   6.382   5.327  1.6883 -0.0728 -0.3519
 1909TIP3   OH227217   1.919   4.574   1.383 -0.3412 -0.0156  0.2884
 1909TIP3    H127218   1.957   4.656   1.415  1.1816  0.1372 -1.6965
 1909TIP3    H227219   1.995   4.516   1.372 -1.0176 -0.6511 -1.1744
 1910TIP3   OH227220   0.292   0.285  12.454  0.0360 -0.4968 -0.5723
 1910TIP3    H127221   0.219   0.277  12.392 -0.7352  1.1452  0.0550
 1910TIP3    H227222   0.256   0.258  12.538 -0.1694  1.1533 -0.0832
 1911TIP3   OH227223   3.197   6.507   4.734 -0.3784  0.2219 -0.4124
 1911TIP3    H127224   3.286   6.519   4.702 -0.2609  1.0069  0.1756
 1911TIP3    H227225   3.196   6.419   4.771 -0.0824 -0.1015 -1.1668
 1912TIP3   OH227226   5.815   3.297  15.213  0.0508  0.2037  0.1336
 1912TIP3    H127227   5.726   3.324  15.190 -0.5135 -0.9810  0.8186
 1912TIP3    H227228   5.871   3.367  15.179 -1.3563  2.8198  2.7738
 1913TIP3   OH227229   5.575   4.406   4.301  0.4792  0.0412  0.0256
 1913TIP3    H127230   5.670   4.410   4.292  0.6064 -0.9294  0.7432
 1913TIP3    H227231   5.561   4.369   4.388 -0.5614  0.5197  0.0709
 1914TIP3   OH227232   0.093   4.097  12.164 -0.3162 -0.0752  0.2124
 1914TIP3    H127233   0.087   4.021  12.107 -0.2677 -1.2817  1.7377
 1914TIP3    H227234   0.043   4.165  12.120  0.4778 -0.6639 -1.6749
 1915TIP3   OH227235   6.753   6.754  15.389  0.6406  0.3583  0.3761
 1915TIP3    H127236   6.718   6.803  15.314  0.8946 -0.1311 -0.0673
 1915TIP3    H227237   6.746   6.662  15.362 -0.7657  0.0736  1.5912
 1916TIP3   OH227238   2.397   2.606  12.117 -0.4005  0.9771 -0.0432
 1916TIP3    H127239   2.397   2.544  12.044  3.8567  1.3870 -0.6667
 1916TIP3    H227240   2.369   2.689  12.078 -0.4277  0.6874 -0.6485
 1917TIP3   OH227241   4.989   4.586   6.015  0.3339 -0.1692 -0.0367
 1917TIP3    H127242   5.057   4.621   5.956 -1.5387 -0.2143 -2.3463
 1917TIP3    H227243   5.032   4.514   6.061  2.0492  0.2684 -0.8739
 1918TIP3   OH227244   4.276   6.322  14.931 -0.4809 -0.0917 -0.1935
 1918TIP3    H127245   4.356   6.370  14.952 -1.3615  0.6170  1.6988
 1918TIP3    H227246   4.278   6.314  14.835  1.9873 -0.3822 -0.1743
 1919TIP3   OH227247   1.031   2.048  11.563  0.3456 -0.3362  0.3706
 1919TIP3    H127248   1.028   2.078  11.654  0.4130 -0.0327  0.2728
 1919TIP3    H227249   1.120   2.014  11.553 -0.1877 -2.0190  0.9341
 1920TIP3   OH227250   5.892   0.329   5.131  0.0720  0.3967  0.1701
 1920TIP3    H127251   5.840   0.349   5.209  0.4725  0.9802  0.2982
 1920TIP3    H227252   5.875   0.404   5.073 -1.8708 -0.9953 -1.1919
 1921TIP3   OH227253   3.243   5.316  12.804 -0.1480 -0.1212  0.3625
 1921TIP3    H127254   3.287   5.247  12.755  0.3824 -0.0110  0.6722
 1921TIP3    H227255   3.296   5.394  12.788 -1.5772  0.5861 -1.2132
 1922TIP3   OH227256   5.536   6.298  14.306  0.5225  0.5369  0.1719
 1922TIP3    H127257   5.611   6.270  14.253  0.2749  1.8128 -0.8850
 1922TIP3    H227258   5.565   6.378  14.348  0.1480  0.3964  0.7062
 1923TIP3   OH227259   1.383   4.530  14.148  0.4311  0.4544  0.1946
 1923TIP3    H127260   1.437   4.545  14.226  1.2789 -1.5804  0.0822
 1923TIP3    H227261   1.358   4.617  14.118 -0.9783  1.3060  3.4210
 1924TIP3   OH227262   1.728   4.747  10.556 -0.8270  0.5977  0.2613
 1924TIP3    H127263   1.801   4.787  10.603 -1.3005  2.8151 -0.7662
 1924TIP3    H227264   1.760   4.660  10.533  0.3094  0.3496  2.5111
 1925TIP3   OH227265   5.946   0.455   4.650  0.5140 -0.4098  0.3927
 1925TIP3    H127266   5.987   0.411   4.576  0.1871  1.4190 -0.9349
 1925TIP3    H227267   5.969   0.547   4.640 -1.1057  0.1726  1.4815
 1926TIP3   OH227268   0.294   3.550   3.415 -0.0569  0.3518  0.0524
 1926TIP3    H127269   0.275   3.518   3.326  0.5068 -0.8740  0.3477
 1926TIP3    H227270   0.211   3.584   3.447 -0.7344 -0.9458 -0.2577
 1927TIP3   OH227271   2.757   5.784  12.765 -0.2411  0.2879  0.0753
 1927TIP3    H127272   2.712   5.705  12.794  0.5185  0.6955  2.5774
 1927TIP3    H227273   2.841   5.754  12.732  0.6572  0.0830  2.3771
 1928TIP3   OH227274   4.017   5.725   6.285 -0.7986 -0.5578  0.1065
 1928TIP3    H127275   4.085   5.777   6.326 -0.5337  0.0258 -1.0445
 1928TIP3    H227276   3.936   5.753   6.327 -0.4166 -0.8200  1.0444
 1929TIP3   OH227277   5.088   0.785   2.934 -0.3403 -0.3346  0.2952
 1929TIP3    H127278   5.019   0.741   2.984  0.1810 -2.6047 -0.8688
 1929TIP3    H227279   5.154   0.718   2.920  0.5103  0.8143 -1.6206
 1930TIP3   OH227280   2.874   3.719   5.486 -0.8609 -0.3699 -0.2956
 1930TIP3    H127281   2.958   3.758   5.507 -1.6119  1.4182 -0.3762
 1930TIP3    H227282   2.826   3.718   5.569 -1.7670  1.3686 -0.7395
 1931TIP3   OH227283   1.913   0.797   1.105  0.0891  0.0901 -0.3070
 1931TIP3    H127284   1.991   0.757   1.144  0.8938  1.7764 -0.1065
 1931TIP3    H227285   1.845   0.730   1.115  0.9760 -0.6276  1.4283
 1932TIP3   OH227286   5.867   4.427   3.718 -0.0033  0.4099 -0.0380
 1932TIP3    H127287   5.815   4.478   3.780 -1.9271 -1.1656 -0.2376
 1932TIP3    H227288   5.835   4.455   3.632 -1.2368 -1.1648 -0.1493
 1933TIP3   OH227289   6.483   2.825  11.019  0.0736  0.2389 -0.2165
 1933TIP3    H127290   6.530   2.753  10.977  0.1555  0.2085 -0.0716
 1933TIP3    H227291   6.420   2.854  10.953  0.1641  0.1537 -0.3404
 1934TIP3   OH227292   5.890   2.369  16.508 -0.1517 -0.5396 -0.1491
 1934TIP3    H127293   5.869   2.386  16.599  2.9665 -1.8175  0.9437
 1934TIP3    H227294   5.878   2.453  16.464 -0.6701  0.3616  1.6537
 1935TIP3   OH227295   3.421   6.624   2.878 -0.2410  0.0379  0.3287
 1935TIP3    H127296   3.494   6.624   2.940  0.4812  1.5250 -0.4747
 1935TIP3    H227297   3.457   6.586   2.798 -0.3192  0.7939 -0.0759
 1936TIP3   OH227298   2.742   3.102   3.574 -0.0850 -0.4727  0.2731
 1936TIP3    H127299   2.753   3.146   3.659 -0.0301  1.9214 -0.8897
 1936TIP3    H227300   2.651   3.119   3.550 -0.4024 -2.0359  0.2748
 1937TIP3   OH227301   1.203   0.216   1.431  0.2999 -0.1656  0.5066
 1937TIP3    H127302   1.138   0.269   1.385 -0.0538  0.1740  1.3818
 1937TIP3    H227303   1.273   0.204   1.367 -0.5363 -0.3909 -0.3956
 1938TIP3   OH227304   2.003   1.413  13.772  0.1026 -0.1895  0.1290
 1938TIP3    H127305   1.931   1.468  13.741 -1.5775 -0.1920  3.5225
 1938TIP3    H227306   1.989   1.329  13.728 -0.4344  0.5406 -1.1640
 1939TIP3   OH227307   2.907   1.149   4.235 -0.1288  0.0802 -0.7107
 1939TIP3    H127308   2.844   1.082   4.259 -0.4812 -0.1492 -2.1911
 1939TIP3    H227309   2.870   1.190   4.157  0.9459  0.7919 -0.8679
 1940TIP3   OH227310   4.146   6.691   0.608 -0.2564 -0.4948 -0.1765
 1940TIP3    H127311   4.232   6.677   0.648  0.4181  0.4384 -1.2366
 1940TIP3    H227312   4.101   6.750   0.668  0.6275  0.6415 -0.5953
 1941TIP3   OH227313   5.287   4.290  16.706 -0.3108 -0.5606 -0.2525
 1941TIP3    H127314   5.269   4.324  16.618 -1.3501  0.6383  0.3907
 1941TIP3    H227315   5.380   4.308  16.720 -0.0964 -0.9149 -1.1607
 1942TIP3   OH227316   4.880   5.526  16.706  0.7186 -0.2269 -0.0601
 1942TIP3    H127317   4.920   5.473  16.775  1.3894  0.8246  0.3796
 1942TIP3    H227318   4.947   5.590  16.683 -0.0873  0.4560 -0.5487
 1943TIP3   OH227319   1.198   0.302   0.964  0.0414 -0.0717  0.4816
 1943TIP3    H127320   1.140   0.236   0.925  1.3704 -0.5310 -0.8160
 1943TIP3    H227321   1.163   0.385   0.934  0.0405 -0.3469 -0.3022
 1944TIP3   OH227322   2.782   3.797   3.074 -0.1071  0.3433  0.0169
 1944TIP3    H127323   2.772   3.705   3.099  3.7930 -0.8073 -1.7978
 1944TIP3    H227324   2.745   3.802   2.986 -0.1310  0.4456  0.0329
 1945TIP3   OH227325   3.589   1.590  15.951  0.0471  0.1118  0.5041
 1945TIP3    H127326   3.602   1.652  15.879  1.3261  0.1577  0.7579
 1945TIP3    H227327   3.564   1.645  16.025  2.0351  0.4816  0.9646
 1946TIP3   OH227328   2.548   5.989   1.084  0.2568  0.4992 -0.8701
 1946TIP3    H127329   2.526   5.904   1.046 -0.5567  0.4460 -0.3038
 1946TIP3    H227330   2.547   5.974   1.179 -3.0066  1.7981 -0.5707
 1947TIP3   OH227331   4.366   5.151  12.636 -0.1102  1.1007 -0.7332
 1947TIP3    H127332   4.437   5.214  12.646  0.8364  0.1893 -1.4597
 1947TIP3    H227333   4.338   5.161  12.545 -0.7733  1.2971 -0.5119
 1948TIP3   OH227334   3.448   2.159  15.983  0.3493  0.6133  0.4878
 1948TIP3    H127335   3.384   2.088  15.989 -0.8406  1.6203 -0.0283
 1948TIP3    H227336   3.495   2.154  16.066 -0.5051 -0.0428  0.9568
 1949TIP3   OH227337   1.920   2.740   2.153 -0.1665  0.1520  0.1020
 1949TIP3    H127338   2.006   2.701   2.139  0.4541  1.4597  0.1486
 1949TIP3    H227339   1.932   2.800   2.227 -0.7627  1.3441 -0.7179
 1950TIP3   OH227340   4.299   5.595  13.433  0.2323 -0.5026  0.0316
 1950TIP3    H127341   4.275   5.519  13.486 -1.0346 -1.4345 -1.7838
 1950TIP3    H227342   4.392   5.584  13.415  0.2167 -1.2345  0.3800
 1951TIP3   OH227343   0.253   2.174  12.126  0.0733 -0.4730  0.4560
 1951TIP3    H127344   0.185   2.135  12.181 -2.1513  1.0574 -0.9940
 1951TIP3    H227345   0.221   2.263  12.109  2.6844  0.4550 -0.0115
 1952TIP3   OH227346   4.193   1.888  14.454  0.3760  0.2871  0.0970
 1952TIP3    H127347   4.205   1.800  14.419  0.3652  0.8457 -1.3701
 1952TIP3    H227348   4.106   1.914  14.423  0.3702  0.8008  0.5463
 1953TIP3   OH227349   2.214   4.340  12.967  0.0601  0.5682 -0.3608
 1953TIP3    H127350   2.222   4.319  12.874  1.0402  1.0378 -0.3905
 1953TIP3    H227351   2.284   4.290  13.009 -0.1849  0.5964  0.0959
 1954TIP3   OH227352   0.355   1.899   4.327  0.4506 -0.4091 -1.0664
 1954TIP3    H127353   0.303   1.819   4.317 -0.2568  0.1770 -2.3218
 1954TIP3    H227354   0.363   1.933   4.238  3.3357 -0.6591 -0.9902
 1955TIP3   OH227355   0.370   1.676   0.200  0.5942  0.2001 -0.0791
 1955TIP3    H127356   0.462   1.703   0.204  0.0430  2.1918  1.2444
 1955TIP3    H227357   0.333   1.729   0.129  0.2119  0.4241  0.2794
 1956TIP3   OH227358   0.729   2.375   3.362  0.0731  0.3725  0.2714
 1956TIP3    H127359   0.790   2.420   3.303 -2.3775  1.5161 -1.5446
 1956TIP3    H227360   0.683   2.445   3.408 -3.0222 -0.1247 -1.7765
 1957TIP3   OH227361   5.521   0.798   4.726  0.1064  0.5165  0.0410
 1957TIP3    H127362   5.427   0.788   4.734  0.1036  1.0020  0.6209
 1957TIP3    H227363   5.539   0.785   4.632 -0.5221  0.3850 -0.0614
 1958TIP3   OH227364   1.359   2.814  15.520 -0.0387 -0.4153  0.2506
 1958TIP3    H127365   1.413   2.740  15.548  2.0484  1.6415  2.1229
 1958TIP3    H227366   1.323   2.849  15.601 -2.2532 -0.2455 -0.7522
 1959TIP3   OH227367   2.206   0.306   2.409 -0.1069 -0.6623 -0.2465
 1959TIP3    H127368   2.114   0.300   2.437 -0.0221  1.4817  0.7258
 1959TIP3    H227369   2.210   0.389   2.361  1.3880 -0.5513  0.0345
 1960TIP3   OH227370   3.242   6.696  14.438 -0.4022 -0.1206 -0.0755
 1960TIP3    H127371   3.311   6.632  14.423 -0.6343 -0.7904  1.5095
 1960TIP3    H227372   3.174   6.674  14.375  1.3560  1.4700 -2.6947
 1961TIP3   OH227373   4.121   3.196  16.302 -0.9885  0.1624  0.3454
 1961TIP3    H127374   4.088   3.279  16.335  0.1543 -0.2487  2.7764
 1961TIP3    H227375   4.060   3.131  16.337 -0.5258 -0.1942  0.4945
 1962TIP3   OH227376   2.486   3.969  11.170 -0.1657 -0.2672  0.1712
 1962TIP3    H127377   2.492   4.037  11.238 -1.6757  1.4435 -1.3064
 1962TIP3    H227378   2.396   3.937  11.176 -0.4373  0.1626 -1.2147
 1963TIP3   OH227379   4.012   3.430   3.412  0.3718  0.5977 -0.1722
 1963TIP3    H127380   3.953   3.359   3.437 -0.2538  0.1208 -2.7349
 1963TIP3    H227381   4.003   3.494   3.483 -4.1211  1.0725 -0.8280
 1964TIP3   OH227382   2.334   4.725   1.726 -0.0194 -0.6392  0.2011
 1964TIP3    H127383   2.287   4.663   1.782 -2.0833 -1.4346 -2.2200
 1964TIP3    H227384   2.266   4.782   1.692  0.9095 -0.9591 -2.4044
 1965TIP3   OH227385   4.182   5.860  13.473 -0.1516 -0.4506 -0.1068
 1965TIP3    H127386   4.202   5.774  13.436  1.4743  0.0776 -0.5556
 1965TIP3    H227387   4.267   5.894  13.501 -0.8940  0.6262  0.9212
 1966TIP3   OH227388   5.146   4.141  13.636  0.0494  0.1288  0.1328
 1966TIP3    H127389   5.113   4.113  13.722 -1.2702 -0.5423 -0.5710
 1966TIP3    H227390   5.145   4.061  13.583  3.7701 -0.2137  0.2727
 1967TIP3   OH227391   4.882   6.264   0.978  0.6976 -0.1100 -0.0700
 1967TIP3    H127392   4.974   6.287   0.993  1.2146 -1.1345 -1.4282
 1967TIP3    H227393   4.867   6.287   0.886 -0.1253 -0.8286 -0.1212
 1968TIP3   OH227394   4.425   3.345  17.141 -0.3866  0.1210  0.6695
 1968TIP3    H127395   4.365   3.337  17.067  0.6677 -0.9553 -0.1149
 1968TIP3    H227396   4.510   3.362  17.101  0.4688 -1.8466  1.5089
 1969TIP3   OH227397   1.280   1.989  14.522  0.1898 -0.1615 -0.4448
 1969TIP3    H127398   1.340   1.937  14.575 -0.8303 -0.8573  0.0628
 1969TIP3    H227399   1.225   1.924  14.478  0.8370  0.4042 -2.1774
 1970TIP3   OH227400   1.629   0.895   0.808  0.4074 -0.2125  0.2131
 1970TIP3    H127401   1.647   0.810   0.847  3.7207  0.3596  0.2322
 1970TIP3    H227402   1.715   0.938   0.803 -0.9328  2.6096 -1.0225
 1971TIP3   OH227403   4.592   3.543  13.614  0.2222  0.3743 -1.0607
 1971TIP3    H127404   4.508   3.580  13.644  1.0570  0.9019  0.8014
 1971TIP3    H227405   4.602   3.463  13.665 -0.2012 -0.9505 -2.9786
 1972TIP3   OH227406   4.785   1.295   0.517 -0.0894 -0.4934 -0.3003
 1972TIP3    H127407   4.854   1.344   0.562 -0.2250  1.1721 -1.8203
 1972TIP3    H227408   4.711   1.297   0.578  0.0077  0.9738 -0.1907
 1973TIP3   OH227409   0.072   5.904   3.114  0.8429  0.4046  0.6204
 1973TIP3    H127410   0.110   5.907   3.202  0.4670  0.2888  0.7871
 1973TIP3    H227411  -0.007   5.851   3.124 -0.5095  2.3674  0.6904
 1974TIP3   OH227412   5.004   2.054   6.652 -0.0025  0.1410  0.8052
 1974TIP3    H127413   4.955   1.980   6.617  1.1427 -0.2694  0.0161
 1974TIP3    H227414   4.940   2.124   6.658 -0.1757  0.4771 -2.8003
 1975TIP3   OH227415   3.966   6.215   6.003  0.3877  0.6073  0.2088
 1975TIP3    H127416   4.005   6.216   6.091  0.1567  0.4726  0.3123
 1975TIP3    H227417   3.893   6.277   6.008  0.7157  1.0251 -0.0474
 1976TIP3   OH227418   0.813   3.104   4.603  0.2799  0.2255  0.4936
 1976TIP3    H127419   0.837   3.173   4.664 -0.2480  1.2906 -0.4618
 1976TIP3    H227420   0.874   3.032   4.622 -0.9888 -0.2046  3.4661
 1977TIP3   OH227421   2.012   2.702   5.067 -0.0457  0.2747  0.4237
 1977TIP3    H127422   2.031   2.671   4.979 -0.5425 -1.2668  0.8269
 1977TIP3    H227423   1.983   2.624   5.114  0.5444  0.9863  2.0522
 1978TIP3   OH227424   6.070   6.685  11.488  0.0150 -0.1830  0.6589
 1978TIP3    H127425   6.109   6.659  11.405 -0.7787 -1.7214  0.7227
 1978TIP3    H227426   6.110   6.626  11.553  2.4788  2.5904  1.8617
 1979TIP3   OH227427   6.037   2.593   5.416 -0.1659  0.0145 -0.0207
 1979TIP3    H127428   6.111   2.620   5.470  0.2364  1.8691 -1.4016
 1979TIP3    H227429   6.024   2.665   5.355 -1.8098 -1.1745 -1.1705
 1980TIP3   OH227430   5.042   5.163  14.173  0.4498  0.0278 -0.1228
 1980TIP3    H127431   5.035   5.128  14.262 -0.1944 -0.7992 -0.4805
 1980TIP3    H227432   5.050   5.085  14.117 -0.4423  0.4600 -0.8915
 1981TIP3   OH227433   0.125   3.439   1.922  0.6499 -0.8662 -0.2275
 1981TIP3    H127434   0.089   3.524   1.947  0.1433 -0.8474 -0.9940
 1981TIP3    H227435   0.195   3.459   1.861  1.7002 -0.9273  0.9099
 1982TIP3   OH227436   4.875   6.318   1.598  0.4676 -0.1832  0.2769
 1982TIP3    H127437   4.864   6.335   1.504 -0.9495  0.7226  0.5764
 1982TIP3    H227438   4.875   6.223   1.605 -0.8507 -0.2609 -0.5134
 1983TIP3   OH227439   4.054   4.681   2.370  0.1462 -0.5008 -0.2690
 1983TIP3    H127440   4.063   4.704   2.277 -1.7019 -1.8564 -0.8470
 1983TIP3    H227441   4.143   4.662   2.399  0.7543 -0.1060 -1.7735
 1984TIP3   OH227442   6.454   4.290   4.578  0.4299  0.3653  0.0880
 1984TIP3    H127443   6.538   4.325   4.608 -0.0720  0.6592  1.2228
 1984TIP3    H227444   6.407   4.267   4.658 -0.0063 -1.1928 -0.5656
 1985TIP3   OH227445   6.152   0.684  17.073  0.6865  0.4866  0.1413
 1985TIP3    H127446   6.240   0.692  17.109  0.7864  0.9323 -0.1833
 1985TIP3    H227447   6.144   0.758  17.013  0.6069 -0.3621 -0.9229
 1986TIP3   OH227448   4.112   6.031  11.014 -0.3430  0.3960 -0.0570
 1986TIP3    H127449   4.037   6.087  11.032  0.9498  1.7783  1.3503
 1986TIP3    H227450   4.184   6.092  10.996  0.4988 -0.8731 -1.1767
 1987TIP3   OH227451   5.413   6.192   1.557  0.7443 -0.0954  0.7566
 1987TIP3    H127452   5.471   6.238   1.617  0.5319 -1.4829  2.0938
 1987TIP3    H227453   5.412   6.102   1.589  0.1580 -0.7626 -1.0058
 1988TIP3   OH227454   6.373   6.461   0.321 -0.2559 -0.0511 -0.7785
 1988TIP3    H127455   6.295   6.506   0.289 -0.2925  0.4288 -0.0356
 1988TIP3    H227456   6.370   6.472   0.416  0.1649 -0.9296 -0.6515
 1989TIP3   OH227457   5.019   0.746   0.198  0.0015 -0.3342 -0.0595
 1989TIP3    H127458   4.998   0.822   0.145 -0.1315 -0.7891 -0.6813
 1989TIP3    H227459   5.112   0.730   0.180 -0.1041 -0.6363 -0.3662
 1990TIP3   OH227460   2.086   1.062  14.406  0.1565  0.3490  0.3530
 1990TIP3    H127461   2.125   1.060  14.319  0.8542 -0.6211  0.6696
 1990TIP3    H227462   2.083   0.970  14.434 -2.2229  0.3838  0.4313
 1991TIP3   OH227463   2.879   0.946  11.584 -0.2718  0.0072 -0.1062
 1991TIP3    H127464   2.787   0.954  11.560  0.2747  1.0456 -2.1022
 1991TIP3    H227465   2.879   0.935  11.679 -2.3888  1.2608  0.0883
 1992TIP3   OH227466   3.108   3.674  12.699 -0.1861 -0.0888  0.1980
 1992TIP3    H127467   3.187   3.620  12.699 -0.6450 -0.8002 -1.1302
 1992TIP3    H227468   3.063   3.652  12.781  0.3481 -0.6235  0.3545
 1993TIP3   OH227469   2.039   5.309   0.393 -0.1682  0.3147  0.2258
 1993TIP3    H127470   2.092   5.375   0.349 -0.4661 -0.3438 -1.2097
 1993TIP3    H227471   2.058   5.228   0.346 -0.8855 -0.3355  1.0161
 1994TIP3   OH227472   4.146   2.356   5.492  0.1305  0.0453  0.4145
 1994TIP3    H127473   4.231   2.366   5.534  0.4443  1.6040 -0.5115
 1994TIP3    H227474   4.148   2.266   5.457  1.2585 -0.0628  0.6978
 1995TIP3   OH227475   5.396   4.363   4.945  0.1189  0.2438  0.2913
 1995TIP3    H127476   5.338   4.401   4.878 -0.5527 -0.0686  0.6831
 1995TIP3    H227477   5.453   4.435   4.971  0.4974  0.3212 -0.7375
 1996TIP3   OH227478   2.729   6.423   0.683 -0.1500  0.3190 -0.7224
 1996TIP3    H127479   2.677   6.502   0.672 -1.5055 -0.6126 -1.2727
 1996TIP3    H227480   2.794   6.427   0.613 -0.1098  1.0247 -0.6439
 1997TIP3   OH227481   1.540   1.814   5.532 -0.9982  0.2899  0.3282
 1997TIP3    H127482   1.500   1.754   5.469  0.0988 -0.3271  0.1812
 1997TIP3    H227483   1.557   1.759   5.609  0.6517  0.1984 -0.0600
 1998TIP3   OH227484   0.122   0.542   4.965  0.1654  0.3237  1.0156
 1998TIP3    H127485   0.036   0.535   5.005 -0.7216  0.1693 -0.8455
 1998TIP3    H227486   0.107   0.584   4.880  1.3948 -2.5747 -0.8212
 1999TIP3   OH227487   3.880   4.887   2.693  0.6181  0.0647 -0.1124
 1999TIP3    H127488   3.815   4.834   2.646 -0.1832  0.1168  0.9101
 1999TIP3    H227489   3.830   4.958   2.731  1.7516  1.9166 -1.8872
 2000TIP3   OH227490   3.494   5.865   5.518 -0.0361  0.3934 -0.3873
 2000TIP3    H127491   3.431   5.875   5.590  1.0348  1.1850  0.4707
 2000TIP3    H227492   3.549   5.943   5.523  3.5626 -1.9966  1.4337
 2001TIP3   OH227493   1.944   5.708  15.498  0.4164  0.9311  0.4838
 2001TIP3    H127494   2.038   5.716  15.483  0.8789 -0.0151  2.5226
 2001TIP3    H227495   1.932   5.733  15.590 -1.3190  0.9644  0.2789
 2002TIP3   OH227496   1.538   6.171   2.330  0.0788  0.7679 -0.1197
 2002TIP3    H127497   1.478   6.208   2.266 -1.5530 -1.4378  0.0424
 2002TIP3    H227498   1.491   6.174   2.413  0.9833  0.8168  0.4133
 2003TIP3   OH227499   2.797   3.809  15.601 -0.7218  0.2839 -0.8498
 2003TIP3    H127500   2.743   3.730  15.594  1.6224 -1.5187  0.2600
 2003TIP3    H227501   2.836   3.820  15.515  0.2934 -0.8353 -0.5509
 2004TIP3   OH227502   6.335   0.574   4.145  0.2162  0.0867  0.0008
 2004TIP3    H127503   6.376   0.539   4.066 -0.7649 -0.9114 -0.0948
 2004TIP3    H227504   6.302   0.496   4.191 -1.2909  0.8131  0.2116
 2005TIP3   OH227505   5.848   5.040   2.936  0.5330  0.6090 -0.0289
 2005TIP3    H127506   5.830   5.134   2.939 -0.5220  0.4050  0.2025
 2005TIP3    H227507   5.768   5.001   2.902  1.1965 -0.1553 -0.7868
 2006TIP3   OH227508   0.181   4.567  12.917  0.9497  0.0920 -0.1877
 2006TIP3    H127509   0.237   4.490  12.929  0.0732 -0.4578  0.4919
 2006TIP3    H227510   0.205   4.600  12.830 -0.9765 -2.9418 -2.0671
 2007TIP3   OH227511   3.890   5.046   4.210  0.0271 -0.3184 -0.2395
 2007TIP3    H127512   3.949   5.067   4.282  0.8326  1.5411 -1.3807
 2007TIP3    H227513   3.806   5.083   4.236  0.1994 -0.0585 -0.0509
 2008TIP3   OH227514   4.488   0.078   2.917 -0.6106  0.2289 -0.4516
 2008TIP3    H127515   4.445   0.104   2.836  1.9962  1.6727 -1.4784
 2008TIP3    H227516   4.542   0.003   2.893  0.2644  0.7296 -0.1035
 2009TIP3   OH227517   2.279   6.309  13.973  0.3545  0.2250  0.4861
 2009TIP3    H127518   2.210   6.260  13.928  0.0399  0.9034  0.2095
 2009TIP3    H227519   2.360   6.271  13.940  0.1217  0.3154 -0.2300
 2010TIP3   OH227520   6.023   0.678   5.059  0.0926  0.4244  0.0625
 2010TIP3    H127521   5.997   0.714   4.974 -0.2379 -1.4023 -0.6547
 2010TIP3    H227522   5.955   0.707   5.120 -1.2171 -0.5502 -0.8897
 2011TIP3   OH227523   5.741   2.539   5.583 -0.2544 -0.1426  0.0663
 2011TIP3    H127524   5.827   2.525   5.542  0.1225  0.5584  0.5925
 2011TIP3    H227525   5.755   2.521   5.676 -0.6942 -0.0958  0.1451
 2012TIP3   OH227526   2.223   1.136  14.629  0.2153 -0.3423  0.5572
 2012TIP3    H127527   2.181   1.101  14.550 -0.3055 -1.4277  1.2833
 2012TIP3    H227528   2.225   1.230  14.615 -2.4735 -0.2038  0.4214
 2013TIP3   OH227529   3.436   2.222   0.582 -0.4441  0.0940  0.1468
 2013TIP3    H127530   3.473   2.253   0.499  1.8984  0.7680  1.3452
 2013TIP3    H227531   3.394   2.299   0.620  0.9467  0.5670  0.8097
 2014TIP3   OH227532   4.592   2.187   0.635  0.3755 -0.3132 -0.2682
 2014TIP3    H127533   4.522   2.251   0.650  0.5483 -0.2652  0.3666
 2014TIP3    H227534   4.553   2.123   0.574  0.2892  0.5199 -1.0990
 2015TIP3   OH227535   3.423   4.892   4.690 -0.3627 -0.0076 -0.1673
 2015TIP3    H127536   3.390   4.957   4.753  1.0402 -0.4155  1.0346
 2015TIP3    H227537   3.391   4.808   4.722  0.9423 -0.2962  0.4363
 2016TIP3   OH227538   2.728   1.660  15.401  0.0791 -0.2593  0.7297
 2016TIP3    H127539   2.662   1.619  15.344 -0.4139  3.2236 -1.4874
 2016TIP3    H227540   2.677   1.701  15.471  0.0471  0.8392  0.0733
 2017TIP3   OH227541   6.432   3.735  12.036 -0.3619 -0.1284 -0.3569
 2017TIP3    H127542   6.382   3.691  11.968  0.3528  0.1093 -1.0611
 2017TIP3    H227543   6.371   3.798  12.075 -1.7209 -2.3802  1.3811
 2018TIP3   OH227544   3.880   6.258  14.032  0.7328  0.0039  0.0812
 2018TIP3    H127545   3.957   6.312  14.049  0.1108  0.9477  0.0327
 2018TIP3    H227546   3.822   6.316  13.981 -0.4350 -0.3101  0.9967
 2019TIP3   OH227547   3.381   3.669  11.389  0.1751 -0.0234  0.5458
 2019TIP3    H127548   3.364   3.612  11.314 -0.6504 -0.4031  1.0117
 2019TIP3    H227549   3.303   3.663  11.442  1.1999 -0.6571  2.0393
 2020TIP3   OH227550   1.938   0.748  15.130 -0.4574  0.3525  0.2400
 2020TIP3    H127551   1.916   0.767  15.038 -1.8281 -0.3339  0.4067
 2020TIP3    H227552   1.988   0.824  15.158  1.4968 -0.1563 -1.5594
 2021TIP3   OH227553   1.482   3.574   5.959  0.4557 -0.3117  0.5763
 2021TIP3    H127554   1.452   3.509   5.895  1.3884 -0.0510 -0.1489
 2021TIP3    H227555   1.544   3.527   6.014  0.9583 -0.1089  0.1943
 2022TIP3   OH227556   3.624   2.554  14.186 -0.2278  0.0827 -0.5010
 2022TIP3    H127557   3.614   2.602  14.268  1.2479 -1.8378  0.8829
 2022TIP3    H227558   3.688   2.606  14.136 -0.0500  0.5167  0.1663
 2023TIP3   OH227559   0.180   1.054   3.707  0.2604 -0.4448  0.3296
 2023TIP3    H127560   0.099   1.106   3.708  0.7991  0.4301 -0.0448
 2023TIP3    H227561   0.163   0.986   3.642 -0.0650 -0.0530 -0.0096
 2024TIP3   OH227562   5.299   5.102   5.617  0.7023 -0.7174  0.3925
 2024TIP3    H127563   5.321   5.018   5.659  1.8996 -0.0821  1.1047
 2024TIP3    H227564   5.283   5.162   5.691  3.0721  0.4866  0.0324
 2025TIP3   OH227565   3.384   0.298  15.870  0.2669  0.0055  0.7514
 2025TIP3    H127566   3.381   0.355  15.947 -1.3965 -3.2993  3.3841
 2025TIP3    H227567   3.461   0.242  15.884  0.5797  0.0505 -0.6077
 2026TIP3   OH227568   0.757   6.684   5.717  0.5841 -0.4650 -0.0277
 2026TIP3    H127569   0.790   6.705   5.804  2.5526  0.1187 -0.8387
 2026TIP3    H227570   0.707   6.603   5.728  2.0011 -1.1971  1.4095
 2027TIP3   OH227571   2.625   3.949  15.780  0.4976 -0.6245  0.3203
 2027TIP3    H127572   2.558   3.894  15.820  1.5870 -1.2232  1.4071
 2027TIP3    H227573   2.697   3.889  15.760  0.9148  0.0796 -0.3505
 2028TIP3   OH227574   2.062   2.807   5.339 -0.1696 -0.3678 -0.2588
 2028TIP3    H127575   2.050   2.745   5.266  1.0067 -0.3475 -0.4815
 2028TIP3    H227576   2.120   2.874   5.304  0.3616 -0.3209  0.6820
 2029TIP3   OH227577   3.268   1.075  12.363 -1.2194 -0.4318 -0.0227
 2029TIP3    H127578   3.192   1.132  12.369 -1.6210 -1.0461  1.0568
 2029TIP3    H227579   3.238   1.001  12.310 -0.8640  0.0817 -0.9632
 2030TIP3   OH227580   0.408   5.858  11.686  0.1681 -0.6641 -0.2287
 2030TIP3    H127581   0.433   5.874  11.595 -1.0938 -0.3985 -0.5390
 2030TIP3    H227582   0.315   5.838  11.683 -0.5541  1.9388  1.2685
 2031TIP3   OH227583   1.449   5.797   4.928  0.6858 -0.5282 -0.0961
 2031TIP3    H127584   1.459   5.762   5.017 -0.4871 -0.6686 -0.0040
 2031TIP3    H227585   1.468   5.890   4.937 -0.0993 -0.4113  0.4459
 2032TIP3   OH227586   4.703   6.637   3.388  0.1417  0.0449  0.4873
 2032TIP3    H127587   4.685   6.624   3.295  0.8215  0.8304  0.2225
 2032TIP3    H227588   4.619   6.625   3.431  0.1482 -2.1524 -0.0023
 2033TIP3   OH227589   3.038   5.747   2.145  0.4729 -0.2081 -0.4986
 2033TIP3    H127590   2.980   5.675   2.169  1.2802 -0.3818  1.0775
 2033TIP3    H227591   3.059   5.790   2.228  3.9702 -1.2442 -0.6469
 2034TIP3   OH227592   1.276   2.096  14.268  0.1416 -0.0971  0.1066
 2034TIP3    H127593   1.325   2.076  14.348  0.7645  1.8200  0.2644
 2034TIP3    H227594   1.317   2.176  14.234 -1.0125 -0.0860 -1.3630
 2035TIP3   OH227595   2.869   0.583  11.400 -0.1697 -0.4575 -0.3439
 2035TIP3    H127596   2.928   0.656  11.414 -1.8993  1.1637 -1.0537
 2035TIP3    H227597   2.892   0.519  11.468 -0.0879  1.7130  1.7893
 2036TIP3   OH227598   6.149   0.912  12.689  0.0778  0.2924 -0.6153
 2036TIP3    H127599   6.065   0.940  12.652 -1.1102  0.5529  1.9906
 2036TIP3    H227600   6.154   0.958  12.773  2.0084 -1.0473  0.0724
 2037TIP3   OH227601   2.820   5.824  13.503 -0.0265  0.2137 -0.5616
 2037TIP3    H127602   2.886   5.802  13.438  0.9121  0.5942  0.2213
 2037TIP3    H227603   2.747   5.765  13.486  0.9044 -0.8810 -0.8578
 2038TIP3   OH227604   5.553   3.784  15.345  0.6525  0.0312 -0.3153
 2038TIP3    H127605   5.642   3.818  15.355 -0.2551  2.1840  1.2745
 2038TIP3    H227606   5.497   3.862  15.350 -1.4057 -1.4059  0.1910
 2039TIP3   OH227607   2.896   2.617  16.304  0.2108 -0.0663 -0.3243
 2039TIP3    H127608   2.856   2.702  16.288  2.5651  1.0210 -0.9490
 2039TIP3    H227609   2.836   2.573  16.364 -0.6084  2.4577  0.8638
 2040TIP3   OH227610   5.108   5.562  12.997 -0.4219 -0.0681  0.0441
 2040TIP3    H127611   5.196   5.583  13.030 -1.2025  0.0744  2.1983
 2040TIP3    H227612   5.123   5.530  12.908  1.9005 -0.7620  0.6104
 2041TIP3   OH227613   1.031   0.039   4.632  0.4575  0.1873  0.0309
 2041TIP3    H127614   1.004   0.027   4.541 -0.1250  0.7732  0.1155
 2041TIP3    H227615   0.954   0.012   4.683  0.5018  0.5981  0.3183
 2042TIP3   OH227616   1.231   3.304  11.366  0.1127 -0.4321 -0.5944
 2042TIP3    H127617   1.201   3.372  11.305 -0.0948  1.1249  1.1491
 2042TIP3    H227618   1.157   3.242  11.370 -0.5483  0.3332 -0.6641
 2043TIP3   OH227619   2.799   4.832   0.116  0.1495  0.0957  0.1273
 2043TIP3    H127620   2.779   4.740   0.133  1.6539  0.1768  2.9654
 2043TIP3    H227621   2.747   4.854   0.039  0.7610 -3.4636 -1.4956
 2044TIP3   OH227622   6.101   1.452   0.808  0.3956  0.0649  0.1756
 2044TIP3    H127623   6.070   1.483   0.723  0.9493 -1.0514 -0.4533
 2044TIP3    H227624   6.193   1.431   0.794  0.6685  0.4910  1.2393
 2045TIP3   OH227625   4.108   5.900   4.800 -0.0240  0.1467  0.2500
 2045TIP3    H127626   4.199   5.918   4.774  0.4438 -2.0791  0.1448
 2045TIP3    H227627   4.067   5.986   4.803  1.9903  1.1907 -0.0678
 2046TIP3   OH227628   2.408   3.096  12.734  0.0833  1.0389 -0.1867
 2046TIP3    H127629   2.482   3.041  12.706 -0.2998  1.3977 -2.0225
 2046TIP3    H227630   2.331   3.043  12.714 -0.2198  0.9763  1.0349
 2047TIP3   OH227631   5.498   6.175  13.719 -0.1047  0.2710  0.1985
 2047TIP3    H127632   5.501   6.236  13.793 -1.3520  0.2521  0.2844
 2047TIP3    H227633   5.411   6.136  13.724  0.2744 -0.6918 -0.5241
 2048TIP3   OH227634   3.004   6.336  16.203 -0.1164 -0.3768  0.0321
 2048TIP3    H127635   2.953   6.382  16.135 -0.6402 -0.0076  0.6652
 2048TIP3    H227636   3.092   6.371  16.194 -0.5001  0.7481  0.4799
 2049TIP3   OH227637   1.323   5.592  11.241 -0.0090 -0.4551 -0.6318
 2049TIP3    H127638   1.254   5.658  11.241 -0.2602 -0.6327  1.6298
 2049TIP3    H227639   1.403   5.641  11.220 -0.3674  0.3474 -0.1597
 2050TIP3   OH227640   4.259   3.604  15.711  0.4189 -0.2758 -0.2091
 2050TIP3    H127641   4.236   3.639  15.625  0.8379 -1.4958 -0.8421
 2050TIP3    H227642   4.285   3.681  15.762  0.7752  0.3946 -1.3745
 2051TIP3   OH227643   0.402   6.785   4.738  0.3250  0.0053 -0.0601
 2051TIP3    H127644   0.395   6.840   4.816 -0.4278  0.4477 -0.4320
 2051TIP3    H227645   0.338   6.715   4.752 -0.2419  0.4153 -0.5350
 2052TIP3   OH227646   0.387   1.315  13.974  0.1085 -0.7018  0.0059
 2052TIP3    H127647   0.293   1.301  13.987  0.2840 -0.8634  1.1452
 2052TIP3    H227648   0.414   1.369  14.048  0.9805 -0.9180 -0.1407
 2053TIP3   OH227649   6.553   6.137   1.123  0.1861 -0.1125  0.5993
 2053TIP3    H127650   6.608   6.077   1.172  2.5569  2.4671  1.3559
 2053TIP3    H227651   6.569   6.114   1.031  3.3503  1.0375  0.7302
 2054TIP3   OH227652   4.629   5.985   1.258 -0.0837  0.4682  0.1201
 2054TIP3    H127653   4.551   5.953   1.304 -0.4903 -0.8880 -1.4298
 2054TIP3    H227654   4.695   5.918   1.273  1.5230  2.4782  3.0316
 2055TIP3   OH227655   0.429   4.108   4.270  0.0559 -0.2172 -0.2121
 2055TIP3    H127656   0.370   4.108   4.345 -2.0976 -1.8479 -1.7966
 2055TIP3    H227657   0.468   4.020   4.269  0.2734 -0.1245 -0.8454
 2056TIP3   OH227658   5.191   6.795   3.074 -0.2880  0.7281 -0.1992
 2056TIP3    H127659   5.129   6.743   3.123  0.4875  1.1615  1.2995
 2056TIP3    H227660   5.159   6.885   3.082  0.4988  0.9519  0.5717
 2057TIP3   OH227661   4.305   3.960  11.686  0.1808 -0.3536 -1.4908
 2057TIP3    H127662   4.266   3.892  11.632 -1.6062 -1.0450  0.5615
 2057TIP3    H227663   4.342   3.914  11.761 -3.2358  0.9072  1.2467
 2058TIP3   OH227664   5.808   3.692  10.906 -0.1364  0.8960 -0.5008
 2058TIP3    H127665   5.780   3.604  10.884 -0.3721  0.2546  2.0721
 2058TIP3    H227666   5.795   3.699  11.001 -0.9881  4.0107 -0.7197
 2059TIP3   OH227667   3.125   1.920   3.271 -0.2518 -0.1535 -0.1684
 2059TIP3    H127668   3.198   1.949   3.326  1.8263 -2.9553 -1.1654
 2059TIP3    H227669   3.104   1.833   3.305 -0.4314 -1.0155 -2.3224
 2060TIP3   OH227670   4.385   4.241  11.235 -0.0457 -0.1945  0.1994
 2060TIP3    H127671   4.444   4.301  11.190 -0.5539 -0.1141 -0.3769
 2060TIP3    H227672   4.442   4.176  11.275  0.5577  0.9211  1.2332
 2061TIP3   OH227673   1.791   1.196  13.151  0.3757  0.5636 -0.2217
 2061TIP3    H127674   1.770   1.199  13.244  3.6562  1.9473  0.6266
 2061TIP3    H227675   1.816   1.286  13.130 -0.9347  0.4466 -2.6848
 2062TIP3   OH227676   2.246   1.677  12.360  0.2883  0.2385  0.0937
 2062TIP3    H127677   2.168   1.622  12.357 -0.7581  1.6432  0.3876
 2062TIP3    H227678   2.244   1.727  12.279  2.0109 -1.1339 -0.8438
 2063TIP3   OH227679   2.933   3.504  15.497  0.4531  0.5766 -0.1647
 2063TIP3    H127680   2.974   3.574  15.548  1.2585  0.3294 -0.4443
 2063TIP3    H227681   2.979   3.507  15.412  0.0746  0.1079 -0.3882
 2064TIP3   OH227682   0.288   6.677   2.760  0.1360  0.1303  0.5556
 2064TIP3    H127683   0.226   6.739   2.721 -1.9816 -0.7276  2.2822
 2064TIP3    H227684   0.289   6.603   2.700 -2.7863 -1.0191  1.7264
 2065TIP3   OH227685   5.743   1.451   4.362  0.2789  0.1204  0.0584
 2065TIP3    H127686   5.746   1.537   4.321  0.1623  0.2352  0.2906
 2065TIP3    H227687   5.715   1.468   4.452  1.3365 -0.0390  0.4320
 2066TIP3   OH227688   3.152   6.670   2.992 -0.1672 -0.2960 -0.0329
 2066TIP3    H127689   3.130   6.699   3.080 -1.0777  0.3816 -0.4687
 2066TIP3    H227690   3.069   6.640   2.955 -0.1826  1.2381 -1.3311
 2067TIP3   OH227691   3.740   2.144   0.483 -0.5186  0.3601  0.3182
 2067TIP3    H127692   3.767   2.185   0.565 -0.5373  1.4903 -0.2271
 2067TIP3    H227693   3.657   2.102   0.504 -1.4089  2.1169  0.4678
 2068TIP3   OH227694   1.045   3.384  10.720 -0.2962 -0.8879  0.1167
 2068TIP3    H127695   0.984   3.391  10.793  1.5379  1.6369  1.6064
 2068TIP3    H227696   1.020   3.455  10.660 -0.6242 -1.7364 -0.7732
 2069TIP3   OH227697   3.987   5.673   0.932 -0.0866 -0.2066  0.1555
 2069TIP3    H127698   3.943   5.745   0.887  0.3163  0.5110  0.8784
 2069TIP3    H227699   3.921   5.637   0.991 -0.3964 -0.6713 -0.4688
 2070TIP3   OH227700   3.900   4.092   6.225 -0.4852  0.2170 -0.2969
 2070TIP3    H127701   3.985   4.071   6.185  0.4262 -1.3826  2.2454
 2070TIP3    H227702   3.853   4.009   6.226 -0.6149  0.2730  1.4935
 2071TIP3   OH227703   1.338   1.085   0.296 -0.1359 -0.0925 -0.1699
 2071TIP3    H127704   1.324   1.032   0.374  0.6531 -2.2243 -1.4050
 2071TIP3    H227705   1.432   1.077   0.278 -0.5407 -0.9824 -2.1929
 2072TIP3   OH227706   3.601   1.164   1.349  0.0239  0.4574  0.1178
 2072TIP3    H127707   3.590   1.073   1.320 -1.2799  1.0314 -1.3269
 2072TIP3    H227708   3.695   1.172   1.366  0.1033 -1.2497  0.6428
 2073TIP3   OH227709   2.452   0.865   4.864  0.0861 -0.6490  0.3300
 2073TIP3    H127710   2.402   0.813   4.800 -0.3004 -2.1238  1.7733
 2073TIP3    H227711   2.392   0.877   4.937  0.8677  0.1594  0.8555
 2074TIP3   OH227712   4.171   5.200   4.183  0.2117  0.0635 -0.2260
 2074TIP3    H127713   4.124   5.205   4.266  3.2590 -0.5000  1.6990
 2074TIP3    H227714   4.181   5.106   4.167  1.2832  0.1558 -0.1729
 2075TIP3   OH227715   2.590   5.635   0.030  0.4444  0.1645  0.4430
 2075TIP3    H127716   2.563   5.556   0.077  0.9066  0.4499  1.2197
 2075TIP3    H227717   2.565   5.707   0.089  0.5615  0.5618  0.0101
 2076TIP3   OH227718   3.218   4.998   0.893 -0.2180 -0.2148 -0.2483
 2076TIP3    H127719   3.310   5.022   0.903 -0.2221  0.2650 -1.2731
 2076TIP3    H227720   3.219   4.906   0.866 -0.0894 -0.4979  0.6792
 2077TIP3   OH227721   3.343   1.137  11.980  0.6023  0.3085 -0.3534
 2077TIP3    H127722   3.430   1.176  11.977  0.8217  0.3789  3.1705
 2077TIP3    H227723   3.299   1.178  12.055 -1.5113 -1.5577 -0.4222
 2078TIP3   OH227724   6.010   4.748  15.918 -0.0674 -0.3507  0.8760
 2078TIP3    H127725   5.916   4.732  15.921 -0.4307  1.3789 -0.1761
 2078TIP3    H227726   6.042   4.724  16.005 -1.5237 -0.6605  1.3401
 2079TIP3   OH227727   3.283   0.579  11.862 -0.0817  0.5884  0.4938
 2079TIP3    H127728   3.258   0.651  11.920 -0.7411  0.6913  0.0898
 2079TIP3    H227729   3.235   0.503  11.896 -0.5273  0.6644  0.0425
 2080TIP3   OH227730   0.048   5.772   0.852  0.4824 -0.1914  0.7560
 2080TIP3    H127731  -0.027   5.817   0.889 -0.5541  0.7483 -2.2533
 2080TIP3    H227732   0.013   5.689   0.819  0.4556  0.6397 -1.4886
 2081TIP3   OH227733   4.895   4.201   4.196 -0.3083 -0.2340 -0.7189
 2081TIP3    H127734   4.812   4.232   4.233  0.8475  0.6394  1.3507
 2081TIP3    H227735   4.910   4.117   4.240 -0.6259 -0.9740 -1.9733
 2082TIP3   OH227736   0.621   5.372   0.152 -0.1709  0.2123  0.4237
 2082TIP3    H127737   0.587   5.458   0.178  0.1455 -0.1249  2.1226
 2082TIP3    H227738   0.693   5.391   0.092 -0.5584  1.1042  0.2332
 2083TIP3   OH227739   0.537   6.280   3.600 -0.1030  0.8115  0.3821
 2083TIP3    H127740   0.510   6.296   3.691 -1.5288  0.7435 -0.0179
 2083TIP3    H227741   0.623   6.237   3.609  0.2590  1.7330  1.6561
 2084TIP3   OH227742   6.094   5.640  15.206  0.0350 -0.5754  0.2016
 2084TIP3    H127743   6.014   5.692  15.206  0.6996  0.5578 -1.8452
 2084TIP3    H227744   6.165   5.703  15.212  0.8249 -1.3191 -0.7837
 2085TIP3   OH227745   3.714   1.025  12.913  0.7572 -0.0620  0.2963
 2085TIP3    H127746   3.716   0.935  12.944  1.0424  0.8521  3.2394
 2085TIP3    H227747   3.795   1.064  12.945 -1.0903  2.2232  2.6620
 2086TIP3   OH227748   2.356   2.030   3.547 -0.4103  0.0290 -0.2752
 2086TIP3    H127749   2.312   2.094   3.603  1.3493  0.2252  0.9678
 2086TIP3    H227750   2.299   1.953   3.550 -1.3054  0.6955  0.2284
 2087TIP3   OH227751   3.513   0.294  12.315  0.0022 -0.8537 -0.6648
 2087TIP3    H127752   3.456   0.348  12.370 -2.1585 -0.5004 -3.1078
 2087TIP3    H227753   3.541   0.352  12.244 -0.2768 -2.2327 -1.9466
 2088TIP3   OH227754   1.949   4.649   2.853  0.0258  0.3809  0.0659
 2088TIP3    H127755   1.959   4.618   2.764  0.6976 -1.5698  0.7713
 2088TIP3    H227756   1.867   4.699   2.853 -0.1657  0.0954 -1.5276
 2089TIP3   OH227757   5.678   0.422   4.665 -0.5882  0.2438 -0.2415
 2089TIP3    H127758   5.773   0.436   4.661 -0.3883 -0.8344  0.3540
 2089TIP3    H227759   5.663   0.346   4.609 -0.9341 -0.3283  0.6158
 2090TIP3   OH227760   1.677   3.456   4.415  0.1990  0.2156  0.0630
 2090TIP3    H127761   1.627   3.507   4.479  0.4942  1.5369 -0.7340
 2090TIP3    H227762   1.667   3.365   4.445 -0.0331  0.7499  1.7209
 2091TIP3   OH227763   3.433   4.885   0.484  0.0020 -0.1909 -0.1979
 2091TIP3    H127764   3.363   4.895   0.548 -0.2372 -0.3210 -0.4372
 2091TIP3    H227765   3.394   4.833   0.414  1.0716 -2.4513  0.7935
 2092TIP3   OH227766   6.195   3.863  16.465 -0.4505 -0.2223  0.2546
 2092TIP3    H127767   6.212   3.956  16.484  0.8396 -0.7476  1.9088
 2092TIP3    H227768   6.159   3.863  16.376 -0.6052  1.8691  0.2701
 2093TIP3   OH227769   5.293   3.389   3.888 -0.3941 -0.4517  0.1305
 2093TIP3    H127770   5.343   3.371   3.967 -2.1689 -1.2736  1.1138
 2093TIP3    H227771   5.234   3.460   3.912 -1.3269 -1.0682 -0.2569
 2094TIP3   OH227772   2.144   0.103  12.302 -0.0084 -0.4563  0.1249
 2094TIP3    H127773   2.062   0.151  12.287 -0.1341 -0.9535 -0.8972
 2094TIP3    H227774   2.211   0.172  12.308 -0.5552 -0.0096  1.5910
 2095TIP3   OH227775   3.031   6.263  14.235  0.0867  0.5067  0.1664
 2095TIP3    H127776   2.942   6.297  14.225 -0.6401 -1.3141  0.0777
 2095TIP3    H227777   3.066   6.309  14.311 -1.0722  0.9438  0.4491
 2096TIP3   OH227778   2.429   3.359  13.703  0.4573 -0.1365 -0.4673
 2096TIP3    H127779   2.429   3.304  13.624  0.4515  0.9828 -1.2588
 2096TIP3    H227780   2.495   3.426  13.685 -1.1957  1.5515 -0.5383
 2097TIP3   OH227781   5.372   1.111   5.250  0.1005 -0.4822 -0.1303
 2097TIP3    H127782   5.449   1.094   5.197  0.4535 -0.6574  0.4293
 2097TIP3    H227783   5.302   1.058   5.210 -0.0059  0.4659 -1.2613
 2098TIP3   OH227784   5.015   2.881  14.971 -0.1441 -0.4386 -0.2144
 2098TIP3    H127785   5.043   2.865  14.881  1.0373 -0.6770  0.1718
 2098TIP3    H227786   4.958   2.808  14.992 -1.2507  0.1394 -1.0808
 2099TIP3   OH227787   2.781   2.185  17.195  0.2224  0.4991  0.7805
 2099TIP3    H127788   2.823   2.247  17.135  0.1296  0.0792  0.2742
 2099TIP3    H227789   2.756   2.238  17.271  1.4484  0.8148  0.9924
 2100TIP3   OH227790   1.586   6.271   5.036 -0.0226 -0.4777 -0.3683
 2100TIP3    H127791   1.641   6.210   5.084 -1.0872 -0.7563  0.5400
 2100TIP3    H227792   1.527   6.216   4.985 -2.0138 -0.3326  1.6105
 2101TIP3   OH227793   1.921   5.399  14.389  0.4380  0.8090  0.0738
 2101TIP3    H127794   1.914   5.418  14.296  0.3384  0.7201  0.0623
 2101TIP3    H227795   1.976   5.469  14.424  1.2962  0.2947 -0.2239
 2102TIP3   OH227796   0.250   5.148  14.428  0.6699 -0.5798 -0.2993
 2102TIP3    H127797   0.169   5.149  14.480 -0.5844 -0.7796 -2.1571
 2102TIP3    H227798   0.285   5.236  14.437  0.4371 -0.5787  0.7764
 2103TIP3   OH227799   3.494   6.654   3.385 -0.0807 -0.3568 -0.0732
 2103TIP3    H127800   3.474   6.572   3.430 -0.0043  0.1098  0.8515
 2103TIP3    H227801   3.421   6.668   3.326  0.1699 -1.3605 -0.6408
 2104TIP3   OH227802   5.855   6.143  17.047 -0.7972  0.8264  0.2373
 2104TIP3    H127803   5.829   6.130  16.955 -2.1711  1.5628  0.5002
 2104TIP3    H227804   5.782   6.109  17.098 -0.2655  0.9013  1.0705
 2105TIP3   OH227805   3.190   6.364  14.858 -0.3160  0.4276 -0.4096
 2105TIP3    H127806   3.261   6.332  14.914 -1.6576 -0.8952  0.6369
 2105TIP3    H227807   3.210   6.457  14.844  1.0193  0.3557  0.7712
 2106TIP3   OH227808   0.305   4.018  15.054  0.5134 -0.0996 -0.9578
 2106TIP3    H127809   0.320   3.948  15.118 -0.4002 -0.5358 -1.2043
 2106TIP3    H227810   0.211   4.012  15.034  0.5384  0.8434 -1.3970
 2107TIP3   OH227811   5.537   2.773  11.054 -0.0716  0.6305  0.4981
 2107TIP3    H127812   5.481   2.844  11.024 -0.3455  0.2674  0.1418
 2107TIP3    H227813   5.599   2.758  10.983 -0.4023  0.1101  0.3068
 2108TIP3   OH227814   3.753   2.280  11.444  0.4757 -0.6103  0.2662
 2108TIP3    H127815   3.759   2.353  11.382  0.6997 -0.0200  0.9565
 2108TIP3    H227816   3.668   2.291  11.486  0.6717 -0.5067  0.6480
 2109TIP3   OH227817   0.423   0.892  14.867  0.4376  0.1963 -0.0516
 2109TIP3    H127818   0.509   0.850  14.871  0.5399  0.3153 -0.8335
 2109TIP3    H227819   0.414   0.937  14.950  1.0185 -0.0417  0.1428
 2110TIP3   OH227820   1.437   2.009   0.946  0.3239  0.1587  0.2581
 2110TIP3    H127821   1.426   2.030   0.853  0.2250 -0.5865  0.1020
 2110TIP3    H227822   1.356   1.967   0.971 -0.5137  2.2040  1.2320
 2111TIP3   OH227823   4.923   2.084   6.317  0.3863  0.2729 -0.0028
 2111TIP3    H127824   4.907   2.172   6.350  1.1948  1.0260 -1.4964
 2111TIP3    H227825   4.943   2.032   6.394  0.2195  1.4762  0.8713
 2112TIP3   OH227826   3.901   6.474  14.919 -0.2475 -0.1200  0.1952
 2112TIP3    H127827   3.965   6.514  14.978 -0.6053 -0.2661  0.6905
 2112TIP3    H227828   3.883   6.542  14.854  0.8443 -0.2846 -0.2961
 2113TIP3   OH227829   3.650   2.025  10.784 -1.0306  0.0496  0.1346
 2113TIP3    H127830   3.660   1.970  10.861 -0.1156 -0.7185 -0.5128
 2113TIP3    H227831   3.618   1.966  10.716 -0.3660  0.3791 -0.4761
 2114TIP3   OH227832   5.676   1.835  15.621  0.5423 -0.2741  0.4984
 2114TIP3    H127833   5.644   1.921  15.597  0.3914 -0.6535 -0.7295
 2114TIP3    H227834   5.716   1.847  15.707  1.6848  1.3003 -0.2062
 2115TIP3   OH227835   1.039   2.968  12.909 -0.4411  0.2001  0.3071
 2115TIP3    H127836   1.076   3.042  12.860  0.4898  0.0534  0.7519
 2115TIP3    H227837   0.972   2.931  12.852 -1.7962  2.1230  0.5618
 2116TIP3   OH227838   0.906   6.632  14.447  0.0861  0.7582  0.0736
 2116TIP3    H127839   0.949   6.717  14.450  1.1479  0.3491 -1.7336
 2116TIP3    H227840   0.975   6.570  14.472 -0.2001  0.3224 -0.1982
 2117TIP3   OH227841   3.093   4.029  12.674  0.4662 -0.4623 -0.0135
 2117TIP3    H127842   3.018   4.089  12.672  1.1676  0.4847  1.1594
 2117TIP3    H227843   3.083   3.977  12.594 -0.9006  0.2958 -0.3799
 2118TIP3   OH227844   3.984   2.437   0.689  0.3296 -0.1964 -0.6903
 2118TIP3    H127845   4.062   2.480   0.654  1.0129 -0.3944  0.5253
 2118TIP3    H227846   3.990   2.450   0.783 -1.1562 -0.1672 -0.5843
 2119TIP3   OH227847   5.735   2.775  14.534  0.5028 -0.0738  0.1824
 2119TIP3    H127848   5.684   2.801  14.611  1.3872 -1.5152  1.2953
 2119TIP3    H227849   5.679   2.712  14.488  0.7976 -0.7907  0.7882
 2120TIP3   OH227850   6.292   0.734   1.068  0.2006  0.0601 -0.5421
 2120TIP3    H127851   6.234   0.764   1.138  1.6613 -0.2667  0.8783
 2120TIP3    H227852   6.234   0.699   1.001 -1.2297 -0.3561  0.8688
 2121TIP3   OH227853   6.520   6.401   3.266 -0.6960 -0.2735 -0.3185
 2121TIP3    H127854   6.450   6.370   3.324 -1.7895  0.5043 -1.1751
 2121TIP3    H227855   6.503   6.356   3.183  2.0137 -2.9175  0.4137
 2122TIP3   OH227856   1.683   1.832   6.062 -0.2203  0.4309 -0.2869
 2122TIP3    H127857   1.662   1.887   6.138 -1.4757  0.2456 -0.4679
 2122TIP3    H227858   1.611   1.848   6.001 -0.7903 -1.6035 -0.2322
 2123TIP3   OH227859   1.649   1.589   4.552  0.1974  0.2279 -0.3584
 2123TIP3    H127860   1.587   1.595   4.479 -1.0086 -2.0337  0.3788
 2123TIP3    H227861   1.601   1.621   4.628  0.4292 -0.1316 -0.0533
 2124TIP3   OH227862   5.148   2.037  13.367 -0.8239 -0.4230  0.8606
 2124TIP3    H127863   5.076   2.084  13.408 -0.7670  2.7550 -2.2017
 2124TIP3    H227864   5.225   2.092  13.383 -0.2690 -0.6557 -0.8320
 2125TIP3   OH227865   4.693   3.409   4.208 -0.0474 -0.5551 -0.1041
 2125TIP3    H127866   4.606   3.441   4.186 -0.2981 -1.2387 -0.1170
 2125TIP3    H227867   4.724   3.468   4.277 -1.8768 -2.2874  2.3442
 2126TIP3   OH227868   0.907   0.373  13.346 -1.0110  0.0872  0.1850
 2126TIP3    H127869   0.828   0.326  13.317  1.0161 -2.3303 -1.9432
 2126TIP3    H227870   0.929   0.333  13.430 -1.9240  0.6463  0.7020
 2127TIP3   OH227871   2.553   2.307   2.784  0.0532  0.2631 -0.2016
 2127TIP3    H127872   2.542   2.402   2.792 -0.2465  0.3304 -1.2704
 2127TIP3    H227873   2.637   2.296   2.739 -0.8033  0.1099 -1.8380
 2128TIP3   OH227874   0.722   6.703  14.653  0.3363 -0.5010 -0.6908
 2128TIP3    H127875   0.797   6.710  14.594  1.7436 -0.1976  1.0572
 2128TIP3    H227876   0.691   6.793  14.662 -0.0809 -0.5905 -1.2064
 2129TIP3   OH227877   2.725   6.712  15.194  0.1171 -0.4302  0.9639
 2129TIP3    H127878   2.667   6.749  15.260  1.9682  0.3628  2.2196
 2129TIP3    H227879   2.788   6.782  15.175  1.3258 -1.6080  0.4797
 2130TIP3   OH227880   3.567   6.407   6.115 -0.3532 -0.0127  0.1458
 2130TIP3    H127881   3.620   6.430   6.038  0.6911  0.2938  0.9258
 2130TIP3    H227882   3.524   6.489   6.140 -0.3341 -0.0077  0.1610
 2131TIP3   OH227883   6.112   2.844  15.937 -0.4921 -0.0079 -0.5535
 2131TIP3    H127884   6.134   2.823  15.846 -1.1755  0.3842 -0.8252
 2131TIP3    H227885   6.019   2.823  15.944 -0.6343  0.7058 -0.1793
 2132TIP3   OH227886   0.564   6.542   4.447 -0.0189 -0.2449  0.3092
 2132TIP3    H127887   0.625   6.507   4.512  0.5528 -2.5517 -1.3296
 2132TIP3    H227888   0.616   6.605   4.397  1.2372 -2.4137 -1.2742
 2133TIP3   OH227889   3.377   1.087   0.006 -0.1242  0.2338 -0.0987
 2133TIP3    H127890   3.286   1.095   0.035  0.1101 -0.2953  0.7946
 2133TIP3    H227891   3.420   1.036   0.074  1.1013  1.3694  0.0142
 2134TIP3   OH227892   6.245   5.063   4.248  0.4136 -0.1762 -0.2448
 2134TIP3    H127893   6.157   5.076   4.212  0.6717 -2.7849 -2.0617
 2134TIP3    H227894   6.302   5.113   4.189  0.1835  2.6303  1.6917
 2135TIP3   OH227895   3.064   0.017  15.707  0.4630  0.1979 -0.3977
 2135TIP3    H127896   3.034  -0.040  15.636  0.3882  2.3104 -2.1711
 2135TIP3    H227897   2.999   0.087  15.711  0.3339  0.0511  1.9750
 2136TIP3   OH227898   1.743   0.148   4.046 -0.3223 -0.2675 -0.3658
 2136TIP3    H127899   1.762   0.238   4.072  2.8670 -1.2718  1.3747
 2136TIP3    H227900   1.679   0.117   4.109  1.7753 -0.4019  1.8383
 2137TIP3   OH227901   5.843   4.925   0.997 -1.3657 -0.1324  0.4413
 2137TIP3    H127902   5.937   4.939   1.003 -1.3007 -0.9287  2.0720
 2137TIP3    H227903   5.833   4.846   0.944 -1.0371 -0.6213  1.0917
 2138TIP3   OH227904   4.649   5.034  16.640  0.1436  0.0118  0.1241
 2138TIP3    H127905   4.602   4.981  16.575  0.3043  1.0498 -0.8708
 2138TIP3    H227906   4.709   5.088  16.588  0.2878  0.8608  1.1432
 2139TIP3   OH227907   0.603   1.822   4.971 -0.4254  0.1906  0.8497
 2139TIP3    H127908   0.670   1.879   5.008  1.4040  0.1959 -2.1769
 2139TIP3    H227909   0.538   1.882   4.933  0.8760  0.3571 -1.2552
 2140TIP3   OH227910   2.468   5.311  16.629 -0.9305  0.0091 -0.1041
 2140TIP3    H127911   2.549   5.312  16.579 -0.8397 -1.4555 -0.0263
 2140TIP3    H227912   2.408   5.368  16.580  0.0924  1.0260 -0.2107
 2141TIP3   OH227913   1.114   3.192  12.770 -0.0753  0.3769  0.0155
 2141TIP3    H127914   1.185   3.244  12.807 -0.3647  0.6194  0.2262
 2141TIP3    H227915   1.046   3.255  12.748 -0.8880 -0.0140  1.3150
 2142TIP3   OH227916   3.616   3.403   5.873 -0.3948 -0.6778  0.2102
 2142TIP3    H127917   3.652   3.353   5.800  1.9761  0.7547  0.3027
 2142TIP3    H227918   3.618   3.343   5.947 -1.2799 -1.6197 -0.4953
 2143TIP3   OH227919   0.491   4.563   2.167  0.2425 -0.3867 -0.3283
 2143TIP3    H127920   0.512   4.610   2.087  0.9665 -2.0077 -1.1317
 2143TIP3    H227921   0.575   4.551   2.211  0.1037 -1.1184 -0.2507
 2144TIP3   OH227922   4.387   0.364   1.909 -0.3679  0.4132 -0.4767
 2144TIP3    H127923   4.338   0.372   1.992 -0.7374  1.1831 -0.7655
 2144TIP3    H227924   4.459   0.305   1.930 -0.3528  0.7457  0.4461
 2145TIP3   OH227925   6.112   1.158   2.579 -0.4870 -0.0989 -0.6880
 2145TIP3    H127926   6.083   1.123   2.663  0.4944 -0.3650 -0.4476
 2145TIP3    H227927   6.041   1.217   2.551 -0.9726 -0.2763  0.1512
 2146TIP3   OH227928   2.897   5.926   0.565 -0.3650  0.7364  0.5284
 2146TIP3    H127929   2.936   5.839   0.562  2.4020  1.8642 -0.1107
 2146TIP3    H227930   2.807   5.912   0.594  0.0376 -2.2741  0.6260
 2147TIP3   OH227931   6.702   0.367   4.738 -0.0472 -0.4387 -0.4718
 2147TIP3    H127932   6.650   0.422   4.797 -1.2637 -1.0796 -0.9117
 2147TIP3    H227933   6.642   0.299   4.709  0.7867 -0.6745 -1.7478
 2148TIP3   OH227934   5.412   3.197   0.837 -0.4952  0.0271 -0.2041
 2148TIP3    H127935   5.475   3.182   0.908 -0.7488 -0.3998 -0.0649
 2148TIP3    H227936   5.390   3.109   0.806  1.1891  0.2388 -2.2332
 2149TIP3   OH227937   3.174   0.852   4.884 -0.2646  0.3844  0.0621
 2149TIP3    H127938   3.085   0.881   4.865  0.1030  1.7828  0.4045
 2149TIP3    H227939   3.185   0.866   4.978  0.5789  0.9857 -0.1161
 2150TIP3   OH227940   0.230   0.737  13.843  0.1173 -0.0137  0.3426
 2150TIP3    H127941   0.213   0.656  13.890  1.9039 -0.5587  0.1374
 2150TIP3    H227942   0.148   0.757  13.798  0.0944 -2.5850 -0.9139
 2151TIP3   OH227943   3.683   6.438  13.286 -0.0049 -0.0509 -0.1198
 2151TIP3    H127944   3.663   6.519  13.334  0.5610 -0.0133  0.0638
 2151TIP3    H227945   3.733   6.467  13.210 -2.0904  0.0317 -1.5286
 2152TIP3   OH227946   2.910   1.674   5.104 -0.2644  0.1833 -0.0154
 2152TIP3    H127947   2.852   1.709   5.036 -1.1774  0.4290  0.8643
 2152TIP3    H227948   2.991   1.653   5.058 -0.5752  1.1227 -1.0252
 2153TIP3   OH227949   1.715   0.670   1.967 -0.1540 -0.4080 -0.4379
 2153TIP3    H127950   1.738   0.582   1.938 -0.4372 -0.7957  0.5009
 2153TIP3    H227951   1.766   0.683   2.047  0.6982  0.6924 -1.1218
 2154TIP3   OH227952   6.310   2.195   3.608 -0.4327 -0.3146  0.4364
 2154TIP3    H127953   6.377   2.245   3.562 -0.1499 -2.3882 -1.5856
 2154TIP3    H227954   6.237   2.190   3.546 -1.6848  0.1442  1.8030
 2155TIP3   OH227955   4.343   6.622  15.060  0.5068  0.0966  0.3834
 2155TIP3    H127956   4.406   6.563  15.100  0.4385 -1.6627 -1.9063
 2155TIP3    H227957   4.258   6.581  15.074  0.3767  0.0105 -0.5665
 2156TIP3   OH227958   3.678   2.289  14.129 -0.0736 -0.6900 -0.0138
 2156TIP3    H127959   3.615   2.261  14.063  1.3102 -1.7153 -0.9379
 2156TIP3    H227960   3.662   2.383  14.139 -1.3985 -0.8304 -0.5759
 2157TIP3   OH227961   2.594   5.287  15.889 -0.1184 -0.0985 -0.6380
 2157TIP3    H127962   2.569   5.311  15.978 -4.6517 -4.5463 -0.2738
 2157TIP3    H227963   2.645   5.361  15.857 -2.8933  4.2371  3.7338
 2158TIP3   OH227964   0.475   6.165  16.722 -0.1980  1.2514 -0.2339
 2158TIP3    H127965   0.428   6.118  16.791  0.3872 -1.9680 -1.8272
 2158TIP3    H227966   0.556   6.194  16.764 -0.7395  1.1907  0.9065
 2159TIP3   OH227967   1.525   5.962   3.439  0.7267 -0.3736  0.6619
 2159TIP3    H127968   1.556   6.024   3.373 -0.0803 -1.3772 -0.7201
 2159TIP3    H227969   1.596   5.957   3.503  1.0893  1.4195  0.4407
 2160TIP3   OH227970   1.231   5.267  11.771 -0.3397  0.3374  0.0478
 2160TIP3    H127971   1.235   5.175  11.745 -1.2467 -0.2526  1.8847
 2160TIP3    H227972   1.232   5.315  11.688 -1.0021 -1.3571 -0.9926
 2161TIP3   OH227973   3.493   0.832  13.139  0.4292 -0.9765  0.5535
 2161TIP3    H127974   3.496   0.906  13.200  0.5141 -1.5412  1.2422
 2161TIP3    H227975   3.400   0.811  13.133  0.4339 -1.0172  0.6145
 2162TIP3   OH227976   0.111   6.258   5.550 -0.1169 -0.6992  0.0611
 2162TIP3    H127977   0.102   6.295   5.462 -1.9450  1.3624  0.9977
 2162TIP3    H227978   0.037   6.200   5.560  0.6565 -1.7330 -0.0835
 2163TIP3   OH227979   1.575   0.985   2.385  0.2701 -0.3371 -0.1076
 2163TIP3    H127980   1.520   0.912   2.415  0.8685 -0.2307  1.3716
 2163TIP3    H227981   1.522   1.063   2.399  0.0367 -0.3980 -0.6457
 2164TIP3   OH227982   4.225   1.573   4.786  0.1195 -0.2874  0.2652
 2164TIP3    H127983   4.150   1.625   4.758 -1.3624 -2.0750  0.7062
 2164TIP3    H227984   4.214   1.564   4.880  2.4527  1.6840  0.8253
 2165TIP3   OH227985   5.944   4.293   4.840  0.4990 -0.7010 -0.4718
 2165TIP3    H127986   5.966   4.276   4.931 -0.1140 -1.9399 -0.5231
 2165TIP3    H227987   5.929   4.387   4.835 -2.9544 -0.9791  1.5359
 2166TIP3   OH227988   2.369   0.745  14.654  0.0117 -0.0196  0.3169
 2166TIP3    H127989   2.310   0.741  14.580  2.2962  0.2181 -1.6412
 2166TIP3    H227990   2.456   0.753  14.615  1.1724  2.5325  2.9998
 2167TIP3   OH227991   1.032   2.987   5.241 -1.0678  0.0624 -0.5029
 2167TIP3    H127992   1.022   2.893   5.254 -0.7920  0.2239  1.1925
 2167TIP3    H227993   1.121   2.997   5.207 -0.6556 -0.2291  0.4500
 2168TIP3   OH227994   0.725   1.156  12.282 -1.0413  0.3183  0.0620
 2168TIP3    H127995   0.807   1.181  12.325 -2.0545  0.4754  2.0215
 2168TIP3    H227996   0.726   1.061  12.284 -1.0472  0.3209  0.4172
 2169TIP3   OH227997   6.679   3.280   1.932 -0.4048  0.1549  0.2737
 2169TIP3    H127998   6.701   3.289   1.839 -0.5556  1.4185  0.3429
 2169TIP3    H227999   6.752   3.322   1.978 -0.3507 -0.4271  0.7282
 2170TIP3   OH228000   5.886   5.307   2.998  0.1342 -0.2351 -0.4918
 2170TIP3    H128001   5.948   5.310   2.926 -1.0922  0.5322 -1.5571
 2170TIP3    H228002   5.867   5.399   3.018  0.7176 -0.4178  1.0798
 2171TIP3   OH228003   5.505   2.536   0.910 -0.0275  0.2015 -0.1203
 2171TIP3    H128004   5.590   2.493   0.919 -1.3977 -2.7248 -0.1594
 2171TIP3    H228005   5.482   2.562   0.999  0.4667  0.1244  0.0348
 2172TIP3   OH228006   5.833   4.813  13.996 -0.2412  0.2275  0.0167
 2172TIP3    H128007   5.777   4.890  14.005 -1.0108 -0.5095  2.0212
 2172TIP3    H228008   5.791   4.762  13.927 -0.4392  0.9863 -0.4454
 2173TIP3   OH228009   2.091   0.051   3.869  0.1347 -0.0319  0.2313
 2173TIP3    H128010   2.033   0.018   3.800 -0.4887  1.3883  0.0409
 2173TIP3    H228011   2.091  -0.017   3.936  1.0332 -1.6244 -1.2899
 2174TIP3   OH228012   4.403   3.973   0.364 -0.2330 -0.1894 -0.2372
 2174TIP3    H128013   4.453   4.046   0.326 -1.5600  0.1155 -1.4801
 2174TIP3    H228014   4.462   3.898   0.358 -0.5450 -0.2951 -3.4979
 2175TIP3   OH228015   4.231   3.071  16.772 -0.1846 -0.1687 -0.3888
 2175TIP3    H128016   4.247   3.133  16.700 -0.6301 -0.4157 -0.6995
 2175TIP3    H228017   4.223   3.127  16.849  0.4142  0.0929 -0.5027
 2176TIP3   OH228018   0.167   4.046  11.752 -0.7855 -0.8055  0.5371
 2176TIP3    H128019   0.162   4.008  11.664 -1.1919 -0.5302  0.4392
 2176TIP3    H228020   0.261   4.053  11.769 -0.6358  1.1646 -0.7660
 2177TIP3   OH228021   3.851   6.110   4.291  0.1050  0.2743  0.1713
 2177TIP3    H128022   3.892   6.194   4.314  0.1187  0.6515 -1.1640
 2177TIP3    H228023   3.863   6.102   4.196  0.2857 -1.3470  0.3008
 2178TIP3   OH228024   1.133   2.297  16.122  0.0923 -0.3969 -0.3807
 2178TIP3    H128025   1.064   2.363  16.127 -1.1996 -1.5901 -1.6753
 2178TIP3    H228026   1.152   2.276  16.214 -1.1240  0.0758  0.0021
 2179TIP3   OH228027   0.735   0.206   0.488 -0.6101 -0.0580  0.2147
 2179TIP3    H128028   0.656   0.152   0.485 -0.8031  0.2526 -0.3756
 2179TIP3    H228029   0.807   0.142   0.490 -0.7846 -0.3933 -1.6262
 2180TIP3   OH228030   3.137   1.366   3.403 -0.4193  0.5374 -0.1472
 2180TIP3    H128031   3.153   1.410   3.320 -1.5224  2.5635  0.6425
 2180TIP3    H228032   3.222   1.332   3.430  0.5066  2.2247 -0.8193
 2181TIP3   OH228033   6.310   2.003  11.096  0.0978  0.7207 -0.0407
 2181TIP3    H128034   6.231   2.027  11.046 -0.5978  1.3569  1.3115
 2181TIP3    H228035   6.320   1.909  11.081 -0.8157  0.6700 -0.3841
 2182TIP3   OH228036   5.155   2.546   4.139 -0.6666 -0.2275  0.5897
 2182TIP3    H128037   5.152   2.628   4.188 -0.3365 -0.7284  1.4799
 2182TIP3    H228038   5.174   2.572   4.049 -1.6477  0.7463  0.6355
 2183TIP3   OH228039   2.076   2.824   3.610 -0.1337 -0.0542  1.0979
 2183TIP3    H128040   2.164   2.856   3.593 -0.3792  0.3088  0.4662
 2183TIP3    H228041   2.047   2.874   3.686 -0.0419  0.3148  0.8937
 2184TIP3   OH228042   3.034   5.936   1.910  0.1999  0.3627 -0.0014
 2184TIP3    H128043   3.036   5.894   1.996  0.5893  1.8682  0.7699
 2184TIP3    H228044   2.949   5.912   1.874 -0.3808  0.4759  1.2279
 2185TIP3   OH228045   4.049   6.735  15.424 -0.7984  0.4887  0.9627
 2185TIP3    H128046   3.977   6.720  15.363 -0.1295  2.1782 -0.3334
 2185TIP3    H228047   4.009   6.783  15.496 -0.6198  3.9526 -1.0364
 2186TIP3   OH228048   5.930   6.172  15.917  0.3677 -0.2451  0.0035
 2186TIP3    H128049   5.850   6.225  15.924  1.0128  0.8865 -0.8605
 2186TIP3    H228050   5.937   6.129  16.003 -0.4364  0.7016  0.5714
 2187TIP3   OH228051   0.947   3.963  12.832 -0.2895 -0.2992 -0.7871
 2187TIP3    H128052   0.895   3.912  12.894  2.1546 -1.1548  0.7151
 2187TIP3    H228053   0.948   4.052  12.869 -0.8640 -0.2065 -0.9792
 2188TIP3   OH228054   5.966   5.976   0.891  0.0297  0.7868  0.4269
 2188TIP3    H128055   6.007   5.892   0.913 -1.1898 -0.3448 -1.2754
 2188TIP3    H228056   5.960   6.023   0.974  1.1898 -0.6081  1.3487
 2189TIP3   OH228057   6.804   6.056   1.244 -0.6381  0.2853  0.8097
 2189TIP3    H128058   6.842   6.069   1.331  1.5357 -1.6664  0.2391
 2189TIP3    H228059   6.867   6.000   1.198 -3.0308 -1.0227 -1.1102
 2190TIP3   OH228060   5.117   5.225  10.487 -0.1662  0.0507  0.0273
 2190TIP3    H128061   5.062   5.296  10.455  1.8623  1.1668 -1.1465
 2190TIP3    H228062   5.160   5.261  10.565  0.8803  0.1663 -0.5786
 2191TIP3   OH228063   3.373   1.613   3.020 -0.1867 -0.2545  0.0340
 2191TIP3    H128064   3.283   1.595   3.048 -0.5304 -0.1194 -0.9424
 2191TIP3    H228065   3.364   1.686   2.958  0.1814 -2.3310 -2.6401
 2192TIP3   OH228066   2.803   3.749  13.256  0.3402 -0.0967  0.6792
 2192TIP3    H128067   2.866   3.729  13.186 -1.7106  0.6292 -1.5027
 2192TIP3    H228068   2.827   3.837  13.285  1.3426 -0.4902  1.0853
 2193TIP3   OH228069   6.695   4.260   4.383 -0.3395  0.3887  0.5627
 2193TIP3    H128070   6.686   4.305   4.299  0.6422 -0.7869 -0.1907
 2193TIP3    H228071   6.610   4.219   4.397  0.3051 -1.7514 -1.2728
 2194TIP3   OH228072   1.655   0.006   5.279  0.2268  0.1832  0.2130
 2194TIP3    H128073   1.712  -0.006   5.355 -0.8477 -0.4466  0.9482
 2194TIP3    H228074   1.604  -0.075   5.273 -0.5065  0.6678 -0.4940
 2195TIP3   OH228075   2.165   6.206  15.310  0.7687 -0.4812 -0.0265
 2195TIP3    H128076   2.096   6.240  15.253 -1.1697 -0.8357  1.9375
 2195TIP3    H228077   2.151   6.112  15.312  1.2946 -0.5562  0.3950
 2196TIP3   OH228078   6.368   6.679  12.909  0.4713  0.4792  0.2590
 2196TIP3    H128079   6.311   6.633  12.971 -0.3263 -0.6698 -1.2457
 2196TIP3    H228080   6.321   6.759  12.887  0.1177  0.2492  0.1582
 2197TIP3   OH228081   0.070   4.709  13.549 -0.2613 -0.2914 -0.2379
 2197TIP3    H128082   0.035   4.749  13.630  0.2017  0.5506 -0.4422
 2197TIP3    H228083   0.159   4.685  13.571 -0.1106  0.0045 -0.5142
 2198TIP3   OH228084   0.463   6.167   4.243  0.0473 -0.4037  0.0224
 2198TIP3    H128085   0.409   6.236   4.281  1.7706  0.4946  0.9681
 2198TIP3    H228086   0.405   6.090   4.240 -1.5042  0.7124  0.2022
 2199TIP3   OH228087   3.810   0.747   6.784  0.6991  0.3700  0.1946
 2199TIP3    H128088   3.719   0.727   6.762  0.4148 -1.0080  2.2575
 2199TIP3    H228089   3.818   0.841   6.772 -0.4139  0.2702 -1.8499
 2200TIP3   OH228090   4.338   0.191   0.659  0.1478  0.6148 -0.5667
 2200TIP3    H128091   4.325   0.142   0.578  2.3054  0.1874 -0.7109
 2200TIP3    H228092   4.374   0.275   0.630  1.2575  0.3320 -0.0606
 2201TIP3   OH228093   2.095   1.208   5.489 -0.3840 -0.8973  0.1018
 2201TIP3    H128094   2.152   1.282   5.472 -0.0433 -0.4757  2.6847
 2201TIP3    H228095   2.153   1.132   5.488 -0.2215 -0.7747  0.1788
 2202TIP3   OH228096   2.547   5.306   1.384 -0.2889 -0.2382  0.7631
 2202TIP3    H128097   2.516   5.243   1.320  0.4884 -0.4513  0.5917
 2202TIP3    H228098   2.484   5.300   1.456 -2.1844  1.2230 -0.6503
 2203TIP3   OH228099   2.041   4.854   3.783 -0.0300  0.3452 -0.3186
 2203TIP3    H128100   2.006   4.943   3.792  0.1218  0.3655  0.1088
 2203TIP3    H228101   1.963   4.798   3.788 -0.0252  0.3944  0.5734
 2204TIP3   OH228102   4.578   4.331  15.709 -0.3330  0.7404 -0.0758
 2204TIP3    H128103   4.536   4.247  15.726 -1.8150  1.4570 -0.0478
 2204TIP3    H228104   4.667   4.321  15.744 -0.6960 -0.5873  0.5173
 2205TIP3   OH228105   0.887   1.721   2.532 -0.5950  0.3743 -0.4830
 2205TIP3    H128106   0.905   1.726   2.438 -2.3989 -0.6917 -0.9434
 2205TIP3    H228107   0.793   1.703   2.537 -0.4896  0.1892  1.5298
 2206TIP3   OH228108   0.010   4.235  13.062 -0.0554 -0.0056 -0.2383
 2206TIP3    H128109  -0.057   4.204  13.123 -2.3084 -0.9993 -2.9813
 2206TIP3    H228110   0.088   4.183  13.083 -0.8791 -0.6574  1.4209
 2207TIP3   OH228111   6.057   2.237  15.209 -0.1795 -0.8479 -0.3149
 2207TIP3    H128112   6.092   2.148  15.212 -0.4302 -1.1469 -3.4873
 2207TIP3    H228113   6.084   2.271  15.124  0.6207  2.4793  1.0801
 2208TIP3   OH228114   1.942   1.626  13.261  0.0721  0.1577  0.2761
 2208TIP3    H128115   1.980   1.659  13.179 -0.5532 -1.0155 -0.5013
 2208TIP3    H228116   2.000   1.661  13.329  2.0367 -0.8012 -0.8049
 2209TIP3   OH228117   4.302   1.415  13.977 -0.2045  0.0258 -0.1688
 2209TIP3    H128118   4.252   1.491  14.006 -0.8038  0.1856 -1.5350
 2209TIP3    H228119   4.378   1.451  13.932  0.9723 -0.2163  1.5545
 2210TIP3   OH228120   4.107   1.613   2.187 -0.0017 -0.0836  0.3566
 2210TIP3    H128121   4.114   1.686   2.127 -0.4341  0.1291  0.5603
 2210TIP3    H228122   4.038   1.639   2.249 -1.6119 -1.4883 -0.7597
 2211TIP3   OH228123   2.437   5.141   0.076  0.6005 -0.6409  0.2445
 2211TIP3    H128124   2.367   5.114   0.017  1.4466  1.1071 -1.6640
 2211TIP3    H228125   2.482   5.211   0.030  2.5876 -0.5671  2.1360
 2212TIP3   OH228126   5.251   1.950  16.773 -0.0700 -0.2303  0.3954
 2212TIP3    H128127   5.324   1.934  16.832  0.6031  0.4855 -0.2307
 2212TIP3    H228128   5.267   1.891  16.699  0.3610  0.5655 -0.1538
 2213TIP3   OH228129   5.956   4.924  12.170 -0.2065 -0.3999  0.1127
 2213TIP3    H128130   5.957   4.926  12.266  0.3086  0.7939  0.0953
 2213TIP3    H228131   6.043   4.954  12.144 -1.1166  1.7512 -0.7265
 2214TIP3   OH228132   1.938   3.751   5.399  0.5214  0.0642 -0.4725
 2214TIP3    H128133   1.983   3.756   5.483 -0.2396  1.1077 -0.1123
 2214TIP3    H228134   2.005   3.774   5.334  0.5489  1.5073  0.0460
 2215TIP3   OH228135   6.564   3.158   1.366  0.1214  0.4952 -0.0725
 2215TIP3    H128136   6.592   3.122   1.282 -0.2381  0.1964 -0.0687
 2215TIP3    H228137   6.616   3.237   1.377  2.1104 -0.8397  0.6851
 2216TIP3   OH228138   2.716   3.309  13.617 -0.2716  0.2179  0.4578
 2216TIP3    H128139   2.696   3.315  13.524  0.1199 -0.1107  0.3526
 2216TIP3    H228140   2.761   3.390  13.638  1.4070 -0.5392 -0.0767
 2217TIP3   OH228141   6.140   0.626   0.296 -0.3720  0.4456  0.1046
 2217TIP3    H128142   6.117   0.656   0.208 -0.0417 -2.8366 -1.2336
 2217TIP3    H228143   6.057   0.625   0.344 -0.6724  1.5489 -0.3524
 2218TIP3   OH228144   6.029   3.364  16.439 -0.0077 -0.0349 -0.1611
 2218TIP3    H128145   5.962   3.390  16.503 -1.8779  1.0468 -2.4100
 2218TIP3    H228146   6.089   3.438  16.436 -0.3434  0.2400 -0.2018
 2219TIP3   OH228147   2.526   0.218  11.269 -0.0908  0.1066  0.0655
 2219TIP3    H128148   2.558   0.132  11.242  0.3332 -0.0911  1.1436
 2219TIP3    H228149   2.431   0.209  11.272 -0.0119 -0.5948  0.9898
 2220TIP3   OH228150   5.946   0.339   1.979 -0.4781  0.1040  0.2066
 2220TIP3    H128151   5.855   0.369   1.987 -0.3245  0.2620  1.7227
 2220TIP3    H228152   5.949   0.294   1.895 -1.8680  0.4069 -0.0394
 2221TIP3   OH228153   5.526   1.470  12.131 -0.4745  0.8301 -0.2139
 2221TIP3    H128154   5.511   1.487  12.224 -0.4953  0.2333 -0.1068
 2221TIP3    H228155   5.455   1.516  12.087 -1.5351 -0.4010  0.1721
 2222TIP3   OH228156   3.546   3.490   6.787  0.3599  0.2199 -0.0089
 2222TIP3    H128157   3.610   3.421   6.773  0.5628  0.4789 -0.3443
 2222TIP3    H228158   3.461   3.445   6.785  0.5699 -0.2997  1.5146
 2223TIP3   OH228159   1.340   5.882   0.708 -0.3527 -0.1530 -0.5635
 2223TIP3    H128160   1.370   5.901   0.797  0.3733 -0.0135 -0.8303
 2223TIP3    H228161   1.304   5.794   0.712  1.3498 -0.8835 -0.5160
 2224TIP3   OH228162   5.317   3.137  15.155 -0.0709  0.2232  0.1996
 2224TIP3    H128163   5.278   3.050  15.152  0.8903 -0.2079 -0.2468
 2224TIP3    H228164   5.351   3.146  15.244  1.1021 -0.4556 -0.1541
 2225TIP3   OH228165   1.057   1.606   4.642 -0.3910 -0.1950  0.1917
 2225TIP3    H128166   1.022   1.518   4.653  1.0945 -0.6838  1.2992
 2225TIP3    H228167   1.020   1.656   4.715 -0.3357 -0.1881  0.2152
 2226TIP3   OH228168   5.681   1.129  12.423 -0.7177  0.3338  0.0131
 2226TIP3    H128169   5.659   1.085  12.341  0.2702  0.0110 -0.0861
 2226TIP3    H228170   5.638   1.076  12.491 -0.3499 -0.2366 -0.1862
 2227TIP3   OH228171   5.172   6.753   5.730  0.2374  0.1722  0.3560
 2227TIP3    H128172   5.082   6.753   5.700  0.2445 -1.5867  0.2298
 2227TIP3    H228173   5.166   6.725   5.822  0.6231  0.3928  0.4500
 2228TIP3   OH228174   1.706   4.791  15.231  0.2705  0.0872 -0.0677
 2228TIP3    H128175   1.662   4.717  15.273  1.3033 -1.0514 -0.9196
 2228TIP3    H228176   1.640   4.829  15.173 -0.2712 -0.1421  0.3840
 2229TIP3   OH228177   0.027   0.263   1.696 -0.2242 -0.0903 -0.0107
 2229TIP3    H128178  -0.050   0.226   1.741  0.6361  0.7391  2.2792
 2229TIP3    H228179   0.078   0.186   1.671 -0.1107 -0.6069  1.6487
 2230TIP3   OH228180   5.009   5.984   4.191  0.1200  0.3344  0.3185
 2230TIP3    H128181   5.082   6.045   4.200  0.1775  0.4276 -0.6452
 2230TIP3    H228182   4.931   6.039   4.193  0.1350  0.3599  0.2200
 2231TIP3   OH228183   1.681   3.892   5.492 -0.2317  0.0834 -0.0730
 2231TIP3    H128184   1.727   3.821   5.536 -1.3744 -0.9556 -0.5162
 2231TIP3    H228185   1.743   3.965   5.494  1.2013 -1.0885 -0.1506
 2232TIP3   OH228186   5.324   0.189   5.848  0.5834  0.3375  0.0004
 2232TIP3    H128187   5.335   0.098   5.823 -0.0635  0.2165  0.1442
 2232TIP3    H228188   5.258   0.187   5.917  1.1241  0.8364  0.5445
 2233TIP3   OH228189   2.984   4.412   5.107 -0.0355  0.5753  0.5487
 2233TIP3    H128190   3.074   4.382   5.095 -0.3858 -0.0320 -0.8933
 2233TIP3    H228191   2.955   4.436   5.018 -1.6523 -0.3596  0.7823
 2234TIP3   OH228192   2.621   1.892  12.996 -0.6089  0.3422 -0.1101
 2234TIP3    H128193   2.555   1.897  12.928  0.1170 -0.1978 -0.8750
 2234TIP3    H228194   2.595   1.817  13.049 -0.9526  0.5208 -0.0213
 2235TIP3   OH228195   5.138   3.547  13.866 -0.1628 -0.5062 -0.2705
 2235TIP3    H128196   5.206   3.614  13.877  1.7518 -2.6485  2.3122
 2235TIP3    H228197   5.061   3.584  13.911 -0.5171  1.5257 -2.3626
 2236TIP3   OH228198   1.402   5.488   5.683 -0.4043 -0.0369  0.1092
 2236TIP3    H128199   1.432   5.578   5.671  0.0091 -0.2203 -0.2797
 2236TIP3    H228200   1.335   5.493   5.751 -0.8304  0.6573 -0.3531
 2237TIP3   OH228201   3.797   6.605   6.531  0.1285  0.2385 -0.2762
 2237TIP3    H128202   3.859   6.605   6.459  0.8105  0.5368  0.3030
 2237TIP3    H228203   3.750   6.688   6.522  1.1068  0.8867  0.3619
 2238TIP3   OH228204   1.309   2.250   1.288  0.8361  0.0266 -0.7520
 2238TIP3    H128205   1.401   2.223   1.293  0.6933 -0.2438  0.8201
 2238TIP3    H228206   1.301   2.290   1.201  3.2235  2.9908  0.2079
 2239TIP3   OH228207   4.613   3.265   4.454  0.0926 -0.4212 -0.1582
 2239TIP3    H128208   4.685   3.264   4.517 -0.6106 -0.1255  0.6596
 2239TIP3    H228209   4.641   3.328   4.388 -0.1153  0.9191  0.9986
 2240TIP3   OH228210   4.171   5.055  13.527  0.3795  0.4312  0.3996
 2240TIP3    H128211   4.224   5.035  13.604  0.9385  1.6964  0.3745
 2240TIP3    H228212   4.214   5.010  13.455  1.3954  1.3716  0.3981
 2241TIP3   OH228213   2.896   2.969   0.117 -0.4064  0.8764  0.2723
 2241TIP3    H128214   2.925   2.886   0.155  2.6093  1.8008  0.2412
 2241TIP3    H228215   2.833   2.945   0.050 -0.5763 -1.2855  1.1508
 2242TIP3   OH228216   3.373   0.888   1.879 -0.3763  0.4765 -0.3784
 2242TIP3    H128217   3.327   0.916   1.800 -3.8250  0.4931  1.3944
 2242TIP3    H228218   3.403   0.969   1.920 -0.6529  0.6766 -0.5661
 2243TIP3   OH228219   5.160   0.593  16.507 -0.3064 -0.6197 -0.4862
 2243TIP3    H128220   5.230   0.542  16.548  0.8915  1.9261  0.8465
 2243TIP3    H228221   5.095   0.605  16.577 -0.6478 -0.4345 -0.8312
 2244TIP3   OH228222   2.007   0.583  14.047 -0.3413  0.1721 -0.7495
 2244TIP3    H128223   1.916   0.609  14.063  0.1172  1.0230  0.7752
 2244TIP3    H228224   2.044   0.655  13.997 -0.7083 -0.5711 -2.1184
 2245TIP3   OH228225   1.909   2.065   2.561 -0.0421  0.1991  0.0108
 2245TIP3    H128226   1.922   1.978   2.524  1.0609  0.2317  0.3071
 2245TIP3    H228227   1.839   2.103   2.508 -0.8485 -1.0239  0.1648
 2246TIP3   OH228228   1.978   2.822  16.213  0.5027 -0.0225 -0.3080
 2246TIP3    H128229   1.938   2.899  16.173 -0.6615 -0.2025  0.4308
 2246TIP3    H228230   2.021   2.855  16.292  0.9618  0.0328 -0.5835
 2247TIP3   OH228231   2.736   5.390   5.176 -0.2611 -0.4507 -0.1172
 2247TIP3    H128232   2.818   5.343   5.190 -0.0672  0.1200  0.7612
 2247TIP3    H228233   2.760   5.465   5.122  0.3178  1.1075  2.1730
 2248TIP3   OH228234   2.443   6.031  10.221 -0.4389 -0.4635  0.3527
 2248TIP3    H128235   2.387   6.094  10.265 -1.1003 -1.4177  0.9010
 2248TIP3    H228236   2.530   6.046  10.258  0.3382  2.7937 -2.3450
 2249TIP3   OH228237   2.614   6.779  13.068  0.1360 -0.4431 -0.4489
 2249TIP3    H128238   2.675   6.793  12.996  1.2089 -0.3890  0.4468
 2249TIP3    H228239   2.669   6.777  13.146 -1.0782  0.2895  0.4600
 2250TIP3   OH228240   5.300   6.211   4.984 -0.2228  0.5848 -0.2110
 2250TIP3    H128241   5.355   6.172   5.051  0.2463  0.6876 -0.5305
 2250TIP3    H228242   5.217   6.229   5.028 -0.8947 -1.8664 -0.3410
 2251TIP3   OH228243   2.196   5.868   4.003 -0.2231  0.0236  0.5700
 2251TIP3    H128244   2.262   5.856   3.934  0.6689  0.0889  1.3960
 2251TIP3    H228245   2.130   5.801   3.984 -1.2248  1.5352 -1.7310
 2252TIP3   OH228246   2.857   1.936   3.688 -0.0826  0.2957 -0.1434
 2252TIP3    H128247   2.866   1.873   3.616 -2.4670  1.0681 -1.2327
 2252TIP3    H228248   2.813   1.887   3.757 -1.5304  0.5844 -0.8222
 2253TIP3   OH228249   1.765   0.792   4.784 -0.3304 -0.4300  0.9493
 2253TIP3    H128250   1.671   0.800   4.796 -0.5582 -0.1206 -0.8075
 2253TIP3    H228251   1.776   0.761   4.694  1.2991  2.8788 -0.1778
 2254TIP3   OH228252   1.139   3.422   3.178  0.1750  0.1763 -0.0018
 2254TIP3    H128253   1.108   3.450   3.264 -1.9722 -2.7704  0.3553
 2254TIP3    H228254   1.067   3.441   3.118  0.9042  0.5056 -0.7906
 2255TIP3   OH228255   6.732   1.653   4.841 -0.3931  0.4191  0.7372
 2255TIP3    H128256   6.701   1.716   4.906 -1.2750 -0.4553  1.1842
 2255TIP3    H228257   6.814   1.690   4.809  0.2657  0.6830  2.6147
 2256TIP3   OH228258   3.192   0.241  14.713 -0.2373  0.0352 -0.2482
 2256TIP3    H128259   3.120   0.179  14.726  0.0668 -0.3603 -0.4328
 2256TIP3    H228260   3.245   0.232  14.792 -0.1113 -0.0483 -0.3428
 2257TIP3   OH228261   2.752   1.651   0.608  0.4999 -0.3164 -0.2767
 2257TIP3    H128262   2.793   1.587   0.549 -2.2118 -1.6578 -0.8581
 2257TIP3    H228263   2.779   1.736   0.573  0.2998 -1.0988 -2.5174
 2258TIP3   OH228264   3.694   4.470   0.454 -0.3928  0.3161  0.4008
 2258TIP3    H128265   3.767   4.530   0.439  2.0632 -2.4664  0.0426
 2258TIP3    H228266   3.704   4.441   0.544 -2.0560  1.0273  0.8443
 2259TIP3   OH228267   3.030   4.559  13.754  0.1002 -0.2191  0.1598
 2259TIP3    H128268   3.077   4.488  13.711  2.0141  0.0723  1.6340
 2259TIP3    H228269   2.994   4.519  13.834  0.1120  0.1684  0.3632
 2260TIP3   OH228270   2.636   0.712  14.568  0.3086 -0.5706 -0.3649
 2260TIP3    H128271   2.683   0.689  14.648  0.8312 -0.1192 -0.5394
 2260TIP3    H228272   2.704   0.723  14.502  0.3311  3.0234  0.0388
 2261TIP3   OH228273   4.164   6.775   3.257  0.1296 -0.1590  0.6921
 2261TIP3    H128274   4.183   6.868   3.269 -0.9698  0.1150  0.3575
 2261TIP3    H228275   4.156   6.740   3.346  0.7388  0.0094  0.8210
 2262TIP3   OH228276   3.987   3.413  16.765  0.3689 -0.1951  0.0279
 2262TIP3    H128277   3.929   3.421  16.841  0.1916  2.1843 -0.2888
 2262TIP3    H228278   4.067   3.460  16.792  0.1621  1.0085 -1.3597
 2263TIP3   OH228279   0.550   6.279   0.609 -0.2654  0.2263 -0.4069
 2263TIP3    H128280   0.520   6.336   0.680  0.1001 -1.4754  1.1678
 2263TIP3    H228281   0.640   6.309   0.592  0.3317 -0.5306  1.1876
 2264TIP3   OH228282   6.103   6.511   2.238 -0.3866 -0.0118  0.1069
 2264TIP3    H128283   6.065   6.539   2.154  2.9740  2.6290 -0.7422
 2264TIP3    H228284   6.157   6.435   2.216  0.5877  0.7522 -0.1999
 2265TIP3   OH228285   3.877   5.596  13.375 -0.2182 -0.5002 -0.2562
 2265TIP3    H128286   3.794   5.642  13.362 -1.2766 -1.8988  1.1638
 2265TIP3    H228287   3.852   5.506  13.395  1.6849 -1.1368 -0.4909
 2266TIP3   OH228288   1.681   2.391  11.547 -0.2614  0.2266  0.2377
 2266TIP3    H128289   1.666   2.482  11.574 -1.3698  0.5592 -1.3089
 2266TIP3    H228290   1.701   2.345  11.628  0.9742  1.9562  0.9931
 2267TIP3   OH228291   3.174   5.170  13.447  0.7605 -0.5401  0.4466
 2267TIP3    H128292   3.146   5.102  13.508 -0.2747 -1.5059 -1.0230
 2267TIP3    H228293   3.248   5.130  13.400 -0.1759 -0.8950 -0.7783
 2268TIP3   OH228294   4.850   5.958  17.034 -0.2125  0.3490 -0.0579
 2268TIP3    H128295   4.887   5.958  16.946  1.0007 -0.1120  0.4201
 2268TIP3    H228296   4.920   5.920  17.088 -1.0953  0.2410  1.0265
 2269TIP3   OH228297   0.821   2.135  16.510 -0.1661  0.2382 -0.4922
 2269TIP3    H128298   0.776   2.083  16.576 -0.4978 -0.1328 -1.0077
 2269TIP3    H228299   0.903   2.088  16.494 -0.7393 -0.4805 -1.4084
 2270TIP3   OH228300   2.755   3.093   3.256 -0.4827  0.2744 -0.5415
 2270TIP3    H128301   2.805   3.116   3.334  0.5225 -0.8231 -0.8404
 2270TIP3    H228302   2.675   3.146   3.262 -0.3879  0.2758  1.1780
 2271TIP3   OH228303   0.776   1.962   2.997 -0.2764  0.2891 -0.0905
 2271TIP3    H128304   0.865   1.997   2.993 -1.3677  3.3137 -0.6939
 2271TIP3    H228305   0.785   1.870   2.974  2.5906  0.7130 -1.0186
 2272TIP3   OH228306   3.233   0.964  11.075  0.2239  0.3817 -0.1500
 2272TIP3    H128307   3.251   1.048  11.033  0.4487  0.2161 -0.3956
 2272TIP3    H228308   3.222   0.985  11.168 -0.2804  0.7541 -0.2893
 2273TIP3   OH228309   5.714   4.606  16.771  0.1706 -0.2912 -0.3471
 2273TIP3    H128310   5.621   4.582  16.771 -0.1061  0.6898  0.4095
 2273TIP3    H228311   5.714   4.701  16.763  0.9008  0.1782  3.2176
 2274TIP3   OH228312   5.308   6.761   2.848 -0.1345  0.3164 -0.4669
 2274TIP3    H128313   5.311   6.666   2.831 -1.9256  0.3686 -1.2843
 2274TIP3    H228314   5.260   6.769   2.930 -0.4087  0.5223 -0.6446
 2275TIP3   OH228315   3.890   5.928  10.848  0.1066  0.0829 -0.1473
 2275TIP3    H128316   3.919   6.007  10.803  0.0168  0.7814  0.9689
 2275TIP3    H228317   3.873   5.957  10.938  0.1559 -1.2286  0.3004
 2276TIP3   OH228318   2.957   3.880   6.077 -0.3261 -0.0382 -0.4508
 2276TIP3    H128319   2.870   3.921   6.080 -0.0106  0.5958  0.9814
 2276TIP3    H228320   3.011   3.935   6.132  0.6714 -1.1734 -0.2519
 2277TIP3   OH228321   4.397   1.095   2.120  0.4885 -0.3923 -0.0547
 2277TIP3    H128322   4.316   1.138   2.091  0.7528  1.1183  1.3428
 2277TIP3    H228323   4.460   1.115   2.052  0.1369 -0.1006 -0.3002
 2278TIP3   OH228324   5.972   4.551  12.089  0.4088  0.1436  0.1983
 2278TIP3    H128325   5.974   4.474  12.034  2.6520  0.3632 -0.1254
 2278TIP3    H228326   5.976   4.625  12.028 -1.1541  0.5387  0.5254
 2279TIP3   OH228327   6.756   2.295   2.485 -0.3986  0.2929  0.0578
 2279TIP3    H128328   6.832   2.351   2.467 -0.0594  0.4563  1.8019
 2279TIP3    H228329   6.682   2.343   2.449 -0.1141  1.9427  1.5188
 2280TIP3   OH228330   2.695   1.097  16.409  0.3757 -0.2010  0.3131
 2280TIP3    H128331   2.617   1.146  16.434 -0.7136 -0.3137 -2.5104
 2280TIP3    H228332   2.742   1.083  16.491 -1.8132  1.1559  1.9005
 2281TIP3   OH228333   1.161   5.824   4.828 -0.6244 -0.0475  0.0981
 2281TIP3    H128334   1.124   5.891   4.885 -3.2127 -1.6242  0.4154
 2281TIP3    H228335   1.241   5.796   4.871  0.2946  2.4650  0.1748
 2282TIP3   OH228336   1.807   5.473  13.318  0.2588 -0.7931  0.1125
 2282TIP3    H128337   1.810   5.399  13.379  0.2214  0.1092  1.2535
 2282TIP3    H228338   1.779   5.547  13.373  0.1319  0.0262 -1.0369
 2283TIP3   OH228339   6.314   1.995   0.742  0.0353  0.1878  0.4222
 2283TIP3    H128340   6.242   2.047   0.706  0.1485  1.1027  1.4808
 2283TIP3    H228341   6.392   2.049   0.727  0.1627  0.3217  1.4728
 2284TIP3   OH228342   5.685   6.211  11.355  0.5384  0.5750  0.0992
 2284TIP3    H128343   5.705   6.187  11.265  0.5802  0.6724  0.0825
 2284TIP3    H228344   5.761   6.261  11.384  1.6346 -1.4983  0.9848
 2285TIP3   OH228345   5.982   2.323   5.363  0.1908  0.1940 -0.3599
 2285TIP3    H128346   5.939   2.297   5.444 -3.2503 -0.4196 -2.1846
 2285TIP3    H228347   5.990   2.418   5.370 -0.6264  0.2141  0.4641
 2286TIP3   OH228348   2.414   1.908   4.402  0.2752  0.1293 -0.5037
 2286TIP3    H128349   2.503   1.890   4.371  0.0730  1.1040 -1.7425
 2286TIP3    H228350   2.403   1.852   4.479  1.0106 -1.9695 -1.8582
 2287TIP3   OH228351   5.489   0.014  11.446  0.0415  0.5728  0.0605
 2287TIP3    H128352   5.515  -0.072  11.481 -1.0818  0.2187  0.0569
 2287TIP3    H228353   5.437   0.053  11.516 -0.9985  0.4719 -0.6340
 2288TIP3   OH228354   2.007   0.787  11.265 -0.4869  0.0280 -0.1459
 2288TIP3    H128355   1.956   0.711  11.236  0.5611 -1.4663  1.7442
 2288TIP3    H228356   2.085   0.786  11.210 -0.1482 -0.7003  0.3355
 2289TIP3   OH228357   2.197   5.404   5.959 -0.3158 -0.0165  0.1304
 2289TIP3    H128358   2.188   5.393   5.864  1.0718 -0.9044  0.0700
 2289TIP3    H228359   2.176   5.496   5.974  3.4143  1.3624 -1.6687
 2290TIP3   OH228360   6.486   5.067  11.822  0.4985 -0.0267 -0.2963
 2290TIP3    H128361   6.417   5.016  11.779  0.5551  0.2416 -0.7044
 2290TIP3    H228362   6.567   5.034  11.784  0.6602 -0.8527  0.7040
 2291TIP3   OH228363   2.820   1.156  12.608  0.5650  0.2751 -0.3765
 2291TIP3    H128364   2.831   1.213  12.684 -0.8345  0.2817 -0.1409
 2291TIP3    H228365   2.725   1.148  12.598  0.7192  0.0043 -1.9304
 2292TIP3   OH228366   4.296   3.703   5.557  0.1414 -0.0664  0.0042
 2292TIP3    H128367   4.235   3.726   5.626  0.4784  0.3608  0.1703
 2292TIP3    H228368   4.287   3.774   5.493 -0.0616 -0.3810 -0.3192
 2293TIP3   OH228369   3.778   5.782  10.063  0.0569 -0.2026 -0.0301
 2293TIP3    H128370   3.812   5.702  10.022 -0.2365 -1.1715  1.5143
 2293TIP3    H228371   3.850   5.814  10.117 -0.6083 -0.8838  1.3259
 2294TIP3   OH228372   5.749   2.314  12.875  0.2520 -0.6337 -0.2549
 2294TIP3    H128373   5.769   2.337  12.784  0.6381 -1.1100 -0.2980
 2294TIP3    H228374   5.763   2.219  12.879 -1.4796 -0.9254 -0.1382
 2295TIP3   OH228375   0.279   3.861   0.633  0.5578 -0.2058  0.3387
 2295TIP3    H128376   0.289   3.951   0.664 -1.8751  0.2512 -0.0050
 2295TIP3    H228377   0.223   3.868   0.556  1.3699 -1.9238 -0.4650
 2296TIP3   OH228378   6.347   5.439  12.295 -0.1921 -0.1476  0.4182
 2296TIP3    H128379   6.280   5.377  12.324  1.0274 -0.7911  1.9669
 2296TIP3    H228380   6.382   5.400  12.215 -0.4975 -0.6598  0.5270
 2297TIP3   OH228381   3.752   1.923  14.559  0.6872  0.2653 -0.4563
 2297TIP3    H128382   3.704   2.005  14.547  2.2678  1.6780  1.8659
 2297TIP3    H228383   3.685   1.858  14.581 -0.3962  1.5159  0.0678
 2298TIP3   OH228384   1.609   4.455  14.764  0.2453  0.0671  0.3720
 2298TIP3    H128385   1.649   4.410  14.838  1.1085  2.2008  1.2768
 2298TIP3    H228386   1.541   4.510  14.803 -0.7027 -0.3183 -0.6835
 2299TIP3   OH228387   6.771   0.500  12.261 -0.3835  0.1380 -0.8218
 2299TIP3    H128388   6.724   0.437  12.206 -1.5661 -1.1522  1.5349
 2299TIP3    H228389   6.813   0.447  12.328 -1.7927  1.8357  1.5420
 2300TIP3   OH228390   2.589   1.044  13.732 -0.3943  0.3109 -0.4986
 2300TIP3    H128391   2.661   1.107  13.740 -1.0342  1.0951 -0.7636
 2300TIP3    H228392   2.623   0.963  13.770 -0.2020  1.3341  1.6243
 2301TIP3   OH228393   3.472   6.578  16.646  0.3712 -0.3689 -0.3481
 2301TIP3    H128394   3.456   6.655  16.591  0.8561 -0.6474 -0.9044
 2301TIP3    H228395   3.521   6.518  16.589  0.2717 -0.9614  0.1720
 2302TIP3   OH228396   5.216   3.907  16.126  0.0331  0.3468 -0.2848
 2302TIP3    H128397   5.305   3.887  16.098 -0.5468 -0.4477 -1.6774
 2302TIP3    H228398   5.169   3.825  16.118 -1.0004  0.9188 -0.2770
 2303TIP3   OH228399   1.974   6.313  12.665  0.3388  0.4193 -0.0899
 2303TIP3    H128400   1.950   6.273  12.581 -0.9463  0.0727  0.4193
 2303TIP3    H228401   2.023   6.245  12.710 -1.4021 -0.4412  0.5653
 2304TIP3   OH228402   3.443   6.229  11.861 -0.6140 -0.2139 -0.0332
 2304TIP3    H128403   3.402   6.315  11.852  1.5492  1.0035  0.9054
 2304TIP3    H228404   3.384   6.179  11.917 -0.8785  1.4278  1.2179
 2305TIP3   OH228405   6.033   0.204  15.436 -0.5690  0.0709  0.2695
 2305TIP3    H128406   6.010   0.119  15.472 -0.0429 -0.1577  0.0771
 2305TIP3    H228407   5.995   0.205  15.348 -3.6145  1.4104  1.4465
 2306TIP3   OH228408   6.235   3.237   3.210 -0.1025 -0.3401  0.2155
 2306TIP3    H128409   6.293   3.300   3.169 -0.3408  0.0738  0.5072
 2306TIP3    H228410   6.244   3.253   3.304 -1.5720  0.5546  0.2413
 2307TIP3   OH228411   5.920   2.588  13.533 -0.7074 -0.1711 -0.3572
 2307TIP3    H128412   5.907   2.620  13.443  0.5095  1.8944  0.1333
 2307TIP3    H228413   6.010   2.613  13.554 -1.4265  0.7669  1.9482
 2308TIP3   OH228414   5.574   0.709   5.393  0.1146  0.4548 -0.3244
 2308TIP3    H128415   5.562   0.667   5.478 -0.8054 -1.1843 -1.2163
 2308TIP3    H228416   5.485   0.719   5.358  0.4855  1.0231 -1.1514
 2309TIP3   OH228417   2.212   1.544   0.642  0.0415 -0.8420 -0.0498
 2309TIP3    H128418   2.288   1.486   0.642  0.0514 -0.8280 -0.3186
 2309TIP3    H228419   2.137   1.486   0.632  0.0630 -0.7944 -0.5075
 2310TIP3   OH228420   6.469   3.602   2.539  0.1185 -0.1722 -0.1245
 2310TIP3    H128421   6.386   3.646   2.524 -0.6538 -1.0126  1.4382
 2310TIP3    H228422   6.532   3.674   2.550 -0.2376  0.4658 -1.9097
 2311TIP3   OH228423   1.923   2.774  12.793 -0.1429 -0.3805 -0.1388
 2311TIP3    H128424   1.967   2.718  12.856 -0.1986 -0.4206 -0.1360
 2311TIP3    H228425   1.899   2.715  12.721 -0.4359 -0.4102 -0.0189
 2312TIP3   OH228426   4.786   1.687   3.782  0.2206 -0.3099 -0.3998
 2312TIP3    H128427   4.752   1.735   3.857  0.5562 -1.2310  0.3593
 2312TIP3    H228428   4.879   1.710   3.779  0.6349 -1.7239  0.6418
 2313TIP3   OH228429   3.036   0.882  14.379  0.1394 -0.2440  0.5710
 2313TIP3    H128430   3.115   0.929  14.402  0.0909  0.1514 -0.0470
 2313TIP3    H228431   3.048   0.795  14.416  1.5187 -0.6561 -0.7650
 2314TIP3   OH228432   5.597   1.530  14.356 -0.5209 -0.3308 -0.0953
 2314TIP3    H128433   5.523   1.523  14.297  0.3269  0.0808 -1.2439
 2314TIP3    H228434   5.658   1.589  14.312  1.1850 -1.8550  0.0476
 2315TIP3   OH228435   3.664   5.452   3.111  0.3529 -0.1507 -0.5045
 2315TIP3    H128436   3.730   5.498   3.060  2.1283 -0.6222  1.2186
 2315TIP3    H228437   3.630   5.518   3.171  0.1249 -0.1918 -0.5876
 2316TIP3   OH228438   5.287   0.774  11.769 -0.0178  0.7277  0.4356
 2316TIP3    H128439   5.323   0.862  11.785 -0.9515  1.2941 -0.4488
 2316TIP3    H228440   5.258   0.776  11.678 -0.6563 -0.2847  0.6000
 2317TIP3   OH228441   0.495   0.412  11.857 -0.5112 -0.2889  0.4002
 2317TIP3    H128442   0.459   0.342  11.912 -1.8782  0.1165  0.0726
 2317TIP3    H228443   0.553   0.367  11.796  1.0174 -0.7450  2.1198
 2318TIP3   OH228444   5.790   0.787   0.820  0.3849  0.4407  0.0240
 2318TIP3    H128445   5.763   0.867   0.866 -1.9243 -0.0486 -0.3574
 2318TIP3    H228446   5.729   0.781   0.746  0.9026 -1.3703 -0.2966
 2319TIP3   OH228447   4.178   3.990   5.037  0.0641 -0.1934 -0.2496
 2319TIP3    H128448   4.261   3.951   5.011 -0.6251 -0.2389 -2.5271
 2319TIP3    H228449   4.188   4.083   5.016 -0.6464 -0.2914 -1.0310
 2320TIP3   OH228450   5.693   6.074   4.169  0.0115 -0.5741 -0.4821
 2320TIP3    H128451   5.777   6.117   4.152 -0.5699  0.4881 -0.7064
 2320TIP3    H228452   5.627   6.137   4.141 -0.8852 -1.1553  0.2665
 2321TIP3   OH228453   6.368   0.425  12.900 -0.4206 -0.4807  0.7482
 2321TIP3    H128454   6.426   0.352  12.921 -0.0091 -0.5793 -0.6480
 2321TIP3    H228455   6.392   0.494  12.962  2.2770  0.0226 -0.7039
 2322TIP3   OH228456   6.533   2.051   4.235  0.2090 -0.5543  0.3193
 2322TIP3    H128457   6.554   2.136   4.196  1.5756 -0.4082  1.2693
 2322TIP3    H228458   6.477   2.073   4.310  2.0146 -0.2310  1.6672
 2323TIP3   OH228459   5.484   3.118   3.568  0.1846 -0.3418 -0.3016
 2323TIP3    H128460   5.530   3.050   3.520  0.3078  0.1284 -0.8577
 2323TIP3    H228461   5.543   3.142   3.639 -0.8481 -2.5322  1.4582
 2324TIP3   OH228462   2.560   1.439   3.789 -0.3223 -0.4784 -0.3373
 2324TIP3    H128463   2.628   1.496   3.825 -1.1485 -0.5619  1.4800
 2324TIP3    H228464   2.521   1.490   3.718  0.6363  0.1841 -0.3992
 2325TIP3   OH228465   0.174   4.863  16.498 -0.0379  0.0216 -0.2189
 2325TIP3    H128466   0.087   4.874  16.459 -0.3609  0.2421  0.5487
 2325TIP3    H228467   0.223   4.939  16.467 -0.2850  0.1912 -0.1959
 2326TIP3   OH228468   0.216   0.126  13.253  0.0082  0.0602  0.1327
 2326TIP3    H128469   0.144   0.099  13.309 -0.1745 -1.6240 -0.8612
 2326TIP3    H228470   0.283   0.060  13.266  0.9932  1.0419  0.2535
 2327TIP3   OH228471   4.784   5.930   3.595 -0.1200  0.3815 -0.1116
 2327TIP3    H128472   4.715   5.933   3.662 -0.6017  0.2608 -0.5936
 2327TIP3    H228473   4.838   5.854   3.619 -0.6334 -0.0119 -0.1820
 2328TIP3   OH228474   5.102   1.368  13.990  0.3267  0.1561  0.0745
 2328TIP3    H128475   5.052   1.357  13.909  1.0286 -0.9796 -0.2378
 2328TIP3    H228476   5.076   1.293  14.044  1.0181  0.0310  0.2499
 2329TIP3   OH228477   2.879   0.247  17.225  0.3410 -0.0259 -0.1042
 2329TIP3    H128478   2.882   0.196  17.144  0.9243 -0.3619  0.1248
 2329TIP3    H228479   2.893   0.183  17.295 -0.5238  0.2023  0.2913
 2330TIP3   OH228480   2.316   3.148   0.626 -0.2602  0.8135 -0.4265
 2330TIP3    H128481   2.403   3.175   0.655 -0.6561  1.0288  0.5930
 2330TIP3    H228482   2.275   3.111   0.705  1.1558 -5.3606 -2.0415
 2331TIP3   OH228483   5.710   6.821  12.020 -0.1654 -0.3119  0.4333
 2331TIP3    H128484   5.764   6.866  11.955 -0.2866 -1.2012 -0.2993
 2331TIP3    H228485   5.675   6.745  11.973 -0.8509 -0.5576  1.3316
 2332TIP3   OH228486   0.258   1.366   4.178  0.4165  0.5853 -0.5240
 2332TIP3    H128487   0.180   1.349   4.126 -0.6216 -0.1330  1.1821
 2332TIP3    H228488   0.259   1.295   4.243  3.0576 -0.0269 -1.1088
 2333TIP3   OH228489   0.295   0.134  15.132 -0.0337 -0.1343 -0.1955
 2333TIP3    H128490   0.329   0.193  15.065 -1.5075  0.4832 -0.4239
 2333TIP3    H228491   0.293   0.048  15.090  0.6420 -0.0717 -0.3664
 2334TIP3   OH228492   5.602   0.332   1.283  0.1703  0.2967  0.8716
 2334TIP3    H128493   5.684   0.350   1.329  2.5845 -2.1984 -2.0201
 2334TIP3    H228494   5.606   0.387   1.205 -1.7019  1.2026  1.3528
 2335TIP3   OH228495   5.216   5.119  11.926 -0.5517 -0.0534 -0.0258
 2335TIP3    H128496   5.137   5.096  11.976 -1.1676  1.1278 -0.4050
 2335TIP3    H228497   5.225   5.048  11.862 -0.4466 -0.9579  0.9753
 2336TIP3   OH228498   2.148   6.218   1.736  0.0008  0.0787  0.4864
 2336TIP3    H128499   2.197   6.213   1.653 -0.6251 -1.9668  0.1928
 2336TIP3    H228500   2.209   6.259   1.797  1.0875  0.0856 -0.5654
 2337TIP3   OH228501   4.958   3.979  16.697 -0.3570 -0.5023  0.3559
 2337TIP3    H128502   4.973   3.972  16.791 -3.2997  0.8643  1.0336
 2337TIP3    H228503   5.040   4.012  16.662  0.6115 -0.4494  2.5155
 2338TIP3   OH228504   2.399   0.640  14.917  0.0415  0.0488  0.3329
 2338TIP3    H128505   2.306   0.623  14.906  0.4716 -2.6211  0.0723
 2338TIP3    H228506   2.429   0.668  14.831 -0.7450  2.5556  0.8046
 2339TIP3   OH228507   0.681   2.075   1.346 -0.6267 -0.2162  0.1506
 2339TIP3    H128508   0.753   2.012   1.353 -0.5952 -0.4524 -1.8817
 2339TIP3    H228509   0.629   2.044   1.272 -1.2401  1.5257 -0.1897
 2340TIP3   OH228510   0.459   4.964   4.689  0.4359  0.4039  0.3603
 2340TIP3    H128511   0.496   5.014   4.761 -1.7532  1.0911  1.0836
 2340TIP3    H228512   0.384   4.918   4.727 -0.9128  0.9502 -1.4867
 2341TIP3   OH228513   1.623   3.267  16.074  0.1832 -0.1984  0.0818
 2341TIP3    H128514   1.668   3.278  15.991  0.2433 -1.2530 -0.0263
 2341TIP3    H228515   1.693   3.252  16.138  0.1313  0.5035  0.3163
 2342TIP3   OH228516   6.216   0.388   4.971  0.0781  0.4592 -0.0557
 2342TIP3    H128517   6.144   0.325   4.967  1.2277 -0.8343 -1.6088
 2342TIP3    H228518   6.182   0.460   5.025 -2.4374  0.0148 -0.9262
 2343TIP3   OH228519   5.083   6.011   5.191  0.1626  0.3392  0.0554
 2343TIP3    H128520   4.993   6.043   5.187 -0.4374 -1.2547 -0.0305
 2343TIP3    H228521   5.136   6.089   5.209 -1.1098  1.4846 -0.9486
 2344TIP3   OH228522   3.781   2.922   0.604  0.3748  0.3744 -0.0226
 2344TIP3    H128523   3.788   2.892   0.514  0.4782  1.2158 -0.3053
 2344TIP3    H228524   3.749   3.012   0.597 -0.7866  0.0576  0.8264
 2345TIP3   OH228525   0.702   4.306  12.700  0.5446 -0.3124  0.0937
 2345TIP3    H128526   0.612   4.337  12.687  0.5470 -0.7996 -1.2805
 2345TIP3    H228527   0.697   4.244  12.772 -0.1400  0.0097  0.3256
 2346TIP3   OH228528   1.241   0.336  11.404  0.9297  0.6096  0.2490
 2346TIP3    H128529   1.210   0.413  11.452  2.3923  0.3448  1.7038
 2346TIP3    H228530   1.334   0.328  11.427  0.8072 -1.6485  0.2300
 2347TIP3   OH228531   5.216   3.784   3.637 -0.0355 -0.3974  0.2131
 2347TIP3    H128532   5.134   3.828   3.615  0.8047  0.4135 -1.4485
 2347TIP3    H228533   5.251   3.754   3.553  1.1473 -1.1551  0.9409
 2348TIP3   OH228534   0.008   1.630   1.232 -0.2624 -0.0691 -0.1638
 2348TIP3    H128535   0.014   1.718   1.268  0.6415 -0.4453  0.6714
 2348TIP3    H228536   0.097   1.608   1.206 -0.3195 -1.0393  0.4047
 2349TIP3   OH228537   4.745   5.435   0.033  1.2026 -0.6238 -0.5472
 2349TIP3    H128538   4.804   5.474   0.098 -2.2459  0.3183  2.3701
 2349TIP3    H228539   4.734   5.504  -0.033  0.3988  0.7732  0.9761
 2350TIP3   OH228540   1.611   1.073   0.231  0.1189  0.5363  0.1917
 2350TIP3    H128541   1.616   1.136   0.159 -0.2651 -0.0869 -0.3786
 2350TIP3    H228542   1.655   1.118   0.304 -1.0311  1.8987  0.1051
 2351TIP3   OH228543   0.273   3.243   0.207  0.3246 -0.0977 -0.1396
 2351TIP3    H128544   0.292   3.303   0.135  1.2863 -1.3242 -0.9565
 2351TIP3    H228545   0.246   3.162   0.164 -0.8599 -0.3067  0.9399
 2352TIP3   OH228546   4.307   6.467  11.173 -0.0924  0.2655  0.0598
 2352TIP3    H128547   4.249   6.392  11.184  2.9629 -2.4674 -0.6729
 2352TIP3    H228548   4.317   6.476  11.078  1.0075  0.2800  0.1552
 2353TIP3   OH228549   2.504   0.485   6.482  0.0095 -0.4751 -0.0024
 2353TIP3    H128550   2.472   0.420   6.420  1.8737  0.3637 -1.9738
 2353TIP3    H228551   2.523   0.436   6.562  3.5758 -2.9881 -2.1020
 2354TIP3   OH228552   6.621   1.905   5.654 -0.6320 -0.4023 -0.4763
 2354TIP3    H128553   6.612   1.819   5.695 -0.1769  0.3573  1.3181
 2354TIP3    H228554   6.577   1.965   5.715  0.0205  0.7804 -1.1337
 2355TIP3   OH228555   4.497   5.160   2.454  0.7003  0.2762 -0.5595
 2355TIP3    H128556   4.569   5.137   2.512 -1.2344  0.2832  1.9951
 2355TIP3    H228557   4.449   5.078   2.440  0.5619  0.4761 -1.3545
 2356TIP3   OH228558   0.446   0.906  14.572 -0.1168 -0.9944  0.6181
 2356TIP3    H128559   0.379   0.898  14.640 -1.0953  0.5898 -0.1038
 2356TIP3    H228560   0.482   0.994  14.584  0.9068 -1.3389  0.1494
 2357TIP3   OH228561   0.056   4.126  14.111 -0.0139  0.3450  0.4332
 2357TIP3    H128562   0.080   4.106  14.202  1.5167  0.3275  0.0564
 2357TIP3    H228563  -0.035   4.097  14.104  0.1126 -0.4783  1.7157
 2358TIP3   OH228564   3.672   6.588  17.045  0.0513 -0.6129 -0.0928
 2358TIP3    H128565   3.676   6.669  17.097 -0.8484 -0.4226 -0.2924
 2358TIP3    H228566   3.688   6.617  16.955 -1.1781 -0.4946 -0.2947
 2359TIP3   OH228567   5.642   2.092   0.346  0.0904  0.3357  0.4804
 2359TIP3    H128568   5.714   2.153   0.361  1.3611  0.3889 -4.1907
 2359TIP3    H228569   5.584   2.136   0.284 -0.1565 -2.2110 -1.2952
 2360TIP3   OH228570   2.616   5.712   2.817  0.2003 -0.1245  0.0129
 2360TIP3    H128571   2.607   5.627   2.775  1.1261 -0.0774 -0.3080
 2360TIP3    H228572   2.698   5.707   2.866 -0.3058  0.2050  0.9147
 2361TIP3   OH228573   1.440   1.783  10.816 -0.4068  0.5173 -0.1658
 2361TIP3    H128574   1.400   1.834  10.745  0.1739  0.3613 -0.6199
 2361TIP3    H228575   1.465   1.701  10.774 -0.0028  0.4493  0.2063
 2362TIP3   OH228576   1.520   6.815   1.610 -0.3330 -0.5162  0.1963
 2362TIP3    H128577   1.466   6.740   1.636  0.6323 -1.5534 -0.6729
 2362TIP3    H228578   1.609   6.781   1.607  0.3174  1.0225  1.0342
 2363TIP3   OH228579   1.570   4.940  15.064 -0.6006 -0.2497  0.8320
 2363TIP3    H128580   1.487   4.917  15.024 -0.5983  0.1493  0.5988
 2363TIP3    H228581   1.633   4.938  14.992 -0.9441  2.5176  0.3362
 2364TIP3   OH228582   1.580   3.079   0.241  0.4292  0.3420  0.1255
 2364TIP3    H128583   1.486   3.067   0.231  0.2402  1.7535  0.0273
 2364TIP3    H228584   1.589   3.126   0.324  0.8758  1.9316 -0.7749
 2365TIP3   OH228585   3.620   1.763  15.130 -0.5836  0.5087 -0.1591
 2365TIP3    H128586   3.698   1.792  15.178 -1.0994  0.8096  0.5212
 2365TIP3    H228587   3.651   1.693  15.073  0.6668  2.2552 -1.7180
 2366TIP3   OH228588   2.908   1.555  14.208 -0.3826 -0.2947  1.0006
 2366TIP3    H128589   2.946   1.576  14.123 -0.0481  0.6715  1.3792
 2366TIP3    H228590   2.821   1.521  14.188 -0.4761  0.3434  0.2971
 2367TIP3   OH228591   2.497   0.605  13.700  0.7386 -0.2759 -0.4260
 2367TIP3    H128592   2.543   0.666  13.642  1.8500  0.6601  1.3432
 2367TIP3    H228593   2.404   0.626  13.688  0.7666 -1.4417 -3.2425
 2368TIP3   OH228594   5.110   5.917  11.327  0.2700  0.0921  0.3584
 2368TIP3    H128595   5.133   5.945  11.239  0.1335  0.0775  0.3183
 2368TIP3    H228596   5.061   5.991  11.363 -1.3608 -0.6516 -0.2472
 2369TIP3   OH228597   3.199   3.546  11.560  0.7490 -0.2128  0.1702
 2369TIP3    H128598   3.124   3.485  11.556  1.0530 -0.7119  1.6169
 2369TIP3    H228599   3.178   3.605  11.631 -0.9657  3.4420 -3.0169
 2370TIP3   OH228600   3.597   0.822  14.357  0.2048  0.4879  0.2477
 2370TIP3    H128601   3.547   0.755  14.404  1.1308 -0.7095 -0.4145
 2370TIP3    H228602   3.581   0.902  14.406 -0.8062 -0.2391  1.1655
 2371TIP3   OH228603   2.997   2.339   5.701  0.3586 -0.0040 -0.0181
 2371TIP3    H128604   2.956   2.367   5.619  0.5278 -0.3286 -0.2145
 2371TIP3    H228605   3.089   2.326   5.678  0.6446  1.0389  0.4972
 2372TIP3   OH228606   1.277   1.116  14.775  0.1879 -0.6294 -0.5421
 2372TIP3    H128607   1.246   1.103  14.865  1.8898  0.1980  0.2099
 2372TIP3    H228608   1.313   1.030  14.750  1.9725 -0.2475  0.5381
 2373TIP3   OH228609   1.930   6.016  15.779  0.4092 -0.1923  0.1087
 2373TIP3    H128610   1.856   5.989  15.725 -0.3893  0.3902  0.8940
 2373TIP3    H228611   1.956   5.936  15.825  0.5181 -0.4848 -0.4480
 2374TIP3   OH228612   1.712   4.987  11.901  0.1151 -0.1714 -0.1864
 2374TIP3    H128613   1.672   4.920  11.846 -1.2628 -1.4905  2.2196
 2374TIP3    H228614   1.678   5.070  11.868 -0.7678 -0.9143 -1.2040
 2375TIP3   OH228615   1.066   5.836  11.628 -0.0897 -0.1864 -0.4937
 2375TIP3    H128616   0.976   5.868  11.626  0.0589  0.2082 -0.9823
 2375TIP3    H228617   1.104   5.874  11.708  0.5034  2.0439 -1.7535
 2376TIP3   OH228618   1.640   1.788  11.023  0.1020  0.5202 -0.1769
 2376TIP3    H128619   1.711   1.851  11.022  0.1498  0.5550  1.5914
 2376TIP3    H228620   1.586   1.810  10.947  1.3797  1.1757 -0.9129
 2377TIP3   OH228621   2.269   2.616   2.245 -0.7540 -0.7724 -0.2689
 2377TIP3    H128622   2.202   2.633   2.313 -0.3717 -1.6795  0.3518
 2377TIP3    H228623   2.319   2.543   2.279  0.8686  0.1822 -0.5133
 2378TIP3   OH228624   3.758   3.279  16.467  0.7778 -0.1174 -0.1964
 2378TIP3    H128625   3.844   3.247  16.497  0.4928 -0.9994 -0.2847
 2378TIP3    H228626   3.754   3.369  16.498  1.5872 -0.1810  0.1280
 2379TIP3   OH228627   5.881   0.849  12.863 -0.2336  0.1390 -0.0235
 2379TIP3    H128628   5.909   0.765  12.828  1.2802  0.6757 -0.1805
 2379TIP3    H228629   5.863   0.832  12.956  1.7688 -0.0183  0.3641
 2380TIP3   OH228630   1.023   0.162  15.469 -0.6991  0.1080 -0.6728
 2380TIP3    H128631   1.095   0.190  15.525 -1.8709  1.4859  0.2127
 2380TIP3    H228632   1.065   0.126  15.391  0.9233  1.0121 -0.2500
 2381TIP3   OH228633   3.851   2.200   2.069  0.1330  0.1514  0.6347
 2381TIP3    H128634   3.806   2.228   1.990 -0.6111 -2.1717  0.1579
 2381TIP3    H228635   3.919   2.141   2.037 -0.1162 -0.7394  1.7128
 2382TIP3   OH228636   2.932   2.903   3.206  0.2335  0.5366 -0.2935
 2382TIP3    H128637   2.887   2.987   3.205  0.2585  0.5489 -0.5722
 2382TIP3    H228638   2.895   2.855   3.131 -0.0114  0.1784  0.0545
 2383TIP3   OH228639   0.856   2.093   4.315  0.7118 -0.0322  0.3029
 2383TIP3    H128640   0.833   2.084   4.223  0.2736 -2.5982  0.6007
 2383TIP3    H228641   0.776   2.073   4.363  0.4181  3.0124  1.3397
 2384TIP3   OH228642   3.973   5.024   5.436  0.7046  0.3567  0.1520
 2384TIP3    H128643   4.062   5.024   5.400  0.9696 -0.2854  0.7687
 2384TIP3    H228644   3.922   4.971   5.374  0.2243  2.4377 -1.3488
 2385TIP3   OH228645   4.376   2.884  11.896  0.3812  0.1955  0.1028
 2385TIP3    H128646   4.359   2.798  11.935  0.2329  0.2397  0.1375
 2385TIP3    H228647   4.466   2.904  11.920 -0.2386  0.9891  1.8929
 2386TIP3   OH228648   3.321   1.726  14.214 -0.1204  0.6111  0.1013
 2386TIP3    H128649   3.398   1.673  14.237  0.0992  0.8622 -0.0500
 2386TIP3    H228650   3.322   1.729  14.118 -0.9207 -0.2679  0.0531
 2387TIP3   OH228651   6.759   5.672   4.153 -0.3944 -0.5586 -0.1794
 2387TIP3    H128652   6.666   5.691   4.166 -0.4439 -0.8633 -0.1029
 2387TIP3    H228653   6.783   5.616   4.226  0.3599  1.2130  1.0118
 2388TIP3   OH228654   2.896   4.056   3.091  0.0488 -0.1033  0.0731
 2388TIP3    H128655   2.859   3.968   3.103  0.1028 -0.0629  0.5450
 2388TIP3    H228656   2.867   4.082   3.004  1.0166 -1.0730 -0.5597
 2389TIP3   OH228657   5.544   2.531  15.120  0.2184  0.0242 -0.3592
 2389TIP3    H128658   5.477   2.549  15.186  0.3825  0.5561 -0.3359
 2389TIP3    H228659   5.562   2.616  15.080 -0.2075 -0.3626 -1.4066
 2390TIP3   OH228660   3.367   2.851   5.014 -0.5974 -0.2119 -0.2597
 2390TIP3    H128661   3.397   2.803   4.936  0.8234 -0.2209  0.2555
 2390TIP3    H228662   3.282   2.813   5.034 -0.3260 -1.2404 -0.9560
 2391TIP3   OH228663   2.592   1.668  13.830  0.0820  0.2934  0.0038
 2391TIP3    H128664   2.570   1.727  13.902 -1.6905 -1.1864  0.7853
 2391TIP3    H228665   2.571   1.717  13.751  2.2612  2.0335  0.4291
 2392TIP3   OH228666   5.126   6.760   0.352 -0.3939  0.9250  0.3828
 2392TIP3    H128667   5.117   6.666   0.363 -1.6877  1.2484  2.9669
 2392TIP3    H228668   5.070   6.782   0.278 -0.1354 -0.3118 -0.1879
 2393TIP3   OH228669   6.572   2.117  12.000 -0.7232 -0.0853  0.0212
 2393TIP3    H128670   6.481   2.148  12.002 -0.1845  1.7458 -0.8049
 2393TIP3    H228671   6.589   2.102  11.907 -0.8024 -2.6169  0.3500
 2394TIP3   OH228672   4.682   0.652   3.840 -0.4862  0.2659  0.8317
 2394TIP3    H128673   4.776   0.636   3.845 -0.1756  1.9103  0.9664
 2394TIP3    H228674   4.647   0.619   3.923  0.2029  0.9533  1.4050
 2395TIP3   OH228675   3.778   4.603  13.881 -0.2986  0.9365 -0.0983
 2395TIP3    H128676   3.772   4.622  13.974 -0.2764  2.0509 -0.3155
 2395TIP3    H228677   3.762   4.687  13.837 -2.2373  0.0711 -1.1738
 2396TIP3   OH228678   4.285   6.754  17.045 -0.4435 -0.1297  0.1322
 2396TIP3    H128679   4.379   6.771  17.040 -0.2133 -0.8657  1.5141
 2396TIP3    H228680   4.246   6.840  17.062 -0.1966  0.4283 -1.8698
 2397TIP3   OH228681   4.889   1.490   6.153  0.4859 -0.4174  1.1724
 2397TIP3    H128682   4.828   1.421   6.180 -1.9527  0.9240 -0.5090
 2397TIP3    H228683   4.886   1.553   6.225 -2.5059  0.9993 -0.0065
 2398TIP3   OH228684   1.491   4.528   2.983 -0.5418  0.0562 -0.5105
 2398TIP3    H128685   1.562   4.586   2.956 -0.7375 -0.3218 -1.9446
 2398TIP3    H228686   1.502   4.450   2.928 -1.2178 -0.6146  0.2692
 2399TIP3   OH228687   5.380   6.037   0.443  0.4035  0.7584  0.3470
 2399TIP3    H128688   5.434   5.967   0.408 -0.5685  0.7689 -1.2715
 2399TIP3    H228689   5.442   6.099   0.481  1.3700 -0.1782  0.3302
 2400TIP3   OH228690   5.758   6.435  13.602  0.4396 -0.4884  0.5956
 2400TIP3    H128691   5.729   6.497  13.536 -0.7478  0.4171  1.8949
 2400TIP3    H228692   5.746   6.481  13.685  0.9390 -1.9288  1.5049
 2401TIP3   OH228693   0.023   1.408  12.951 -0.3946  0.2686  0.1651
 2401TIP3    H128694   0.058   1.497  12.943  1.1241 -0.2447  0.6146
 2401TIP3    H228695   0.098   1.357  12.983 -1.4917 -0.9895  0.7827
 2402TIP3   OH228696   3.570   6.113   6.438 -0.0351 -0.0075 -0.1632
 2402TIP3    H128697   3.588   6.111   6.344  0.3623 -0.1473 -0.0867
 2402TIP3    H228698   3.656   6.122   6.479 -0.2781  1.0157  0.1600
 2403TIP3   OH228699   5.957   2.701  12.823  0.2872  0.2014  0.0530
 2403TIP3    H128700   5.868   2.690  12.855 -0.4567 -2.9375 -2.5486
 2403TIP3    H228701   5.970   2.796  12.818 -2.5998  0.7493  1.1219
 2404TIP3   OH228702   6.712   3.199   5.062 -0.1197 -0.0414 -0.1177
 2404TIP3    H128703   6.645   3.143   5.103  0.4324  0.2729  1.2924
 2404TIP3    H228704   6.728   3.267   5.128  2.4072 -0.7449  0.0715
 2405TIP3   OH228705   2.447   0.241   2.712  0.1058  0.2309  0.2646
 2405TIP3    H128706   2.353   0.221   2.718 -0.0429 -0.3194 -2.4843
 2405TIP3    H228707   2.451   0.322   2.661  1.1225 -0.6783 -1.1675
 2406TIP3   OH228708   1.432   0.756  12.121  0.0820  0.0892 -0.3717
 2406TIP3    H128709   1.503   0.722  12.176 -0.3635 -1.2017 -0.5491
 2406TIP3    H228710   1.476   0.789  12.043  0.4284 -3.9589 -2.1782
 2407TIP3   OH228711   3.721   1.356   1.028 -0.5296 -0.6030  0.4423
 2407TIP3    H128712   3.653   1.321   0.971 -0.2904 -0.0615 -0.1962
 2407TIP3    H228713   3.748   1.438   0.985  0.7816 -0.9934  0.4623
 2408TIP3   OH228714   0.169   5.739   4.372  0.0830  0.5847  0.6900
 2408TIP3    H128715   0.111   5.816   4.375  0.1856  0.6724  3.7123
 2408TIP3    H228716   0.111   5.665   4.393  0.6899  0.4270  1.8799
 2409TIP3   OH228717   5.495   0.214   2.570  0.2374 -0.1723 -0.1335
 2409TIP3    H128718   5.519   0.229   2.478  0.2614  0.7650  0.0187
 2409TIP3    H228719   5.412   0.167   2.565  0.0214  0.2481 -0.6416
 2410TIP3   OH228720   0.527   2.520   0.509  0.3935 -0.8434 -0.6237
 2410TIP3    H128721   0.520   2.616   0.504  0.5961 -0.7900  0.0492
 2410TIP3    H228722   0.582   2.504   0.585 -0.5973 -1.5315 -0.0281
 2411TIP3   OH228723   4.182   5.145   5.024  0.1798 -0.2040  0.3058
 2411TIP3    H128724   4.118   5.121   4.957  1.3392 -0.6831 -0.6761
 2411TIP3    H228725   4.189   5.240   5.017 -0.5276 -0.1396  0.5089
 2412TIP3   OH228726   5.579   1.364  15.393  0.0729 -0.2184 -0.3606
 2412TIP3    H128727   5.571   1.341  15.301  0.1345 -0.1404 -0.3858
 2412TIP3    H228728   5.603   1.457  15.393 -1.3785  0.1764 -0.2259
 2413TIP3   OH228729   2.409   6.113   2.197  0.1766 -0.2671  0.3138
 2413TIP3    H128730   2.498   6.141   2.175 -0.6544  0.8839 -1.9593
 2413TIP3    H228731   2.360   6.195   2.205 -1.2880 -0.9109 -1.4758
 2414TIP3   OH228732   5.012   1.340  13.708  0.0677 -0.1398 -0.0510
 2414TIP3    H128733   5.041   1.344  13.616  0.2351  0.9336  0.0355
 2414TIP3    H228734   5.040   1.253  13.738  0.3549 -0.3538 -0.9029
 2415TIP3   OH228735   5.944   1.550   1.592  0.0972 -0.0296  0.3194
 2415TIP3    H128736   5.982   1.476   1.640 -0.8818 -1.0782 -0.4598
 2415TIP3    H228737   5.861   1.516   1.558 -0.2996  1.3917 -0.2029
 2416TIP3   OH228738   1.893   0.374  16.678 -0.5770 -0.1872 -0.1350
 2416TIP3    H128739   1.832   0.326  16.622 -2.3392  0.8637  0.7743
 2416TIP3    H228740   1.837   0.437  16.725  1.0296 -0.0427  1.6999
 2417TIP3   OH228741   5.324   3.530  14.914 -0.1530 -0.2583 -0.5872
 2417TIP3    H128742   5.270   3.524  14.836 -0.3840  1.8598 -0.6448
 2417TIP3    H228743   5.387   3.599  14.895  1.6425 -1.6487  0.0527
 2418TIP3   OH228744   4.943   0.832   0.795 -0.0881  0.1310  0.5923
 2418TIP3    H128745   4.848   0.826   0.804 -0.3498  2.7622  0.3727
 2418TIP3    H228746   4.956   0.895   0.724  1.8065  1.2970  1.8956
 2419TIP3   OH228747   6.014   1.333   1.754  0.6701  0.1829 -0.4250
 2419TIP3    H128748   6.066   1.280   1.814 -1.5211 -1.9692 -0.2400
 2419TIP3    H228749   5.941   1.365   1.808  0.3417  0.8522 -1.2454
 2420TIP3   OH228750   0.499   1.492   2.989 -0.0073  0.0386 -0.0447
 2420TIP3    H128751   0.418   1.469   2.943 -0.5180  0.4565  0.6242
 2420TIP3    H228752   0.533   1.409   3.021 -0.4536 -0.0831  0.1216
 2421TIP3   OH228753   2.809   5.065  14.167 -0.3257 -0.2608 -0.5579
 2421TIP3    H128754   2.874   5.025  14.226 -0.9544 -2.6479 -1.3731
 2421TIP3    H228755   2.743   5.102  14.225 -0.2077 -1.2964  0.2621
 2422TIP3   OH228756   3.259   5.399  13.276  0.1417  0.4190 -0.5398
 2422TIP3    H128757   3.222   5.345  13.206  1.8017 -2.2810  0.5085
 2422TIP3    H228758   3.222   5.362  13.356  1.0460  1.1019  0.2058
 2423TIP3   OH228759   6.184   6.136   3.066  0.1015 -0.4481 -0.2333
 2423TIP3    H128760   6.198   6.205   3.001 -1.1116 -0.1518 -0.1912
 2423TIP3    H228761   6.163   6.058   3.014 -1.3996 -0.0841 -0.1958
 2424TIP3   OH228762   3.979   4.933   1.147  0.0576 -0.3254  0.0573
 2424TIP3    H128763   3.983   4.851   1.097  0.8960 -0.5386  0.4471
 2424TIP3    H228764   3.925   4.991   1.094  2.1195 -0.0195 -1.8882
 2425TIP3   OH228765   3.930   4.862  15.970  0.3531 -0.0086 -0.2314
 2425TIP3    H128766   3.964   4.945  16.002  0.2323 -0.5137  1.3003
 2425TIP3    H228767   4.001   4.825  15.917  1.6089 -0.2711  1.5306
 2426TIP3   OH228768   4.593   6.260   0.100  0.2368 -0.9170  0.1064
 2426TIP3    H128769   4.646   6.320   0.048 -0.8453  0.4032  0.4427
 2426TIP3    H228770   4.509   6.256   0.054 -1.5322  1.9503  2.6109
 2427TIP3   OH228771   3.278   4.608   5.622 -0.8836 -0.0388 -0.3748
 2427TIP3    H128772   3.317   4.656   5.695 -0.9599  0.4719 -0.6677
 2427TIP3    H228773   3.199   4.569   5.659 -1.4322  0.9974 -0.4156
 2428TIP3   OH228774   0.395   2.979  12.207  0.1782  0.1606  0.4175
 2428TIP3    H128775   0.459   3.041  12.173  0.3398  0.2817  0.9274
 2428TIP3    H228776   0.326   3.034  12.243  0.6093  0.0663  1.4236
 2429TIP3   OH228777   0.042   1.889   6.481 -0.5239  0.2447  0.2032
 2429TIP3    H128778   0.036   1.847   6.395 -2.7576  0.6864  0.1074
 2429TIP3    H228779   0.125   1.856   6.517 -0.6655 -1.7643 -1.1457
 2430TIP3   OH228780   6.469   3.422  16.246  0.3266 -0.0141 -0.5187
 2430TIP3    H128781   6.389   3.370  16.252  0.2025  0.3207  2.0609
 2430TIP3    H228782   6.540   3.360  16.264  0.4225  0.1759 -0.2356
 2431TIP3   OH228783   1.967   0.122   4.910  0.6075  0.1138 -0.4494
 2431TIP3    H128784   2.009   0.196   4.955  0.2255  0.0418  0.0367
 2431TIP3    H228785   1.937   0.065   4.981  1.2984 -0.7359 -0.8197
 2432TIP3   OH228786   3.445   5.128   2.545  0.1194  0.0357  0.2303
 2432TIP3    H128787   3.473   5.199   2.603  0.3720 -0.4517  0.7127
 2432TIP3    H228788   3.499   5.137   2.467  2.0460 -1.2217  1.3601
 2433TIP3   OH228789   1.509   4.275  14.042  0.2759 -0.1409 -0.0113
 2433TIP3    H128790   1.433   4.254  14.096 -0.1877 -0.8766 -0.9264
 2433TIP3    H228791   1.582   4.279  14.104 -0.3945 -0.0250  0.7921
 2434TIP3   OH228792   3.545   4.367   2.677 -0.2842  0.5293 -0.2996
 2434TIP3    H128793   3.496   4.318   2.742  0.7340 -0.0043  0.0868
 2434TIP3    H228794   3.481   4.388   2.609 -0.6831 -1.6074 -0.6389
 2435TIP3   OH228795   3.273   6.600  14.738  0.0040  0.0562 -0.3837
 2435TIP3    H128796   3.242   6.679  14.781  1.9781  0.8396 -0.3234
 2435TIP3    H228797   3.283   6.624  14.646 -1.3261 -0.7452 -0.7683
 2436TIP3   OH228798   3.240   1.323  12.159 -0.1281 -0.3777  0.0616
 2436TIP3    H128799   3.149   1.294  12.155  0.1274 -1.1373 -0.4269
 2436TIP3    H228800   3.253   1.374  12.079 -0.4941  0.9077  0.7821
 2437TIP3   OH228801   6.821   0.519  12.933 -0.4813  0.5458 -0.3869
 2437TIP3    H128802   6.795   0.528  13.025 -0.6245 -1.1367 -0.2290
 2437TIP3    H228803   6.742   0.542  12.884 -0.7516  0.3555 -0.0498
 2438TIP3   OH228804   0.725   4.491  16.918 -0.2065 -0.0711  0.1258
 2438TIP3    H128805   0.694   4.516  17.005  0.3619 -0.7378  0.5334
 2438TIP3    H228806   0.720   4.395  16.916  0.8657 -0.1420 -0.1432
 2439TIP3   OH228807   5.723   4.674  14.346  0.5583  0.4630  0.3300
 2439TIP3    H128808   5.686   4.714  14.267  1.1029  0.6429  0.1597
 2439TIP3    H228809   5.648   4.637  14.392  0.2797  0.0067 -0.4739
 2440TIP3   OH228810   1.376   6.445  13.221  0.3302 -0.5042 -0.2047
 2440TIP3    H128811   1.326   6.502  13.279 -0.3131 -0.6230 -0.6375
 2440TIP3    H228812   1.412   6.377  13.278  0.2193 -0.2727  0.1444
 2441TIP3   OH228813   5.524   0.345  12.575 -0.2212  0.0647  0.2794
 2441TIP3    H128814   5.511   0.251  12.582 -0.7268  0.1638  0.7333
 2441TIP3    H228815   5.508   0.378  12.663  0.9881  0.4562  0.3691
 2442TIP3   OH228816   6.022   4.126   6.125  0.1062  0.0098 -0.1332
 2442TIP3    H128817   5.984   4.208   6.157  0.3150 -0.0380  0.2403
 2442TIP3    H228818   5.947   4.070   6.106 -0.0250  0.1425 -0.0067
 2443TIP3   OH228819   3.511   0.722  13.940  0.2139 -0.0011 -0.5901
 2443TIP3    H128820   3.439   0.683  13.989  0.2248 -0.3187 -0.8248
 2443TIP3    H228821   3.533   0.802  13.989  0.4636 -0.4931  0.1302
 2444TIP3   OH228822   2.649   1.940   2.522 -0.2225 -0.1985  0.0789
 2444TIP3    H128823   2.609   1.888   2.452  0.8766  0.5613 -1.1573
 2444TIP3    H228824   2.705   1.878   2.568 -1.0325 -0.7325  0.3645
 2445TIP3   OH228825   0.214   3.174   2.370  0.4022 -0.4576  0.1696
 2445TIP3    H128826   0.121   3.182   2.392  0.6143  0.9878  0.6004
 2445TIP3    H228827   0.216   3.169   2.275 -0.2399 -2.6496  0.2113
 2446TIP3   OH228828   5.464   1.291  10.582  0.1991 -0.1277 -0.1493
 2446TIP3    H128829   5.480   1.199  10.563 -0.3553 -0.2246 -0.1806
 2446TIP3    H228830   5.473   1.335  10.498  0.6050 -0.1310 -0.1087
 2447TIP3   OH228831   6.328   4.032  11.920 -0.4583  0.0866 -0.0543
 2447TIP3    H128832   6.246   4.045  11.969 -0.7788 -0.3988 -0.4391
 2447TIP3    H228833   6.330   4.104  11.857  0.7154  1.6092  1.6246
 2448TIP3   OH228834   3.032   6.162  13.280 -0.1682  0.3102 -0.2818
 2448TIP3    H128835   3.012   6.073  13.251  0.6590 -0.2757  0.8520
 2448TIP3    H228836   3.072   6.150  13.366  0.6057  1.7406 -0.4240
 2449TIP3   OH228837   5.491   1.064   3.781  0.0025  0.3980 -0.3785
 2449TIP3    H128838   5.488   0.991   3.843  1.2216  0.5462 -0.1255
 2449TIP3    H228839   5.403   1.068   3.744 -1.3592  1.5054  2.7273
 2450TIP3   OH228840   5.167   1.616   1.185 -0.8175  0.1234  0.0524
 2450TIP3    H128841   5.139   1.524   1.188 -0.7075 -0.0398 -2.3046
 2450TIP3    H228842   5.110   1.657   1.120  0.8679  1.0663 -0.8953
 2451TIP3   OH228843   0.265   4.641   4.547 -0.5522 -0.3738  0.1282
 2451TIP3    H128844   0.229   4.641   4.458 -1.9144 -0.5918  0.6641
 2451TIP3    H228845   0.205   4.587   4.598  1.3761 -2.1032  0.7519
 2452TIP3   OH228846   1.169   3.354  10.414  0.0948 -0.1847  0.5991
 2452TIP3    H128847   1.181   3.424  10.478  0.9105  1.0595 -0.8741
 2452TIP3    H228848   1.080   3.366  10.381  0.8193  1.3111 -0.9321
 2453TIP3   OH228849   6.323   5.660  12.795 -0.3202 -0.0363 -0.3295
 2453TIP3    H128850   6.416   5.673  12.779  0.4417 -3.5277  0.3010
 2453TIP3    H228851   6.312   5.677  12.889 -0.4494  0.8522 -0.4989
 2454TIP3   OH228852   1.285   4.495  12.748 -0.3632  0.1955 -0.0965
 2454TIP3    H128853   1.275   4.422  12.809  1.1379  0.1175  0.0994
 2454TIP3    H228854   1.378   4.495  12.725 -0.8251  0.3344 -2.2508
 2455TIP3   OH228855   1.201   1.269   3.209 -0.5087  0.2209  0.1079
 2455TIP3    H128856   1.202   1.312   3.294  0.4271  1.6260 -0.5670
 2455TIP3    H228857   1.199   1.341   3.146 -0.8628 -0.7819 -1.0680
 2456TIP3   OH228858   6.549   2.062   3.770  0.2072 -0.0860  0.2547
 2456TIP3    H128859   6.625   2.120   3.776 -0.7829  1.2026  0.8478
 2456TIP3    H228860   6.478   2.120   3.743 -0.7711 -1.0889  0.6387
 2457TIP3   OH228861   2.192   0.593   4.436  0.6003 -0.2217  0.2011
 2457TIP3    H128862   2.267   0.582   4.379  0.1358  0.0205 -0.4606
 2457TIP3    H228863   2.135   0.655   4.391 -0.1222 -0.6023  0.5676
 2458TIP3   OH228864   6.353   2.113   4.470  0.2870  0.2012 -0.1324
 2458TIP3    H128865   6.306   2.165   4.404  1.4644  0.1928 -1.0065
 2458TIP3    H228866   6.284   2.078   4.527 -0.7066  0.7399 -0.9797
 2459TIP3   OH228867   1.592   2.924   0.741 -0.6868  0.5463 -0.4070
 2459TIP3    H128868   1.527   2.958   0.802 -0.3919 -0.9351  0.7980
 2459TIP3    H228869   1.667   2.983   0.752 -0.1619 -0.4031  1.6825
 2460TIP3   OH228870   6.482   2.137   6.269  0.0254 -0.2379 -0.0003
 2460TIP3    H128871   6.511   2.072   6.332  1.6102 -0.8621 -1.2919
 2460TIP3    H228872   6.481   2.219   6.318  1.9518 -0.5636  0.6994
 2461TIP3   OH228873   4.818   3.955   5.940  0.0157  0.5686  0.1511
 2461TIP3    H128874   4.803   3.866   5.970  0.1762  1.1003  1.9109
 2461TIP3    H228875   4.730   3.992   5.930 -0.0331  0.7802  1.2677
 2462TIP3   OH228876   2.003   6.478   5.122 -0.0288  0.1946 -0.0501
 2462TIP3    H128877   2.046   6.546   5.069  0.5156  0.1695  0.3562
 2462TIP3    H228878   2.000   6.402   5.064  1.0035  0.0209  0.1104
 2463TIP3   OH228879   3.676   2.938  11.666 -0.7566  0.3509 -0.3916
 2463TIP3    H128880   3.596   2.918  11.618 -0.7094 -1.1552  0.0749
 2463TIP3    H228881   3.648   2.947  11.757 -0.3629 -0.7802 -0.1300
 2464TIP3   OH228882   3.620   0.831   5.217 -0.1686 -0.4235 -0.0030
 2464TIP3    H128883   3.589   0.788   5.137  0.1189 -2.3158  0.8401
 2464TIP3    H228884   3.663   0.761   5.266  1.0613  1.0356  1.1031
 2465TIP3   OH228885   3.477   2.463   2.955 -0.9657  0.1897  0.0157
 2465TIP3    H128886   3.421   2.532   2.990 -2.4733 -0.7740 -0.3770
 2465TIP3    H228887   3.559   2.471   3.004 -2.3313  0.0205  2.5032
 2466TIP3   OH228888   3.001   2.938   5.288  0.4133  0.4688  0.4145
 2466TIP3    H128889   3.069   3.004   5.270 -1.9246  2.6944 -0.9721
 2466TIP3    H228890   2.919   2.986   5.279 -1.4248 -2.4362  0.5467
 2467TIP3   OH228891   1.229   1.140  15.031 -0.4036  0.0479  0.8550
 2467TIP3    H128892   1.286   1.083  15.083 -0.6450 -0.5109  0.5229
 2467TIP3    H228893   1.157   1.162  15.090 -0.3674 -0.0869  0.9502
 2468TIP3   OH228894   0.193   6.668  15.829  0.4536 -0.2797  0.2236
 2468TIP3    H128895   0.165   6.649  15.740  0.6858 -0.6978  0.2366
 2468TIP3    H228896   0.274   6.620  15.840  1.1845  0.9058  0.1998
 2469TIP3   OH228897   1.472   3.875  14.696 -0.1467  0.1087 -0.3553
 2469TIP3    H128898   1.401   3.905  14.640 -0.2217 -0.9758 -0.8681
 2469TIP3    H228899   1.445   3.788  14.725  0.5247  0.0864  0.2501
 2470TIP3   OH228900   1.936   6.807   1.470  0.0416  0.3182 -0.2655
 2470TIP3    H128901   1.846   6.798   1.503 -0.0232  1.0192 -0.2271
 2470TIP3    H228902   1.983   6.734   1.509 -0.4232  0.1718  0.0347
 2471TIP3   OH228903   3.089   4.286  11.388 -0.4113  0.4356 -0.2223
 2471TIP3    H128904   3.008   4.243  11.359 -1.6128  2.5381 -0.1732
 2471TIP3    H228905   3.067   4.379  11.391  1.5563  0.9183  1.3664
 2472TIP3   OH228906   0.387   0.983  16.555 -0.0213 -0.1078  0.0613
 2472TIP3    H128907   0.435   1.062  16.530 -0.1721 -0.0667 -0.0981
 2472TIP3    H228908   0.295   1.007  16.549 -0.0937 -0.6323 -1.0993
 2473TIP3   OH228909   6.809   6.019  16.264 -0.4546  0.6318  0.2462
 2473TIP3    H128910   6.877   6.056  16.320 -1.3293 -0.4079  2.0940
 2473TIP3    H228911   6.828   6.054  16.177  2.5135  0.2582  0.6315
 2474TIP3   OH228912   4.360   5.146   1.624  0.0967  0.2818  0.0429
 2474TIP3    H128913   4.369   5.237   1.650  1.1348  0.0953  0.4047
 2474TIP3    H228914   4.355   5.097   1.706 -1.8959  0.1073 -0.1348
 2475TIP3   OH228915   5.736   5.802   1.094  0.4320  0.4948  0.0396
 2475TIP3    H128916   5.812   5.750   1.068  0.6799  0.5481  0.6246
 2475TIP3    H228917   5.763   5.893   1.080  0.7254  0.5432  0.8587
 2476TIP3   OH228918   3.995   5.102  11.478  0.1253 -0.0503 -0.5828
 2476TIP3    H128919   3.989   5.009  11.455  1.4413 -0.5909  1.0630
 2476TIP3    H228920   4.075   5.132  11.434  0.7600 -0.2097  0.4427
 2477TIP3   OH228921   3.174   1.477   0.829 -0.6506 -0.8607  0.6817
 2477TIP3    H128922   3.184   1.451   0.737  2.3432  0.0846  0.6324
 2477TIP3    H228923   3.085   1.512   0.835 -0.7356 -0.4292 -1.9943
 2478TIP3   OH228924   4.578   1.871   6.818 -0.0094 -0.3124 -0.1849
 2478TIP3    H128925   4.558   1.935   6.885 -2.3903 -0.3616 -0.7590
 2478TIP3    H228926   4.672   1.854   6.827  0.0926  1.0939  1.8319
 2479TIP3   OH228927   2.267   2.761   5.953 -0.4215  0.0012 -0.2220
 2479TIP3    H128928   2.320   2.837   5.927 -0.0977  0.0559  0.5677
 2479TIP3    H228929   2.319   2.718   6.021 -1.2152 -0.1591  0.2976
 2480TIP3   OH228930   5.023   0.883   5.165 -0.1080 -0.2728 -0.5269
 2480TIP3    H128931   4.939   0.910   5.200  0.1103 -0.4361  0.1342
 2480TIP3    H228932   5.001   0.817   5.098 -0.5544  0.5025 -1.1584
 2481TIP3   OH228933   3.833   5.859  15.173  0.8975 -0.2897 -0.0087
 2481TIP3    H128934   3.848   5.856  15.267 -0.7747 -0.4753  0.2907
 2481TIP3    H228935   3.751   5.907  15.164  1.4025  0.3563 -1.4360
 2482TIP3   OH228936   2.123   0.760  11.624  0.3700  0.1726  0.2732
 2482TIP3    H128937   2.056   0.719  11.569 -0.6131  3.4138 -1.1358
 2482TIP3    H228938   2.095   0.742  11.713 -1.7766  0.4471 -0.2949
 2483TIP3   OH228939   3.424   1.948   0.816 -0.2932  0.6283 -0.1486
 2483TIP3    H128940   3.422   2.024   0.759 -1.3736  2.2443  1.9132
 2483TIP3    H228941   3.345   1.956   0.870 -0.0208 -1.5292  0.6748
 2484TIP3   OH228942   1.945   4.363   5.727 -0.0463 -0.7640  0.1285
 2484TIP3    H128943   1.868   4.405   5.766  0.4689 -0.2546  0.6296
 2484TIP3    H228944   1.997   4.436   5.694  0.4026 -1.0768  0.1420
 2485TIP3   OH228945   6.258   1.525   2.337 -0.1906 -0.2616  0.5045
 2485TIP3    H128946   6.193   1.595   2.344  0.1409  0.0427  0.5769
 2485TIP3    H228947   6.273   1.514   2.243 -0.9009 -0.8552  0.4505
 2486TIP3   OH228948   6.207   0.297   1.241 -0.0538 -0.0512 -0.6363
 2486TIP3    H128949   6.301   0.292   1.228  0.0324 -0.7369  0.1644
 2486TIP3    H228950   6.174   0.340   1.161  1.0311  1.1901 -0.4552
 2487TIP3   OH228951   5.117   1.180   4.371 -0.0253  0.0590 -0.1581
 2487TIP3    H128952   5.040   1.223   4.407  0.5040  0.6505  0.2941
 2487TIP3    H228953   5.162   1.249   4.321  1.4701  0.4251  1.5681
 2488TIP3   OH228954   0.337   4.841   2.726 -0.1970  0.8107  0.1774
 2488TIP3    H128955   0.316   4.748   2.720  1.6395  0.2014  1.8573
 2488TIP3    H228956   0.265   4.885   2.682 -0.5735 -1.4402 -1.6680
 2489TIP3   OH228957   3.940   2.793  12.756 -0.5587 -0.0491  0.4308
 2489TIP3    H128958   3.997   2.755  12.689 -0.5384 -1.3722  1.1810
 2489TIP3    H228959   3.947   2.734  12.831 -1.1225  1.0317  1.3709
 2490TIP3   OH228960   0.074   5.161   4.321  0.4477 -0.8248  0.2544
 2490TIP3    H128961   0.050   5.112   4.243  0.5972 -0.6310  0.0867
 2490TIP3    H228962  -0.008   5.172   4.369 -0.1441  1.2334 -1.1010
 2491TIP3   OH228963   4.693   6.491   5.591 -0.5827  0.0011 -0.2190
 2491TIP3    H128964   4.649   6.405   5.591  0.0644 -0.3747  1.6452
 2491TIP3    H228965   4.777   6.475   5.633 -0.2081  1.4572 -0.3605
 2492TIP3   OH228966   1.876   1.628  12.593 -0.3523  0.3520  0.2505
 2492TIP3    H128967   1.824   1.648  12.516 -2.1170  0.7958  1.4836
 2492TIP3    H228968   1.849   1.540  12.619 -0.3171  0.4878  0.7669
 2493TIP3   OH228969   3.280   2.750   5.646 -0.1574  0.6961 -0.1638
 2493TIP3    H128970   3.204   2.807   5.635 -0.3908  0.1488 -1.5596
 2493TIP3    H228971   3.270   2.683   5.579  1.3454  0.3694 -0.1025
 2494TIP3   OH228972   0.140   4.892  12.612 -0.7190  0.1639 -0.3286
 2494TIP3    H128973   0.072   4.902  12.545 -0.2015  1.4240 -0.7031
 2494TIP3    H228974   0.100   4.927  12.692  0.2155  3.3157 -1.0774
 2495TIP3   OH228975   6.044   1.475  16.175 -0.2320 -0.1401 -0.3046
 2495TIP3    H128976   6.069   1.396  16.224 -1.2156  0.9337  2.1426
 2495TIP3    H228977   5.971   1.447  16.120  0.0320 -1.1266 -0.1742
 2496TIP3   OH228978   3.024   1.698  11.777  0.3869  0.2845 -0.2390
 2496TIP3    H128979   2.950   1.652  11.738  2.0249 -1.5884 -1.3439
 2496TIP3    H228980   2.997   1.716  11.867 -1.1252 -0.9470 -0.4154
 2497TIP3   OH228981   1.986   0.676  11.871  0.2582  0.1277  0.6307
 2497TIP3    H128982   1.976   0.707  11.961 -2.3492 -1.5772  1.0369
 2497TIP3    H228983   2.012   0.584  11.880  1.9743  0.4598 -0.4490
 2498TIP3   OH228984   6.756   1.122   5.538 -0.4152  0.4156 -0.6156
 2498TIP3    H128985   6.790   1.103   5.625 -1.5824  1.0194 -0.0064
 2498TIP3    H228986   6.834   1.128   5.482  0.2375 -2.5079 -0.1713
 2499TIP3   OH228987   1.275   2.448   0.760  0.4145  0.0286 -0.3514
 2499TIP3    H128988   1.354   2.499   0.779  1.4334 -1.1231 -1.2445
 2499TIP3    H228989   1.306   2.357   0.759 -1.1230 -0.5243  0.1633
 2500TIP3   OH228990   1.511   2.638  13.022 -0.2284 -0.2361  0.3172
 2500TIP3    H128991   1.428   2.663  12.980 -0.7526 -1.6510  0.4588
 2500TIP3    H228992   1.515   2.543  13.012  1.6341 -0.1538 -0.1142
 2501TIP3   OH228993   4.621   5.760  14.816 -0.2589 -0.1104  0.5487
 2501TIP3    H128994   4.570   5.841  14.823 -1.2674 -0.5833 -0.8528
 2501TIP3    H228995   4.581   5.713  14.743  1.0979 -1.3201  0.5478
 2502TIP3   OH228996   3.056   0.367  15.531  0.1567  0.0257 -0.0371
 2502TIP3    H128997   3.022   0.399  15.615  0.8717 -0.6022  0.5074
 2502TIP3    H228998   3.091   0.445  15.488 -0.9866  0.5001 -0.1435
 2503TIP3   OH228999   5.602   5.966  11.959  0.4783 -0.6450  0.2334
 2503TIP3    H129000   5.661   5.892  11.971  1.8928  0.5767  1.1572
 2503TIP3    H229001   5.592   6.004  12.047 -0.7996 -0.1510 -0.0942
 2504TIP3   OH229002   4.309   6.691  15.502  0.2728  0.6925  0.0079
 2504TIP3    H129003   4.290   6.635  15.578  0.1725  0.6734 -0.0314
 2504TIP3    H229004   4.225   6.697  15.456  0.4039  0.4720 -0.2575
 2505TIP3   OH229005   4.522   3.401   3.026  0.5112  0.4036 -0.4942
 2505TIP3    H129006   4.491   3.322   2.982  2.5204 -1.6068  1.4079
 2505TIP3    H229007   4.541   3.372   3.115  0.8728  3.1986  0.4267
 2506TIP3   OH229008   5.501   5.545   0.029 -0.1855 -0.2458  0.0831
 2506TIP3    H129009   5.505   5.563  -0.065  1.2879  0.5273  0.2687
 2506TIP3    H229010   5.408   5.553   0.050 -0.3828  0.9269 -1.0726
 2507TIP3   OH229011   0.877   1.109   3.258 -0.2410  0.2041 -0.0256
 2507TIP3    H129012   0.836   1.089   3.174 -1.3978  0.3409  0.4887
 2507TIP3    H229013   0.888   1.024   3.301 -0.8365  0.2423  0.2112
 2508TIP3   OH229014   1.375   6.627  16.215 -0.0075 -0.0942  0.5602
 2508TIP3    H129015   1.380   6.550  16.158  0.8080  0.0551  0.4223
 2508TIP3    H229016   1.466   6.648  16.235 -0.2403  0.6186  0.8941
 2509TIP3   OH229017   1.584   3.832   2.757 -0.3745  0.6860  0.0962
 2509TIP3    H129018   1.555   3.759   2.810  1.1955 -0.1493 -0.1437
 2509TIP3    H229019   1.590   3.796   2.668  0.2847  1.1430 -0.0472
 2510TIP3   OH229020   6.585   4.662  11.485 -0.2983 -0.2806  0.4504
 2510TIP3    H129021   6.517   4.615  11.435  1.2461 -1.1544 -0.9201
 2510TIP3    H229022   6.645   4.593  11.513  1.2427  0.6903 -0.3512
 2511TIP3   OH229023   0.067   1.551   2.607 -0.5343  0.0919  0.5736
 2511TIP3    H129024   0.141   1.600   2.570 -0.5212 -0.1042  0.3390
 2511TIP3    H229025   0.044   1.488   2.540  1.0323 -1.9150  1.8029
 2512TIP3   OH229026   3.649   3.591   1.375 -0.4070  0.0478 -0.1258
 2512TIP3    H129027   3.737   3.570   1.345 -0.8838 -1.0612 -0.7974
 2512TIP3    H229028   3.631   3.526   1.444 -0.1621  1.1841  1.0525
 2513TIP3   OH229029   0.025   6.274  14.689 -0.5121 -0.3965 -0.3580
 2513TIP3    H129030   0.052   6.190  14.727  0.4066 -0.1325 -0.3895
 2513TIP3    H229031   0.106   6.326  14.687 -0.3229 -0.6395 -3.3842
 2514TIP3   OH229032   1.033   1.734   3.047 -0.3156  0.2845  0.2198
 2514TIP3    H129033   1.013   1.658   3.102 -0.0418  0.2585  0.2854
 2514TIP3    H229034   1.089   1.789   3.101 -0.4230  0.4793  0.1320
 2515TIP3   OH229035   6.030   2.376  11.298  0.1287 -0.8306  0.3854
 2515TIP3    H129036   6.108   2.320  11.300  0.0912 -0.9612 -1.0320
 2515TIP3    H229037   5.990   2.359  11.213 -1.1317 -0.3147  0.8537
 2516TIP3   OH229038   3.359   1.665  13.283  0.3303  0.3243  0.4315
 2516TIP3    H129039   3.372   1.758  13.264  1.2586  0.4026  1.3291
 2516TIP3    H229040   3.270   1.660  13.319  0.0672  0.7689 -0.1382
 2517TIP3   OH229041   6.749   1.886  16.687  0.8584 -0.4738  0.8841
 2517TIP3    H129042   6.828   1.874  16.740  1.2946 -1.0184  0.1188
 2517TIP3    H229043   6.740   1.805  16.637  0.5771  0.1128 -0.0497
 2518TIP3   OH229044   3.434   2.158  12.422  0.7180  0.6918 -0.1052
 2518TIP3    H129045   3.425   2.229  12.486  1.3473  0.6206  0.0623
 2518TIP3    H229046   3.515   2.113  12.447  1.6310  1.4038 -1.6882
 2519TIP3   OH229047   4.428   0.696   0.864  0.1979  0.3222  0.0518
 2519TIP3    H129048   4.363   0.742   0.916 -0.2417  0.9020 -0.9775
 2519TIP3    H229049   4.431   0.608   0.900 -1.7260  0.0585 -0.3604
 2520TIP3   OH229050   4.126   4.052   2.184  0.8071 -0.3202 -0.0728
 2520TIP3    H129051   4.085   4.085   2.264  0.7628 -0.5682  0.0086
 2520TIP3    H229052   4.204   4.005   2.214  0.2901 -1.2211 -0.0876
 2521TIP3   OH229053   6.725   2.670  12.965  0.2035  0.5077  0.3133
 2521TIP3    H129054   6.631   2.677  12.948  0.2354 -0.4675 -0.3491
 2521TIP3    H229055   6.760   2.756  12.943 -0.4770  0.7590  0.1921
 2522TIP3   OH229056   2.019   5.633  14.448  0.2691 -0.2648  0.2432
 2522TIP3    H129057   2.063   5.643  14.532  3.2618 -3.2269 -0.7368
 2522TIP3    H229058   2.079   5.673  14.385 -1.6999  1.4967 -0.6464
 2523TIP3   OH229059   2.680   5.044  11.643  0.6893 -0.6762 -0.3104
 2523TIP3    H129060   2.619   4.980  11.679  1.1916 -0.9282  0.0993
 2523TIP3    H229061   2.697   5.104  11.715 -1.6289  1.3929 -1.2945
 2524TIP3   OH229062   5.105   4.685  11.198  0.4622 -0.8180  0.7196
 2524TIP3    H129063   5.132   4.772  11.225  1.5997 -1.2835  1.1230
 2524TIP3    H229064   5.047   4.700  11.124  2.1468  0.2283 -0.4550
 2525TIP3   OH229065   2.871   2.124   2.454 -0.1744 -0.2572 -0.3594
 2525TIP3    H129066   2.893   2.091   2.541 -0.3687 -0.4434 -0.3816
 2525TIP3    H229067   2.810   2.059   2.418 -0.9605  0.3877 -0.2068
 2526TIP3   OH229068   0.332   2.464  11.182  0.4529 -0.3535  0.0649
 2526TIP3    H129069   0.340   2.370  11.197  1.3515 -0.0770  1.4480
 2526TIP3    H229070   0.390   2.481  11.107  2.3823 -0.5270  1.4496
 2527TIP3   OH229071   2.421   1.601  14.298 -0.3258 -0.5320 -0.0267
 2527TIP3    H129072   2.513   1.630  14.293 -0.5402  0.1392 -0.1937
 2527TIP3    H229073   2.391   1.633  14.383  0.4422 -3.3501  1.4224
 2528TIP3   OH229074   1.419   6.414  14.650 -0.4279  0.1536 -0.0296
 2528TIP3    H129075   1.483   6.474  14.611  0.4217 -0.8550 -0.2216
 2528TIP3    H229076   1.389   6.459  14.729 -0.8756  1.4526 -0.8857
 2529TIP3   OH229077   5.080   5.419  15.651 -0.1491 -0.0883 -0.6722
 2529TIP3    H129078   5.068   5.371  15.569  1.4003  2.5948 -2.6592
 2529TIP3    H229079   5.068   5.511  15.627 -0.1657  0.7975  2.2705
 2530TIP3   OH229080   3.512   1.036  13.354  0.0931  0.1279  0.1024
 2530TIP3    H129081   3.513   1.131  13.366  1.4638  0.3298 -1.3455
 2530TIP3    H229082   3.541   1.002  13.438 -1.5972  0.9013  1.0520
 2531TIP3   OH229083   5.060   3.117  12.762 -0.7075 -0.2214  0.3695
 2531TIP3    H129084   5.120   3.044  12.780 -1.0348 -1.1371 -1.9098
 2531TIP3    H229085   5.094   3.189  12.814  1.9329 -0.9312 -0.2141
 2532TIP3   OH229086   2.524   2.867   2.857 -0.3875  0.1680 -0.5926
 2532TIP3    H129087   2.606   2.916   2.862  0.6558 -1.4431 -0.8438
 2532TIP3    H229088   2.463   2.915   2.913  0.6852  1.4705 -0.4900
 2533TIP3   OH229089   1.191   0.350   6.139 -0.0207  0.2767 -0.0882
 2533TIP3    H129090   1.098   0.373   6.147 -0.0966 -0.3742  1.3107
 2533TIP3    H229091   1.195   0.258   6.165  1.1255  0.5644  0.8759
 2534TIP3   OH229092   3.373   5.564   3.622 -1.3213  0.0900 -0.1212
 2534TIP3    H129093   3.359   5.658   3.628 -0.5556  0.3325 -1.7358
 2534TIP3    H229094   3.324   5.528   3.696 -0.1653  1.8707  1.6000
 2535TIP3   OH229095   3.907   0.051  12.507  0.1700 -0.2420 -0.3684
 2535TIP3    H129096   3.973   0.034  12.439  0.5101  0.2925 -0.1826
 2535TIP3    H229097   3.823   0.047  12.461  0.1664 -2.8802 -0.2432
 2536TIP3   OH229098   0.823   6.491   2.688  0.5956 -0.3436 -0.4766
 2536TIP3    H129099   0.793   6.417   2.635 -1.8998  0.3613 -0.2000
 2536TIP3    H229100   0.875   6.545   2.628 -2.0949  0.4067 -2.3271
 2537TIP3   OH229101   2.164   1.398  11.708 -0.5735  0.0583  0.2908
 2537TIP3    H129102   2.188   1.420  11.798  2.0854  0.4684 -0.4224
 2537TIP3    H229103   2.125   1.479  11.673  2.0523  1.3156 -0.0142
 2538TIP3   OH229104   5.415   2.733   0.317  0.7187  0.6787  0.2889
 2538TIP3    H129105   5.493   2.735   0.373  1.3680  0.8913 -0.6091
 2538TIP3    H229106   5.385   2.642   0.321 -0.0015  0.9459  1.9776
 2539TIP3   OH229107   4.000   6.573   2.338  0.4246  0.2110 -0.0038
 2539TIP3    H129108   3.910   6.583   2.370  0.4349  2.7544 -0.5494
 2539TIP3    H229109   4.022   6.481   2.357 -2.1729 -0.4265  0.3625
 2540TIP3   OH229110   2.866   0.826  13.925 -0.5247 -0.1995  0.2276
 2540TIP3    H129111   2.777   0.819  13.961 -0.6504  0.4118  0.0412
 2540TIP3    H229112   2.921   0.848  14.000 -0.3804 -1.4029  0.5097
 2541TIP3   OH229113   3.005   6.007  15.567  0.3486  0.5488  0.6794
 2541TIP3    H129114   2.984   5.919  15.598 -1.2102  0.7161  0.1806
 2541TIP3    H229115   2.958   6.065  15.627 -0.3412  0.9609 -0.2421
 2542TIP3   OH229116   2.559   0.846  12.517 -0.1864  0.0384 -0.1622
 2542TIP3    H129117   2.618   0.878  12.448 -1.3488 -1.0399 -1.7308
 2542TIP3    H229118   2.609   0.858  12.598  1.6187  0.4905 -1.2706
 2543TIP3   OH229119   1.841   1.631  13.981 -0.0791  0.2357  0.1673
 2543TIP3    H129120   1.920   1.623  13.927 -0.2930  0.0688 -0.1170
 2543TIP3    H229121   1.777   1.672  13.924 -0.5776 -0.7282  0.0234
 2544TIP3   OH229122   2.425   4.668   1.260  0.4198 -0.0507 -0.2162
 2544TIP3    H129123   2.465   4.755   1.263 -0.4583  0.3505  0.1491
 2544TIP3    H229124   2.335   4.682   1.290 -0.2177 -0.8127 -1.6819
 2545TIP3   OH229125   4.924   0.907  14.626 -0.1887  0.3390 -0.3373
 2545TIP3    H129126   4.934   0.865  14.712  1.6311  1.3282 -0.0298
 2545TIP3    H229127   4.867   0.982  14.642 -0.7972 -0.1348 -0.2433
 2546TIP3   OH229128   1.068   6.528  16.126  0.6866 -0.3681  0.6885
 2546TIP3    H129129   1.119   6.591  16.176 -0.0263  1.6170 -0.9539
 2546TIP3    H229130   1.068   6.449  16.180  2.3981  0.7135  2.3966
 2547TIP3   OH229131   0.259   3.532  11.810 -0.5939  0.0533 -0.1280
 2547TIP3    H129132   0.352   3.522  11.791 -0.6958 -0.9063 -0.1572
 2547TIP3    H229133   0.256   3.593  11.883  0.0406  0.2861 -0.2895
 2548TIP3   OH229134   0.058   6.663   2.411 -0.3847 -0.1720  0.5752
 2548TIP3    H129135   0.011   6.584   2.439 -0.5112 -0.8136 -1.2922
 2548TIP3    H229136   0.056   6.659   2.315  4.3760 -0.8516  0.2810
 2549TIP3   OH229137   0.666   5.777  13.294 -0.1363  0.1526 -0.2526
 2549TIP3    H129138   0.628   5.850  13.342  2.1520  2.9017 -2.2479
 2549TIP3    H229139   0.624   5.780  13.208  1.7448  0.8685 -1.2133
 2550TIP3   OH229140   5.164   2.686  16.559 -0.6179  0.0349  0.4393
 2550TIP3    H129141   5.162   2.649  16.647  0.6320  0.2682  0.5881
 2550TIP3    H229142   5.193   2.614  16.503 -1.9434 -0.2691  0.1135
 2551TIP3   OH229143   1.104   6.147  13.740  0.0330 -0.4980 -0.1869
 2551TIP3    H129144   1.065   6.235  13.737  3.1449  1.0529  0.7669
 2551TIP3    H229145   1.047   6.098  13.799  0.1791  2.0628  2.3388
 2552TIP3   OH229146   6.150   2.819   0.999 -0.1810  0.6142  0.0896
 2552TIP3    H129147   6.167   2.839   1.091 -0.2629  1.8963 -0.1523
 2552TIP3    H229148   6.173   2.900   0.952 -0.3098  0.0424 -0.9914
 2553TIP3   OH229149   2.082   5.638   3.894 -0.4614 -0.0378 -0.0594
 2553TIP3    H129150   2.083   5.584   3.973 -0.2001  1.2611  0.8617
 2553TIP3    H229151   2.072   5.576   3.822 -0.9770 -1.2305  1.0107
 2554TIP3   OH229152   4.970   2.832  16.109  0.1265  0.1274  0.7322
 2554TIP3    H129153   4.894   2.775  16.103  0.8167 -0.9346  1.7462
 2554TIP3    H229154   4.957   2.881  16.191  0.5338 -0.0579  0.9089
 2555TIP3   OH229155   1.922   6.159   1.341  0.1649 -0.0689 -0.0391
 2555TIP3    H129156   1.895   6.202   1.260 -1.7985  0.0688  0.6322
 2555TIP3    H229157   2.005   6.201   1.365  1.1795 -0.6150 -2.3096
 2556TIP3   OH229158   0.929   2.325   4.216  0.0151 -0.4478 -0.6343
 2556TIP3    H129159   0.917   2.398   4.277 -0.0926 -0.1419 -1.0156
 2556TIP3    H229160   0.904   2.247   4.266  0.7900 -0.3048 -0.0074
 2557TIP3   OH229161   4.976   2.980   6.041 -0.5713  0.2426 -1.0485
 2557TIP3    H129162   4.914   3.013   6.106 -0.2574 -0.4030 -0.3949
 2557TIP3    H229163   5.017   2.904   6.084 -0.4776 -0.3060 -2.0681
 2558TIP3   OH229164   2.861   4.167   1.578 -0.1346  0.5294 -0.2751
 2558TIP3    H129165   2.786   4.180   1.519 -0.4972 -0.0905  0.0361
 2558TIP3    H229166   2.824   4.124   1.654  0.3186  1.3869  0.4517
 2559TIP3   OH229167   3.291   2.781  10.751 -0.3310 -0.0406  0.3243
 2559TIP3    H129168   3.238   2.702  10.741 -1.8735  0.6403  2.4798
 2559TIP3    H229169   3.251   2.845  10.693 -0.3089 -0.2600  0.0658
 2560TIP3   OH229170   6.403   4.421   1.359  0.5835  0.0009  0.6494
 2560TIP3    H129171   6.388   4.510   1.391  1.7976  0.4377  0.0807
 2560TIP3    H229172   6.316   4.383   1.352 -0.0823  1.5749 -0.3201
 2561TIP3   OH229173   3.222   2.092  11.599 -0.2241 -0.3313  0.3069
 2561TIP3    H129174   3.305   2.064  11.562 -0.3807 -1.5375  0.8293
 2561TIP3    H229175   3.241   2.177  11.639  0.8102 -0.6835  0.5948
 2562TIP3   OH229176   5.280   2.487   0.712 -0.4806  0.0847  0.0682
 2562TIP3    H129177   5.214   2.470   0.779  0.0373 -0.7262  0.3864
 2562TIP3    H229178   5.363   2.492   0.760  0.2331 -2.7517 -0.6610
 2563TIP3   OH229179   2.526   4.384   3.450 -0.3755  0.0883 -0.1563
 2563TIP3    H129180   2.556   4.298   3.421  0.0956  0.3326 -0.4160
 2563TIP3    H229181   2.551   4.388   3.543  0.2953  0.2345 -0.3353
 2564TIP3   OH229182   0.200   4.394  11.724 -0.1525  0.7750  0.3350
 2564TIP3    H129183   0.159   4.476  11.697 -0.3153  0.7064  0.3750
 2564TIP3    H229184   0.169   4.329  11.661  0.2017  0.7982  0.1322
 2565TIP3   OH229185   3.810   1.764   1.431  0.2569  0.5155 -0.0210
 2565TIP3    H129186   3.750   1.790   1.361 -2.9695 -2.8969  1.1660
 2565TIP3    H229187   3.850   1.684   1.399  2.2005  1.2932  0.3472
 2566TIP3   OH229188   1.297   5.202   5.472 -0.0986 -0.4136  0.0752
 2566TIP3    H129189   1.209   5.168   5.485 -0.3318  0.8708  2.1542
 2566TIP3    H229190   1.286   5.296   5.459  0.9771 -0.1755  0.7199
 2567TIP3   OH229191   0.391   6.536   0.447  0.1671 -0.1403 -0.1517
 2567TIP3    H129192   0.350   6.550   0.533 -0.2864 -0.2873 -0.3382
 2567TIP3    H229193   0.330   6.478   0.402  0.0506  0.4876 -0.8230
 2568TIP3   OH229194   5.703   3.902   5.110  0.5713  0.5495 -0.1750
 2568TIP3    H129195   5.736   3.812   5.108  1.7055  0.9051  0.8400
 2568TIP3    H229196   5.645   3.904   5.186  0.5887  0.6835 -0.1663
 2569TIP3   OH229197   4.199   6.357   0.608 -0.4216  0.0749 -0.1291
 2569TIP3    H129198   4.172   6.369   0.699  0.0812 -0.7307  0.1340
 2569TIP3    H229199   4.223   6.445   0.578  0.6410  0.1594  0.9106
 2570TIP3   OH229200   0.838   1.866  14.239 -0.2094 -0.4433  0.5563
 2570TIP3    H129201   0.868   1.811  14.166  3.2752 -0.2837  1.7013
 2570TIP3    H229202   0.783   1.808  14.292  0.2459 -1.6467 -0.2444
 2571TIP3   OH229203   5.710   1.557   4.803  0.1199 -0.0970 -0.4059
 2571TIP3    H129204   5.627   1.591   4.836  0.7065 -0.5838  1.7374
 2571TIP3    H229205   5.758   1.530   4.881  1.6320 -1.3843 -1.7004
 2572TIP3   OH229206   6.334   1.118   4.320  0.0849  0.2614 -0.2708
 2572TIP3    H129207   6.395   1.114   4.247  1.3617  0.3929  0.7414
 2572TIP3    H229208   6.299   1.207   4.317  0.9242  0.6063 -0.1237
 2573TIP3   OH229209   1.793   2.056   4.854 -0.2468 -0.4829  0.2644
 2573TIP3    H129210   1.714   2.053   4.800 -0.7607 -0.9604  1.0294
 2573TIP3    H229211   1.774   2.121   4.921  0.7686  0.8348 -0.6819
 2574TIP3   OH229212   0.814   2.346   5.104  0.2441 -0.3182 -0.3776
 2574TIP3    H129213   0.740   2.385   5.151  0.5997 -0.8906  0.7071
 2574TIP3    H229214   0.860   2.296   5.171  0.5949 -1.4444 -1.4234
 2575TIP3   OH229215   5.649   5.594   3.969  0.1849  0.1661  0.2073
 2575TIP3    H129216   5.714   5.629   4.030  0.2045  0.9220 -0.2307
 2575TIP3    H229217   5.584   5.664   3.961 -0.3500 -0.3311  0.1448
 2576TIP3   OH229218   1.412   1.595   3.764 -0.2204  0.2379 -0.3437
 2576TIP3    H129219   1.500   1.578   3.796 -0.2767 -0.4759 -0.5382
 2576TIP3    H229220   1.366   1.511   3.775 -0.4485  0.1807 -1.5986
 2577TIP3   OH229221   4.584   3.421  14.950 -0.0366  0.6323 -0.2908
 2577TIP3    H129222   4.554   3.345  14.901 -0.4940  1.1201 -0.7796
 2577TIP3    H229223   4.635   3.384  15.022 -0.0698 -0.1256 -0.6425
 2578TIP3   OH229224   0.970   5.348   4.421 -0.0102 -0.0818 -0.4708
 2578TIP3    H129225   1.038   5.389   4.475  0.3642 -0.6837 -0.4736
 2578TIP3    H229226   0.894   5.344   4.478 -0.2223  1.1102 -0.6491
 2579TIP3   OH229227   2.247   4.522   3.632 -0.0209 -0.5091  0.2128
 2579TIP3    H129228   2.270   4.609   3.600 -0.3465 -0.2522  0.6637
 2579TIP3    H229229   2.226   4.472   3.553  1.1586 -0.4832 -0.1323
 2580TIP3   OH229230   6.305   0.713  10.922 -0.0040  0.0714 -0.4401
 2580TIP3    H129231   6.276   0.631  10.883  0.0521  0.2083 -0.7785
 2580TIP3    H229232   6.255   0.721  11.003  2.5381 -2.0893  1.5385
 2581TIP3   OH229233   4.959   4.434  13.378  0.0164  0.6728  0.3040
 2581TIP3    H129234   4.928   4.435  13.288 -1.7206 -0.0327  0.8612
 2581TIP3    H229235   5.046   4.394  13.373 -0.0736  0.6091 -1.0456
 2582TIP3   OH229236   5.613   4.410  13.742  0.0445  0.3174 -0.0331
 2582TIP3    H129237   5.658   4.491  13.764  0.8749  0.3010 -1.5890
 2582TIP3    H229238   5.562   4.431  13.663  1.4429 -1.0314 -1.3495
 2583TIP3   OH229239   2.171   6.133   1.153 -0.5712 -0.1764  0.4125
 2583TIP3    H129240   2.162   6.214   1.103  0.4197  0.2831  0.9570
 2583TIP3    H229241   2.203   6.160   1.239  3.9564 -1.3480 -0.6287
 2584TIP3   OH229242   5.199   2.445  12.651 -0.1318  0.6769  0.0715
 2584TIP3    H129243   5.226   2.497  12.576  0.3489 -1.4304 -1.3272
 2584TIP3    H229244   5.104   2.457  12.656 -0.4820 -0.6508 -2.1790
 2585TIP3   OH229245   0.085   4.984   3.613  0.6499 -0.3114  0.1023
 2585TIP3    H129246   0.141   5.060   3.594 -0.1645  0.4758  0.7326
 2585TIP3    H229247   0.039   4.968   3.531  0.4286  0.2368  0.1117
 2586TIP3   OH229248   1.258   0.126   3.073 -0.4685  0.3773  0.6069
 2586TIP3    H129249   1.312   0.127   2.994 -1.6810  1.4676 -0.2492
 2586TIP3    H229250   1.313   0.164   3.141 -0.1093  1.3812 -0.2263
 2587TIP3   OH229251   1.323   2.545   3.535 -0.2774  0.2999  0.1087
 2587TIP3    H129252   1.408   2.551   3.578 -0.8678 -0.5657  1.4638
 2587TIP3    H229253   1.260   2.563   3.604 -1.2431 -0.9232 -0.4097
 2588TIP3   OH229254   2.449   3.451  15.536  0.3183 -0.1077  0.0158
 2588TIP3    H129255   2.409   3.395  15.602 -0.3507  0.5026  0.1522
 2588TIP3    H229256   2.463   3.394  15.461  1.4901 -0.9192  0.8145
 2589TIP3   OH229257   3.909   0.610   4.271 -0.5593  0.2237 -0.2335
 2589TIP3    H129258   3.883   0.521   4.296 -1.0662  0.4465  0.0366
 2589TIP3    H229259   4.005   0.608   4.277 -0.4501 -0.7643 -1.7955
 2590TIP3   OH229260   4.099   6.817   4.813  0.2676 -0.3859 -0.1042
 2590TIP3    H129261   4.185   6.792   4.781  0.1593 -1.9930  0.7879
 2590TIP3    H229262   4.114   6.897   4.864  1.2139 -0.6348  0.0184
 2591TIP3   OH229263   4.483   1.268  13.345 -0.6773 -0.0472 -0.1299
 2591TIP3    H129264   4.466   1.218  13.425  1.8610 -0.2969  0.3362
 2591TIP3    H229265   4.557   1.223  13.304 -0.5769  1.3138 -1.5236
 2592TIP3   OH229266   3.912   3.966   1.385 -0.0129 -0.1790 -0.4665
 2592TIP3    H129267   3.929   3.887   1.437  0.4339 -0.0091 -0.3495
 2592TIP3    H229268   3.982   4.027   1.411 -1.0376  0.7017  0.3633
 2593TIP3   OH229269   5.275   1.749  16.584 -0.1080 -0.2266  0.2339
 2593TIP3    H129270   5.320   1.665  16.586 -0.6228 -0.6742 -2.7115
 2593TIP3    H229271   5.183   1.727  16.600 -0.3185 -0.3450 -1.0213
 2594TIP3   OH229272   4.284   6.178  15.735  0.2361 -0.6884 -0.4832
 2594TIP3    H129273   4.295   6.085  15.754 -1.7356 -0.7948  0.3156
 2594TIP3    H229274   4.193   6.187  15.709  0.7453  0.8394 -1.8964
 2595TIP3   OH229275   1.084   4.738  15.537  0.3929 -0.3135  0.4627
 2595TIP3    H129276   1.048   4.797  15.470  2.8240 -0.0975 -0.7587
 2595TIP3    H229277   1.063   4.650  15.506  0.8013 -0.1880 -0.1989
 2596TIP3   OH229278   5.890   2.323   6.177 -0.2564 -0.1650 -0.1686
 2596TIP3    H129279   5.844   2.300   6.097  0.6497 -0.2714 -0.6700
 2596TIP3    H229280   5.840   2.396   6.213 -0.7570 -0.2151 -0.7530
 2597TIP3   OH229281   6.003   4.972  13.314  0.0621 -0.1984  0.6956
 2597TIP3    H129282   5.924   4.964  13.259  0.7645  0.9594 -0.5369
 2597TIP3    H229283   5.970   4.962  13.403 -1.2397 -1.3733  0.1267
 2598TIP3   OH229284   0.944   2.093   3.333 -0.0462 -0.4573 -0.9060
 2598TIP3    H129285   0.886   2.148   3.386 -1.1393 -1.7946 -0.6831
 2598TIP3    H229286   0.888   2.023   3.300  1.7291 -2.7275  0.6251
 2599TIP3   OH229287   2.486   0.385   0.360  0.6983  0.0768  0.4480
 2599TIP3    H129288   2.439   0.343   0.289 -0.1768  0.6122  0.6944
 2599TIP3    H229289   2.545   0.447   0.317 -0.8203  1.4206  0.1914
 2600TIP3   OH229290   4.470   0.610  13.079 -0.5413 -0.0274  0.0226
 2600TIP3    H129291   4.477   0.702  13.054  0.8472 -0.3619 -0.9444
 2600TIP3    H229292   4.551   0.591  13.126 -0.4080 -0.9595 -0.5439
 2601TIP3   OH229293   5.611   1.105  14.006 -0.1776  0.2689  0.0638
 2601TIP3    H129294   5.689   1.160  13.997 -0.5119  0.8923  0.7927
 2601TIP3    H229295   5.645   1.020  14.033  0.3584  0.0582 -1.1968
 2602TIP3   OH229296   4.852   3.631  13.667  0.1631 -0.2442  0.0229
 2602TIP3    H129297   4.850   3.726  13.667  0.5561 -0.2286 -0.7530
 2602TIP3    H229298   4.763   3.605  13.645 -0.0355 -0.0611  0.6102
 2603TIP3   OH229299   4.671   5.129  11.624  0.3490 -0.2641  0.1831
 2603TIP3    H129300   4.611   5.197  11.655  0.2107  0.6860 -1.9488
 2603TIP3    H229301   4.725   5.174  11.558  1.4407 -1.8171 -0.0299
 2604TIP3   OH229302   5.604   5.546   3.699  0.1057  0.5641 -0.1315
 2604TIP3    H129303   5.565   5.530   3.785 -0.2267 -0.2175 -0.4216
 2604TIP3    H229304   5.590   5.640   3.684 -0.9994  0.4487  0.1072
 2605TIP3   OH229305   1.714   6.439   5.220  0.3396  0.3839  0.1095
 2605TIP3    H129306   1.801   6.433   5.180  0.5675  1.6038  0.3949
 2605TIP3    H229307   1.662   6.375   5.171  1.4981 -0.7340  0.2671
 2606TIP3   OH229308   3.896   6.723  12.758  0.2301 -0.6094  0.2782
 2606TIP3    H129309   3.846   6.802  12.780  2.2710  0.6838  0.4748
 2606TIP3    H229310   3.926   6.739  12.668  0.4571 -1.2786  0.2355
 2607TIP3   OH229311   6.417   5.709   3.260 -0.6230 -0.7424  0.0472
 2607TIP3    H129312   6.333   5.752   3.247 -0.5075 -0.4282  0.3247
 2607TIP3    H229313   6.404   5.619   3.230 -1.2383 -0.8752  0.7192
 2608TIP3   OH229314   5.313   2.457   0.299  0.2809  0.0475  0.4454
 2608TIP3    H129315   5.244   2.454   0.233  0.4994 -0.6060  0.2386
 2608TIP3    H229316   5.269   2.431   0.380  0.5235 -1.5334  0.0910
 2609TIP3   OH229317   0.239   0.632   0.321  0.0061  0.1247 -0.0107
 2609TIP3    H129318   0.195   0.672   0.246 -1.2741  2.1987  1.7078
 2609TIP3    H229319   0.332   0.637   0.299 -0.3603 -0.1265 -1.7906
 2610TIP3   OH229320   1.547   2.047  11.144 -0.2041  0.7579  0.1863
 2610TIP3    H129321   1.556   2.124  11.087  2.1895  0.7976  0.5206
 2610TIP3    H229322   1.527   2.083  11.230 -2.1876  0.7786 -0.2255
 2611TIP3   OH229323   5.016   2.132  15.656 -0.6793 -0.4324  0.0876
 2611TIP3    H129324   5.002   2.152  15.563 -0.4089  0.9768  0.3230
 2611TIP3    H229325   4.972   2.203  15.702  0.5908 -0.1911  0.9912
 2612TIP3   OH229326   4.107   5.679   0.025  0.3765 -0.1448 -0.5520
 2612TIP3    H129327   4.164   5.739   0.073 -0.4520 -0.2520  0.6024
 2612TIP3    H229328   4.033   5.734  -0.003  2.0099  0.5528 -4.0422
 2613TIP3   OH229329   3.203   2.251   4.708 -0.1197 -0.5045  0.0420
 2613TIP3    H129330   3.128   2.285   4.660 -0.3912 -1.2260 -0.0568
 2613TIP3    H229331   3.186   2.274   4.799 -0.1175 -0.0576 -0.0695
 2614TIP3   OH229332   6.012   3.365  11.425 -0.0358 -0.3763  0.1656
 2614TIP3    H129333   5.980   3.439  11.373 -0.7715 -1.1171 -0.4572
 2614TIP3    H229334   5.943   3.349  11.489  1.1705  0.9805  1.8815
 2615TIP3   OH229335   5.650   4.638  15.550 -0.1003  0.2272 -0.1301
 2615TIP3    H129336   5.566   4.645  15.595 -0.0722  1.3061 -0.2218
 2615TIP3    H229337   5.635   4.677  15.464  0.4091  0.1217 -0.2741
 2616TIP3   OH229338   6.061   3.498  14.104 -0.5026  0.0511 -0.1918
 2616TIP3    H129339   6.001   3.538  14.167 -2.7210 -0.5655 -1.7763
 2616TIP3    H229340   6.004   3.445  14.048  1.6235 -0.9338 -1.5212
 2617TIP3   OH229341   0.833   5.790   0.878  0.4331  0.1744 -0.1842
 2617TIP3    H129342   0.888   5.814   0.953  2.0311  1.3809 -1.6701
 2617TIP3    H229343   0.745   5.820   0.903  1.0633  1.2134  0.9336
 2618TIP3   OH229344   4.862   0.380  15.548  0.1105 -0.4385  0.0337
 2618TIP3    H129345   4.910   0.302  15.576  0.2482 -0.1801  0.5310
 2618TIP3    H229346   4.867   0.378  15.453  0.5117 -0.7886  0.0575
 2619TIP3   OH229347   3.758   6.581   4.660 -0.7284 -0.1037 -0.1022
 2619TIP3    H129348   3.779   6.492   4.689 -0.7803  0.0647  0.4821
 2619TIP3    H229349   3.750   6.575   4.565 -1.7892 -0.9360  0.0221
 2620TIP3   OH229350   6.269   4.114   4.007  0.2188 -0.0119 -0.1756
 2620TIP3    H129351   6.288   4.140   4.098  2.5092 -0.1342 -0.5594
 2620TIP3    H229352   6.312   4.029   3.997 -0.8336 -0.4599 -1.1315
 2621TIP3   OH229353   5.700   3.689   1.278  0.1045  0.0936  0.2831
 2621TIP3    H129354   5.606   3.704   1.290 -0.0051  0.0695 -0.4546
 2621TIP3    H229355   5.706   3.648   1.191  0.9247  1.5075 -0.3485
 2622TIP3   OH229356   4.284   3.768  14.799  0.0776 -0.0177 -0.4164
 2622TIP3    H129357   4.304   3.706  14.869  2.3228 -0.1572 -1.1167
 2622TIP3    H229358   4.289   3.854  14.842 -1.5253 -0.2078  0.2147
 2623TIP3   OH229359   2.050   6.645   5.370  0.5646  0.0760 -0.0256
 2623TIP3    H129360   2.077   6.696   5.294 -0.0749  1.1615  0.4558
 2623TIP3    H229361   1.979   6.589   5.337 -1.2219  2.0725  0.1739
 2624TIP3   OH229362   0.579   2.584  13.830  0.6464 -0.6203  0.2440
 2624TIP3    H129363   0.614   2.569  13.917  1.9690 -0.7802 -0.2978
 2624TIP3    H229364   0.626   2.660  13.796 -0.2925 -0.1717 -0.1116
 2625TIP3   OH229365   6.453   3.525   1.788 -0.2828 -0.4793 -0.2491
 2625TIP3    H129366   6.397   3.510   1.712 -2.5388  1.3835  0.9371
 2625TIP3    H229367   6.530   3.569   1.751 -0.6983 -0.8397 -1.6179
 2626TIP3   OH229368   1.659   3.681   4.145 -0.2126 -0.0363 -0.3762
 2626TIP3    H129369   1.583   3.623   4.147  0.3457 -0.7766  2.4527
 2626TIP3    H229370   1.730   3.630   4.182  0.9610  1.5805 -0.2841
 2627TIP3   OH229371   2.103   6.464  11.803  0.3637 -0.3528 -0.0462
 2627TIP3    H129372   2.175   6.481  11.743  0.0107  1.7457  0.0662
 2627TIP3    H229373   2.145   6.431  11.883  1.2515  1.1439  0.1251
 2628TIP3   OH229374   6.635   1.438  11.012  0.1910  0.0816  0.0263
 2628TIP3    H129375   6.692   1.413  10.939  0.5077 -0.7585  0.5546
 2628TIP3    H229376   6.596   1.521  10.984  0.4351 -0.1426 -1.0259
 2629TIP3   OH229377   3.066   6.454   2.549  0.1022 -0.0769 -0.5139
 2629TIP3    H129378   3.136   6.469   2.612 -0.8701 -0.5289  0.7016
 2629TIP3    H229379   3.107   6.471   2.464  1.5646  0.0821  0.1893
 2630TIP3   OH229380   3.517   4.892   0.851  0.2436 -0.6158 -0.2277
 2630TIP3    H129381   3.521   4.981   0.817 -1.6474  0.0358  1.1215
 2630TIP3    H229382   3.552   4.838   0.780 -1.1239  0.9275 -2.1840
 2631TIP3   OH229383   2.254   5.168   3.558 -0.2910  0.0836 -0.6297
 2631TIP3    H129384   2.319   5.099   3.572  0.0342  0.6884  0.9907
 2631TIP3    H229385   2.306   5.248   3.548 -0.7507  0.4483 -0.1387
 2632TIP3   OH229386   6.235   1.169   2.206  0.0837  0.2184 -0.3187
 2632TIP3    H129387   6.269   1.187   2.294  0.2824  0.1030 -0.3720
 2632TIP3    H229388   6.200   1.080   2.212  1.8060 -0.5344 -0.8613
 2633TIP3   OH229389   6.367   0.260  12.646 -0.2985  0.7061 -0.5668
 2633TIP3    H129390   6.428   0.243  12.574  0.1301 -1.4049  0.2225
 2633TIP3    H229391   6.400   0.340  12.687  1.9985 -0.3432 -0.1838
 2634TIP3   OH229392   3.407   5.256  15.291 -0.3248  0.0301 -0.3657
 2634TIP3    H129393   3.455   5.334  15.265 -1.3657  0.8386  0.0784
 2634TIP3    H229394   3.377   5.217  15.209 -0.2353  0.3833 -0.5635
 2635TIP3   OH229395   0.043   2.958  16.669  0.2084 -0.1291  0.3574
 2635TIP3    H129396   0.135   2.942  16.650 -0.1997 -0.6265 -1.3684
 2635TIP3    H229397   0.012   2.877  16.708  0.7278  0.4192  1.9871
 2636TIP3   OH229398   3.625   2.439   3.652 -0.1346  0.4335  0.3474
 2636TIP3    H129399   3.637   2.480   3.566 -0.7422 -0.5241 -0.2116
 2636TIP3    H229400   3.551   2.379   3.640  0.8520 -0.9784  1.0694
 2637TIP3   OH229401   0.453   3.436   1.434  0.1892 -0.3240  0.4943
 2637TIP3    H129402   0.497   3.477   1.508  1.5040  0.2219 -0.5432
 2637TIP3    H229403   0.510   3.362   1.411  0.3397  0.1039 -0.5700
 2638TIP3   OH229404   4.122   4.644  16.678  0.2486  0.0541  0.0595
 2638TIP3    H129405   4.196   4.699  16.654  1.1220 -0.0530  2.3021
 2638TIP3    H229406   4.134   4.564  16.626  1.3955  0.2553 -0.0190
 2639TIP3   OH229407   2.315   0.510  16.733 -0.3929 -0.1089  0.0207
 2639TIP3    H129408   2.260   0.521  16.656 -0.4158 -0.9613 -0.0904
 2639TIP3    H229409   2.255   0.521  16.807 -0.2354  1.4492 -0.0490
 2640TIP3   OH229410   4.441   3.415  14.100  0.5469 -0.1899 -0.2054
 2640TIP3    H129411   4.404   3.401  14.012  2.1082 -2.5645 -0.5897
 2640TIP3    H229412   4.511   3.479  14.087 -1.4897  2.2297  0.0431
 2641TIP3   OH229413   3.785   0.500   6.562  0.2734  0.0480 -0.0431
 2641TIP3    H129414   3.729   0.427   6.536  0.3518  0.5129 -1.5591
 2641TIP3    H229415   3.724   0.569   6.588  0.1788 -0.0105 -0.1101
 2642TIP3   OH229416   2.179   4.481   2.511  0.4053  0.4361 -0.3422
 2642TIP3    H129417   2.265   4.441   2.502  0.0048 -0.1959 -1.5569
 2642TIP3    H229418   2.184   4.560   2.457  1.7080  3.0756  3.2304
 2643TIP3   OH229419   6.486   0.235  15.033  0.3610 -0.2732 -0.4633
 2643TIP3    H129420   6.542   0.311  15.020  0.8278 -0.5185  0.0562
 2643TIP3    H229421   6.427   0.235  14.958  0.5126  0.4619 -0.5898
 2644TIP3   OH229422   0.224   3.099   5.438  0.0327 -0.4134 -0.0733
 2644TIP3    H129423   0.251   3.007   5.448  0.5588 -0.1560  1.1065
 2644TIP3    H229424   0.198   3.125   5.527 -2.1340 -0.0215 -0.7579
 2645TIP3   OH229425   5.659   1.828   3.008 -0.1762  0.0864  0.4249
 2645TIP3    H129426   5.566   1.837   2.988 -0.5047 -1.4484  1.1726
 2645TIP3    H229427   5.675   1.889   3.080 -0.8162 -0.3506  0.9361
 2646TIP3   OH229428   2.225   2.107   0.014  0.3898  0.1705  0.4191
 2646TIP3    H129429   2.301   2.058   0.046 -0.5264  0.0265  2.5410
 2646TIP3    H229430   2.151   2.073   0.065 -0.8927  1.2033 -0.6827
 2647TIP3   OH229431   0.705   4.967   2.798 -0.3632 -0.3865  0.2490
 2647TIP3    H129432   0.675   4.878   2.781 -1.9600  0.5840 -2.5531
 2647TIP3    H229433   0.628   5.012   2.832 -0.1305  0.4004 -0.2410
 2648TIP3   OH229434   2.698   4.334  14.197 -0.1490  0.3819  0.1297
 2648TIP3    H129435   2.779   4.367  14.159  0.5920 -0.1188  1.2133
 2648TIP3    H229436   2.687   4.384  14.278 -1.0530  0.6025 -0.1196
 2649TIP3   OH229437   5.213   5.012   3.665  0.7464 -0.4974  0.0525
 2649TIP3    H129438   5.179   5.055   3.743  2.2648  0.4662  0.2254
 2649TIP3    H229439   5.135   4.992   3.612 -0.1315  1.0325  0.7010
 2650TIP3   OH229440   2.563   6.304  14.636  0.4456 -0.4075  0.0147
 2650TIP3    H129441   2.642   6.251  14.631  0.4526 -0.4010  0.0621
 2650TIP3    H229442   2.511   6.263  14.705  0.2126 -0.6766 -0.3158
 2651TIP3   OH229443   0.090   2.794  12.713  0.2917  0.2193 -0.1360
 2651TIP3    H129444   0.160   2.729  12.720 -0.2939 -0.4456 -0.4062
 2651TIP3    H229445   0.128   2.874  12.751  1.5723  0.1744 -1.2471
 2652TIP3   OH229446   0.655   4.669  12.715 -0.6253 -0.0042  0.2752
 2652TIP3    H129447   0.739   4.625  12.702 -1.0386 -0.4856 -0.8926
 2652TIP3    H229448   0.645   4.674  12.810  0.7273  0.0757  0.4328
 2653TIP3   OH229449   0.934   1.565   3.318  0.4050  0.0374 -0.4800
 2653TIP3    H129450   0.942   1.485   3.371 -3.0369 -0.7247 -0.8533
 2653TIP3    H229451   0.910   1.533   3.231  1.1877  1.4432 -1.2314
 2654TIP3   OH229452   6.269   4.587   0.357  0.4457  0.0375 -0.4480
 2654TIP3    H129453   6.343   4.559   0.303 -0.5333 -2.2423 -0.7496
 2654TIP3    H229454   6.253   4.512   0.415 -0.7120  1.0641  0.6050
 2655TIP3   OH229455   2.215   3.686  17.112 -0.5880  0.3546  0.1111
 2655TIP3    H129456   2.177   3.656  17.030  2.1134  3.1241 -2.4360
 2655TIP3    H229457   2.280   3.619  17.135 -0.7594 -0.0360 -0.5278
 2656TIP3   OH229458   2.647   3.603  15.645  0.4647  0.1267 -0.2284
 2656TIP3    H129459   2.590   3.534  15.610 -1.5757  1.4729  0.2473
 2656TIP3    H229460   2.670   3.572  15.732 -2.5742  1.0629  1.0375
 2657TIP3   OH229461   5.598   5.165   3.580 -0.1314  0.2309  0.2139
 2657TIP3    H129462   5.693   5.169   3.586 -0.0645  0.2631 -0.6855
 2657TIP3    H229463   5.570   5.255   3.565 -0.4088  0.3953  1.6145
 2658TIP3   OH229464   6.301   4.099  14.612  0.3399 -0.0320 -0.1126
 2658TIP3    H129465   6.263   4.156  14.679 -1.0232 -0.1319 -0.7688
 2658TIP3    H229466   6.340   4.160  14.549 -1.3756  0.2452 -0.9686
 2659TIP3   OH229467   0.847   0.643   3.535 -0.2055  0.8810  0.3088
 2659TIP3    H129468   0.809   0.697   3.605 -1.2349  1.1417 -0.4195
 2659TIP3    H229469   0.810   0.556   3.549 -1.8596  1.3318 -0.9178
 2660TIP3   OH229470   5.110   0.032  11.334 -0.1171  0.2714 -0.5379
 2660TIP3    H129471   5.091  -0.043  11.279 -2.1560  0.5688 -0.3179
 2660TIP3    H229472   5.162  -0.003  11.406  2.0253 -0.2407 -2.2069
 2661TIP3   OH229473   2.380   4.235   0.751 -0.1950  0.0119  0.1214
 2661TIP3    H129474   2.439   4.168   0.716  0.5355 -0.3774  1.9459
 2661TIP3    H229475   2.431   4.316   0.749 -0.4151  0.1412 -0.3708
 2662TIP3   OH229476   2.004   0.137   0.698  0.0158  0.1483  0.2601
 2662TIP3    H129477   1.976   0.212   0.645 -0.5457  1.3446  2.1531
 2662TIP3    H229478   2.093   0.160   0.727 -0.0955  0.0195  0.7175
 2663TIP3   OH229479   4.950   3.561   3.647  0.2174 -0.4891 -0.2908
 2663TIP3    H129480   4.949   3.540   3.740  0.7827 -0.6740 -0.3244
 2663TIP3    H229481   5.001   3.490   3.607 -0.5458 -0.7524 -0.8231
 2664TIP3   OH229482   6.293   1.112   3.761  0.2568 -0.3336 -0.1477
 2664TIP3    H129483   6.329   1.033   3.802 -0.1092 -1.0555 -1.1809
 2664TIP3    H229484   6.300   1.179   3.829  0.2001 -1.3436  0.8912
 2665TIP3   OH229485   2.368   3.198   2.012 -0.9936  0.0084 -0.4945
 2665TIP3    H129486   2.285   3.170   1.975 -0.4814 -0.8569 -1.0221
 2665TIP3    H229487   2.430   3.129   1.989  0.0021  0.8963 -0.6026
 2666TIP3   OH229488   0.120   4.847  14.224 -0.0227 -0.6887 -0.1971
 2666TIP3    H129489   0.119   4.943  14.231  2.5170 -0.6365  0.4833
 2666TIP3    H229490   0.155   4.830  14.137 -0.6489 -1.0407 -0.3903
 2667TIP3   OH229491   3.259   1.799   2.850  0.6263  0.0086 -0.0913
 2667TIP3    H129492   3.291   1.868   2.791 -2.0479  1.3840 -0.1166
 2667TIP3    H229493   3.196   1.750   2.797  0.5245 -0.7480  0.7112
 2668TIP3   OH229494   0.927   1.731  16.036 -0.4103  0.3533 -0.5750
 2668TIP3    H129495   0.964   1.791  15.972  0.3205  1.6215  0.9568
 2668TIP3    H229496   0.982   1.742  16.114 -1.5775 -0.7217  0.4559
 2669TIP3   OH229497   5.343   0.716   2.621 -0.0798 -0.1435  0.5368
 2669TIP3    H129498   5.384   0.654   2.561 -0.0090 -1.5751  2.0085
 2669TIP3    H229499   5.313   0.788   2.564  0.0071 -1.4117 -1.1925
 2670TIP3   OH229500   6.363   5.966   0.833  0.0397 -0.4666 -0.2078
 2670TIP3    H129501   6.301   5.971   0.760 -1.1535  0.6714  0.8158
 2670TIP3    H229502   6.410   5.883   0.820 -1.5571 -1.2709 -1.1484
 2671TIP3   OH229503   1.202   1.529   3.105  0.2817  0.4853  0.2408
 2671TIP3    H129504   1.225   1.613   3.145  0.9591  0.5970 -0.3642
 2671TIP3    H229505   1.236   1.535   3.016 -0.5722 -0.0411 -0.1308
 2672TIP3   OH229506   4.318   1.431   3.207  0.0720 -0.0946 -0.0256
 2672TIP3    H129507   4.303   1.380   3.127  2.4364 -0.5658 -0.2577
 2672TIP3    H229508   4.396   1.483   3.188  0.5779 -0.0686  1.9032
 2673TIP3   OH229509   4.407   6.194  12.410  0.6904 -0.2390  0.1390
 2673TIP3    H129510   4.476   6.155  12.355  1.5572  1.9944 -0.4664
 2673TIP3    H229511   4.441   6.280  12.434 -0.6850 -0.2258  2.2947
 2674TIP3   OH229512   5.333   4.947   3.062  0.4594  0.0684 -0.2333
 2674TIP3    H129513   5.320   4.983   3.149 -0.1003 -0.9728  0.1395
 2674TIP3    H229514   5.345   5.023   3.005 -0.1209  0.8011  0.6024
 2675TIP3   OH229515   0.893   6.320   0.265  0.5255 -0.3872 -0.2238
 2675TIP3    H129516   0.956   6.308   0.336 -0.3419  0.2214  0.6812
 2675TIP3    H229517   0.862   6.411   0.275 -3.0096 -1.5903  1.5351
 2676TIP3   OH229518   1.198   2.760   1.289  0.4760  0.0552  0.1392
 2676TIP3    H129519   1.112   2.739   1.252  0.5628  1.3064 -0.8264
 2676TIP3    H229520   1.255   2.690   1.258  0.0008 -0.2895  0.0365
 2677TIP3   OH229521   1.061   6.501  14.844  0.5019 -0.1235  0.1069
 2677TIP3    H129522   1.084   6.431  14.783 -1.1920  0.7360 -1.6425
 2677TIP3    H229523   1.067   6.581  14.792  2.3923  1.1198  2.0568
 2678TIP3   OH229524   1.299   1.962  12.235  0.2758  0.0400 -0.3352
 2678TIP3    H129525   1.329   1.876  12.265  0.9133  0.8670  1.5552
 2678TIP3    H229526   1.245   1.995  12.307  0.3774  1.3799 -0.8464
 2679TIP3   OH229527   5.207   2.443   1.485  0.0353 -0.0113  0.1181
 2679TIP3    H129528   5.232   2.355   1.513 -1.0118 -0.0711  0.9242
 2679TIP3    H229529   5.126   2.461   1.532 -0.3975  0.9244 -0.9295
 2680TIP3   OH229530   1.232   5.157  10.948 -0.0550 -0.0801 -1.0092
 2680TIP3    H129531   1.169   5.217  10.909  1.0323  0.8314 -1.4069
 2680TIP3    H229532   1.288   5.130  10.876  0.2575 -0.5819 -0.5904
 2681TIP3   OH229533   1.136   2.306   0.293  0.0839  0.5338 -0.7007
 2681TIP3    H129534   1.097   2.378   0.343 -0.1401  1.5510 -2.2578
 2681TIP3    H229535   1.225   2.297   0.328 -0.6894 -0.1423  1.2005
 2682TIP3   OH229536   5.310   4.458  13.197 -0.6841 -0.8738  0.6981
 2682TIP3    H129537   5.272   4.397  13.261 -0.6454 -1.1892  0.4215
 2682TIP3    H229538   5.367   4.403  13.143 -0.6448 -0.5882  0.4494
 2683TIP3   OH229539   0.802   0.758  12.725 -0.7056  0.2476 -0.1711
 2683TIP3    H129540   0.762   0.726  12.644 -1.1937  1.5573 -0.4631
 2683TIP3    H229541   0.758   0.709  12.794  0.7642 -2.0112 -0.7087
 2684TIP3   OH229542   1.689   5.093  13.052 -0.4200  0.3743 -0.6801
 2684TIP3    H129543   1.691   5.063  12.962 -1.4944  0.9034 -0.8976
 2684TIP3    H229544   1.777   5.126  13.069 -0.1949  0.2025 -1.5090
 2685TIP3   OH229545   2.790   4.879  12.637 -0.5946  0.4183 -0.0209
 2685TIP3    H129546   2.708   4.910  12.598 -1.3962 -2.0597 -0.5517
 2685TIP3    H229547   2.762   4.827  12.713  0.6572  1.2542  1.0509
 2686TIP3   OH229548   0.966   5.159   1.908  0.5159  0.3751 -0.1726
 2686TIP3    H129549   0.922   5.242   1.927 -0.9827 -0.8392  1.9485
 2686TIP3    H229550   0.946   5.143   1.816 -1.5391  1.0335  0.1037
 2687TIP3   OH229551   4.251   1.363  16.472  0.0333  0.0806  0.5038
 2687TIP3    H129552   4.287   1.276  16.452  1.6246  0.8876 -0.2830
 2687TIP3    H229553   4.323   1.409  16.515 -0.3443  1.4470 -0.2830
 2688TIP3   OH229554   3.585   5.561  11.752 -0.7212 -0.4742 -0.3901
 2688TIP3    H129555   3.662   5.619  11.751 -1.0956  0.0266 -0.5874
 2688TIP3    H229556   3.613   5.484  11.703 -0.5078 -0.0703 -0.9192
 2689TIP3   OH229557   3.950   3.680   2.590 -0.0727 -0.0791  0.0402
 2689TIP3    H129558   3.951   3.587   2.571  2.3603 -0.4892  1.6522
 2689TIP3    H229559   4.039   3.699   2.623 -0.0062  3.0754 -1.5156
 2690TIP3   OH229560   3.368   4.201  14.487  0.5466 -0.4492  0.4891
 2690TIP3    H129561   3.304   4.271  14.499 -0.1484 -0.8960 -0.5247
 2690TIP3    H229562   3.428   4.210  14.562  0.9001  1.6734  0.0053
 2691TIP3   OH229563   2.787   1.025  10.972  0.3374  0.2308 -0.4998
 2691TIP3    H129564   2.827   1.010  11.058 -1.9615 -1.2827  0.4002
 2691TIP3    H229565   2.787   0.939  10.930 -1.0765  0.3721 -0.8335
 2692TIP3   OH229566   6.375   5.444  14.149  0.0788 -0.0536  0.5615
 2692TIP3    H129567   6.458   5.425  14.106 -0.4820 -2.2335  0.3321
 2692TIP3    H229568   6.399   5.500  14.224  1.5008  0.7635 -0.4607
 2693TIP3   OH229569   5.211   4.010  15.665 -0.3422 -0.2169  0.1343
 2693TIP3    H129570   5.255   4.086  15.625 -1.0555 -0.3417 -0.9237
 2693TIP3    H229571   5.282   3.961  15.706  0.6412 -0.7220 -2.0310
 2694TIP3   OH229572   5.678   2.458  12.131  0.8180 -0.4610  0.0839
 2694TIP3    H129573   5.626   2.382  12.158  0.0973  0.5917  1.8596
 2694TIP3    H229574   5.622   2.533  12.150  1.7147  0.5619 -1.1430
 2695TIP3   OH229575   3.861   0.972  15.315  0.9533  0.1912  0.1125
 2695TIP3    H129576   3.895   0.945  15.400  1.0253  0.9317  0.3236
 2695TIP3    H229577   3.808   1.049  15.333 -1.5098 -1.3461 -0.1123
 2696TIP3   OH229578   2.130   6.700  15.512  0.5273  0.3960 -0.7255
 2696TIP3    H129579   2.169   6.627  15.561  1.1463  0.4948 -1.0667
 2696TIP3    H229580   2.183   6.707  15.433 -0.7140 -0.0298 -1.6311
 2697TIP3   OH229581   0.941   5.402  16.211  0.1308 -0.0231 -0.0455
 2697TIP3    H129582   0.902   5.316  16.230  0.1021 -0.0853 -0.3764
 2697TIP3    H229583   0.893   5.433  16.134 -0.1061  0.4519  0.2915
 2698TIP3   OH229584   4.201   1.894   2.891  0.2244 -0.1654 -0.4576
 2698TIP3    H129585   4.184   1.895   2.797  1.4208  0.0645 -0.6929
 2698TIP3    H229586   4.152   1.969   2.925  0.2952  0.1308 -1.0001
 2699TIP3   OH229587   5.990   0.176  16.095  0.4853 -0.2902 -0.4039
 2699TIP3    H129588   6.062   0.121  16.126  0.2312 -0.7747 -0.6637
 2699TIP3    H229589   5.911   0.130  16.124  0.2632 -0.3617 -1.1183
 2700TIP3   OH229590   4.283   4.262   1.683  0.0320 -0.1209  0.0912
 2700TIP3    H129591   4.295   4.203   1.758 -0.9713  1.2362  1.3877
 2700TIP3    H229592   4.290   4.205   1.607  2.0128 -1.4197  1.1468
 2701TIP3   OH229593   5.062   1.338  12.619 -0.7842 -0.1048  0.1000
 2701TIP3    H129594   4.973   1.304  12.628 -0.5382 -0.9385 -0.4853
 2701TIP3    H229595   5.118   1.261  12.627 -0.3047 -0.2838 -3.4417
 2702TIP3   OH229596   3.933   4.139   0.842 -0.0047  0.4872 -0.1311
 2702TIP3    H129597   3.967   4.170   0.758 -0.8182  0.1639 -0.5946
 2702TIP3    H229598   3.851   4.187   0.854 -0.3251 -0.0985  0.0611
 2703TIP3   OH229599   2.964   0.250  13.380  0.0479 -0.7735 -1.1878
 2703TIP3    H129600   2.888   0.219  13.428  1.3268 -0.9841  0.8168
 2703TIP3    H229601   2.934   0.331  13.338 -0.9340 -0.1362  0.6397
 2704TIP3   OH229602   2.323   1.913   5.967  0.0953  0.2601  0.2024
 2704TIP3    H129603   2.307   1.902   5.874 -1.7021  2.4670  0.1523
 2704TIP3    H229604   2.414   1.886   5.980  0.7139  0.8893 -2.3852
 2705TIP3   OH229605   2.051   5.950   5.348 -0.0407 -0.1053 -0.0426
 2705TIP3    H129606   2.055   6.045   5.364 -0.2626 -0.0171 -0.4864
 2705TIP3    H229607   2.124   5.914   5.399  2.3061  0.6924 -2.6239
 2706TIP3   OH229608   2.829   1.537   3.817  0.5569  0.2722  0.2031
 2706TIP3    H129609   2.849   1.493   3.899 -0.8102 -0.5726  0.1295
 2706TIP3    H229610   2.885   1.495   3.752  1.5053  0.8158  0.6555
 2707TIP3   OH229611   5.783   2.911   1.363 -0.4900 -0.2936 -0.2973
 2707TIP3    H129612   5.817   2.994   1.329  0.3368 -0.9607 -1.1621
 2707TIP3    H229613   5.726   2.878   1.293  0.8336 -1.4450 -0.8932
 2708TIP3   OH229614   5.476   1.722   3.281  0.3490  0.6395 -0.5270
 2708TIP3    H129615   5.525   1.726   3.199  0.2403  0.4388 -0.6025
 2708TIP3    H229616   5.539   1.745   3.349  0.8121 -0.6187 -0.5082
 2709TIP3   OH229617   3.221   4.079   0.681 -0.1406 -0.3090 -0.9532
 2709TIP3    H129618   3.276   4.009   0.646  0.4252 -0.4478  0.1980
 2709TIP3    H229619   3.263   4.105   0.762 -1.2377  0.2591 -0.5440
 2710TIP3   OH229620   3.337   6.663  15.126 -0.2207  0.0372 -0.4329
 2710TIP3    H129621   3.334   6.585  15.182  0.0979  0.0255 -0.4290
 2710TIP3    H229622   3.336   6.737  15.187  0.5975  0.0193 -0.3820
 2711TIP3   OH229623   3.553   2.482  16.369  0.2781 -0.7116 -0.2263
 2711TIP3    H129624   3.619   2.534  16.415 -0.5163 -1.7092  2.2567
 2711TIP3    H229625   3.469   2.511  16.405 -0.4810 -1.0703 -1.6114
 2712TIP3   OH229626   1.370   2.388  12.993 -0.4564 -0.2297  0.2834
 2712TIP3    H129627   1.295   2.448  12.985 -0.3829 -0.3242 -1.5600
 2712TIP3    H229628   1.370   2.339  12.910  2.3997  0.6624 -0.3330
 2713TIP3   OH229629   2.149   4.575   3.030 -0.3272 -0.7177  0.3502
 2713TIP3    H129630   2.122   4.618   3.111  0.8046  1.3718 -0.3147
 2713TIP3    H229631   2.090   4.610   2.963  1.5249  1.0820 -0.4570
 2714TIP3   OH229632   4.035   3.039  12.860 -0.1888  0.0570  0.3514
 2714TIP3    H129633   4.038   2.966  12.798 -0.1622 -0.4528  0.9436
 2714TIP3    H229634   3.955   3.087  12.837  0.8682  1.1022 -1.4128
 2715TIP3   OH229635   4.916   6.394   0.684  0.0694  0.7128 -0.0401
 2715TIP3    H129636   5.004   6.361   0.664  1.0431  1.8321  2.0650
 2715TIP3    H229637   4.857   6.337   0.635  1.8483 -1.4705  0.1944
 2716TIP3   OH229638   6.296   5.014  11.494  0.2072  1.2236 -0.4834
 2716TIP3    H129639   6.222   5.011  11.434 -0.4907  1.5329  0.3392
 2716TIP3    H229640   6.318   5.107  11.501 -0.1237  1.2562  0.2158
 2717TIP3   OH229641   6.362   0.159   1.675 -0.4920 -0.0227 -0.4894
 2717TIP3    H129642   6.385   0.234   1.620 -0.8818  0.8082  0.4367
 2717TIP3    H229643   6.319   0.098   1.616 -0.8607  0.8255 -1.1258
 2718TIP3   OH229644   2.175   5.534   0.325 -0.2351 -0.2459 -0.3609
 2718TIP3    H129645   2.211   5.623   0.322 -1.0104  0.0541 -3.3592
 2718TIP3    H229646   2.195   5.503   0.414  2.9602  1.6916 -0.2697
 2719TIP3   OH229647   2.711   6.622   2.704 -0.7497 -0.6904  0.4710
 2719TIP3    H129648   2.738   6.614   2.612 -0.0292  2.2561  0.3274
 2719TIP3    H229649   2.793   6.611   2.753 -0.6286  0.3842  0.5409
 2720TIP3   OH229650   3.885   4.074  15.658  0.1180  0.0173 -0.0029
 2720TIP3    H129651   3.954   4.116  15.708 -0.2210 -1.5200  1.8515
 2720TIP3    H229652   3.804   4.118  15.685 -0.0149 -0.5093  0.4639
 2721TIP3   OH229653   0.909   5.073  12.076  0.1616 -0.1286  0.0344
 2721TIP3    H129654   0.903   5.004  12.010 -1.2938  2.6464 -3.0159
 2721TIP3    H229655   0.849   5.045  12.145 -2.2174 -0.8969 -2.1926
 2722TIP3   OH229656   0.584   5.733   5.174  0.0857 -0.3042 -0.3322
 2722TIP3    H129657   0.603   5.656   5.120 -3.7383 -2.1603  0.6085
 2722TIP3    H229658   0.655   5.736   5.238  2.1235 -0.9390 -2.4354
 2723TIP3   OH229659   0.263   3.805  12.483 -0.2015 -0.1208 -0.2588
 2723TIP3    H129660   0.324   3.735  12.462  0.1199  0.0947 -0.0578
 2723TIP3    H229661   0.301   3.883  12.443 -0.6074 -0.0763 -0.5674
 2724TIP3   OH229662   5.132   4.344   4.240 -0.3149 -0.1226  0.5212
 2724TIP3    H129663   5.203   4.281   4.238  0.1037  0.3516  0.2999
 2724TIP3    H229664   5.067   4.309   4.178  0.8851  0.7828 -1.3264
 2725TIP3   OH229665   4.649   1.826   5.440  0.2064  0.1708  0.1331
 2725TIP3    H129666   4.586   1.857   5.375  1.0974 -0.9471 -1.3286
 2725TIP3    H229667   4.727   1.805   5.388  0.6271 -1.6686  1.4382
 2726TIP3   OH229668   4.384   5.546  14.766 -0.5172 -0.0179 -0.0641
 2726TIP3    H129669   4.354   5.487  14.836 -3.2300  0.1004 -1.0174
 2726TIP3    H229670   4.318   5.614  14.762  0.3010  0.7288 -1.8610
 2727TIP3   OH229671   3.457   2.895  16.940  0.1987  0.1666  0.1878
 2727TIP3    H129672   3.394   2.950  16.985  0.1238  0.6667 -0.5106
 2727TIP3    H229673   3.535   2.950  16.930  0.2066  0.0698 -0.3055
 2728TIP3   OH229674   0.582   2.025   6.784  0.3244  0.5019 -0.1031
 2728TIP3    H129675   0.617   2.114   6.780  0.3138  0.5136  0.0768
 2728TIP3    H229676   0.645   1.972   6.736  0.1459  0.6659 -0.5244
 2729TIP3   OH229677   6.198   4.779   2.113 -0.1154  1.4136 -0.0304
 2729TIP3    H129678   6.200   4.724   2.034  1.5181  1.1963  0.1263
 2729TIP3    H229679   6.265   4.845   2.098  2.7677 -0.6822  2.5365
 2730TIP3   OH229680   2.187   4.546  16.155 -0.1968  0.7171 -0.7659
 2730TIP3    H129681   2.278   4.521  16.141 -0.4505 -0.5962 -0.1914
 2730TIP3    H229682   2.191   4.618  16.218  0.3624 -1.2963  1.6836
 2731TIP3   OH229683   4.642   6.469   1.736  0.0676  0.4418  0.1825
 2731TIP3    H129684   4.705   6.431   1.675  1.2977  0.0880  1.6295
 2731TIP3    H229685   4.637   6.561   1.711  1.3661  0.5331  0.1975
 2732TIP3   OH229686   0.077   2.403   6.681  0.0089 -0.9343 -0.4199
 2732TIP3    H129687   0.074   2.347   6.759 -0.2252  0.0305  0.2814
 2732TIP3    H229688   0.004   2.372   6.627 -2.6963  1.1798  1.7449
 2733TIP3   OH229689   4.693   1.489   0.998 -0.3465  0.6503  0.4973
 2733TIP3    H129690   4.708   1.397   1.021  1.0281  0.1266 -2.0767
 2733TIP3    H229691   4.601   1.492   0.972 -0.3746 -0.0445  0.4927
 2734TIP3   OH229692   2.914   2.080   3.276 -0.3284  0.3300  0.2503
 2734TIP3    H129693   2.989   2.022   3.268 -1.4115 -1.2285  0.8126
 2734TIP3    H229694   2.926   2.123   3.361  0.9846  1.7293 -0.6077
 2735TIP3   OH229695   5.043   5.993  12.513  0.4688  0.1099  0.5085
 2735TIP3    H129696   5.104   6.019  12.582  0.2985  0.0652  0.6771
 2735TIP3    H229697   4.983   5.932  12.555  0.3967  0.0379  0.3064
 2736TIP3   OH229698   5.268   5.274   1.293  0.0590 -0.5384  0.1175
 2736TIP3    H129699   5.222   5.234   1.366  1.3286 -0.6107  0.8945
 2736TIP3    H229700   5.356   5.237   1.296 -0.3848 -2.0624 -2.6474
 2737TIP3   OH229701   1.026   2.869   3.108  0.1178 -0.3288  0.0374
 2737TIP3    H129702   1.052   2.777   3.106  0.8818 -0.1293  0.4047
 2737TIP3    H229703   1.108   2.917   3.102 -0.2823  0.3350 -0.2227
 2738TIP3   OH229704   2.280   3.021  16.022 -0.2095 -0.4825  0.0698
 2738TIP3    H129705   2.374   3.003  16.010  0.0052  0.1212  0.7686
 2738TIP3    H229706   2.272   3.042  16.115 -0.8291  0.7291 -0.2415
 2739TIP3   OH229707   3.902   6.583   5.624  0.8120  0.3035  0.8633
 2739TIP3    H129708   3.853   6.566   5.544  1.2314 -0.1318  0.6931
 2739TIP3    H229709   3.857   6.532   5.691 -1.1416  2.6811  1.5082
 2740TIP3   OH229710   3.881   1.853  16.725  0.4972 -0.2018  0.3164
 2740TIP3    H129711   3.884   1.832  16.819 -0.2198  1.5685  0.7775
 2740TIP3    H229712   3.789   1.873  16.708  0.8112  0.6333 -0.4873
 2741TIP3   OH229713   4.143   5.841  13.013 -0.0982 -0.4584 -0.0072
 2741TIP3    H129714   4.080   5.875  12.949  0.5438 -0.4914 -0.6619
 2741TIP3    H229715   4.089   5.791  13.074 -0.6208 -1.1250 -0.9810
 2742TIP3   OH229716   5.317   5.825  14.461 -0.3183  0.0946  0.2117
 2742TIP3    H129717   5.327   5.765  14.387 -1.2925 -0.2952  0.3956
 2742TIP3    H229718   5.382   5.894  14.443  0.4685 -0.7328 -0.2560
 2743TIP3   OH229719   5.053   6.367  16.764  0.4392 -0.6357  0.2395
 2743TIP3    H129720   5.110   6.431  16.721  0.0952  1.7142  2.9981
 2743TIP3    H229721   5.096   6.349  16.848  0.4514 -4.0395 -0.3698
 2744TIP3   OH229722   5.135   0.826   3.777 -0.0859 -0.5783  0.2507
 2744TIP3    H129723   5.094   0.912   3.765 -2.3675 -1.8348 -1.7965
 2744TIP3    H229724   5.229   0.844   3.777 -0.4742  2.0783  1.8681
 2745TIP3   OH229725   3.421   6.477  14.367  0.3269 -0.6811 -0.0482
 2745TIP3    H129726   3.511   6.481  14.398  0.6726  0.9275 -1.1736
 2745TIP3    H229727   3.425   6.418  14.292  0.6782  0.2476 -0.7772
 2746TIP3   OH229728   4.482   0.107   2.391  0.0141 -0.6071 -0.1018
 2746TIP3    H129729   4.425   0.140   2.461  1.7535  0.1464  1.0234
 2746TIP3    H229730   4.451   0.018   2.376 -2.1312  0.1127 -0.2891
 2747TIP3   OH229731   0.154   3.770  17.097 -0.2384  0.3954  0.2079
 2747TIP3    H129732   0.082   3.726  17.052 -2.6681  2.8607  1.4202
 2747TIP3    H229733   0.147   3.739  17.188  1.1644 -0.3889  0.0778
 2748TIP3   OH229734   2.065   1.790  12.783 -0.2093  0.6572  0.1659
 2748TIP3    H129735   2.125   1.716  12.792 -0.0077  1.0378  2.1760
 2748TIP3    H229736   1.996   1.756  12.726  1.0326 -0.3191 -0.8286
 2749TIP3   OH229737   1.793   6.741   6.260  0.1991 -0.9184  0.4862
 2749TIP3    H129738   1.796   6.819   6.205 -0.3321  0.2190  2.0167
 2749TIP3    H229739   1.858   6.682   6.221  0.7365  0.3477 -0.5995
 2750TIP3   OH229740   4.344   6.091   5.478  0.4259 -0.4589  0.1780
 2750TIP3    H129741   4.338   6.071   5.385  1.1567  1.1591 -0.2562
 2750TIP3    H229742   4.270   6.149   5.494  2.0122  1.7811 -0.1560
 2751TIP3   OH229743   4.115   0.707  15.738 -0.2530  0.1824  0.1771
 2751TIP3    H129744   4.091   0.750  15.820 -0.0881  0.0816  0.2775
 2751TIP3    H229745   4.206   0.680  15.750 -0.5878 -0.9130  0.4284
 2752TIP3   OH229746   0.332   4.439   0.705  0.3813 -0.1230  0.1382
 2752TIP3    H129747   0.347   4.520   0.753 -1.0456  0.6654 -0.6549
 2752TIP3    H229748   0.418   4.399   0.696  0.8599  0.4117  2.0692
 2753TIP3   OH229749   6.102   2.720  14.050 -0.2644  0.5777  0.1665
 2753TIP3    H129750   6.096   2.800  14.104  0.2257  2.1619 -1.9841
 2753TIP3    H229751   6.195   2.712  14.031  0.0405 -1.9371  2.2421
 2754TIP3   OH229752   2.890   1.643  12.653  0.1943 -0.1414  0.3144
 2754TIP3    H129753   2.911   1.624  12.561  1.0902 -0.1554  0.5110
 2754TIP3    H229754   2.841   1.566  12.682 -2.7191  1.0868 -0.9356
 2755TIP3   OH229755   1.096   0.037   0.013  0.0297 -0.2969  0.4609
 2755TIP3    H129756   1.180  -0.003   0.038  0.8417  1.4322  0.6660
 2755TIP3    H229757   1.092   0.027  -0.082 -1.1132 -3.2228  0.6899
 2756TIP3   OH229758   3.196   0.344  13.059  0.0869  0.3640 -0.2067
 2756TIP3    H129759   3.193   0.415  13.123 -0.6438  0.2300 -0.0777
 2756TIP3    H229760   3.104   0.318  13.048  0.1413  0.7187 -1.6899
 2757TIP3   OH229761   0.781   5.059  16.988  0.0041 -0.4912 -0.3893
 2757TIP3    H129762   0.718   5.059  17.060 -1.5087 -0.4646 -1.6874
 2757TIP3    H229763   0.831   4.978  17.001 -1.4584 -1.4186 -0.3229
 2758TIP3   OH229764   4.399   5.036  16.437 -0.3833  0.0124  0.1275
 2758TIP3    H129765   4.333   5.087  16.484  0.2995  1.2779 -0.2673
 2758TIP3    H229766   4.469   5.098  16.417  0.0299 -0.8426 -1.2325
 2759TIP3   OH229767   4.452   0.790   1.592 -0.0639  0.1588  0.3560
 2759TIP3    H129768   4.399   0.725   1.638  0.0174 -0.1060  0.0759
 2759TIP3    H229769   4.481   0.746   1.512 -0.8745  0.8703 -0.3603
 2760TIP3   OH229770   4.181   3.519  12.440 -0.1572  0.1953 -0.1167
 2760TIP3    H129771   4.132   3.594  12.472 -0.5063 -0.5818  1.2723
 2760TIP3    H229772   4.117   3.468  12.389 -0.4188 -0.0728  0.4691
 2761TIP3   OH229773   4.727   0.349  12.877 -0.1883  0.3686 -0.1208
 2761TIP3    H129774   4.640   0.314  12.855 -0.3560  1.2475 -0.9105
 2761TIP3    H229775   4.769   0.278  12.926 -0.0528 -1.4387 -2.6603
 2762TIP3   OH229776   5.146   1.631   0.524  0.3395  0.0357 -0.0966
 2762TIP3    H129777   5.103   1.711   0.493 -1.9452 -1.0282  0.1432
 2762TIP3    H229778   5.204   1.661   0.594 -1.8929  1.3269  1.3273
 2763TIP3   OH229779   3.634   4.269   3.162  0.6043  0.1764 -0.3945
 2763TIP3    H129780   3.668   4.182   3.138 -0.9221 -0.4945 -0.2080
 2763TIP3    H229781   3.706   4.310   3.209  2.0256 -0.2579 -2.0714
 2764TIP3   OH229782   4.063   6.269  11.581 -0.9945 -0.5309  0.5855
 2764TIP3    H129783   4.011   6.238  11.507 -0.7895 -1.2072  0.7221
 2764TIP3    H229784   4.153   6.265  11.550 -1.0017  0.6700  0.3366
 2765TIP3   OH229785   6.328   1.047   1.819  0.2460 -0.4141 -0.0549
 2765TIP3    H129786   6.289   1.118   1.870  0.7402  0.6987 -1.1724
 2765TIP3    H229787   6.255   1.007   1.772  0.0646 -0.1982  0.0458
 2766TIP3   OH229788   2.140   1.885   3.626  0.3682  0.2603 -0.3858
 2766TIP3    H129789   2.080   1.934   3.682  0.2200 -2.2163  1.8456
 2766TIP3    H229790   2.085   1.819   3.584  1.2364 -1.0559  0.4837
 2767TIP3   OH229791   2.352   1.697   6.535 -0.0231 -0.2093  0.2738
 2767TIP3    H129792   2.317   1.784   6.515  0.8297 -0.1358 -0.9832
 2767TIP3    H229793   2.439   1.714   6.570 -0.0983 -0.5388  0.6248
 2768TIP3   OH229794   0.663   6.532   0.400 -0.0425 -0.1516  0.0454
 2768TIP3    H129795   0.700   6.578   0.475 -2.0851  1.7444 -0.0044
 2768TIP3    H229796   0.579   6.498   0.432 -0.3144 -0.5116 -1.0201
 2769TIP3   OH229797   2.136   1.936  15.223  0.5516  0.3434  0.5188
 2769TIP3    H129798   2.086   1.967  15.148  0.5929 -1.1955 -0.1798
 2769TIP3    H229799   2.119   1.842  15.226  0.3479  0.4104  2.6155
 2770TIP3   OH229800   1.364   2.877   2.136 -0.3124  0.0241 -0.6661
 2770TIP3    H129801   1.453   2.910   2.122  0.1911 -0.2363  1.4687
 2770TIP3    H229802   1.352   2.882   2.231 -0.6795 -4.4755 -0.2586
 2771TIP3   OH229803   0.087   0.569   5.445  0.0170  0.3905  0.6060
 2771TIP3    H129804   0.065   0.513   5.370  1.7535 -3.5312  2.6795
 2771TIP3    H229805   0.006   0.574   5.496  0.0428 -1.2995  0.8865
 2772TIP3   OH229806   1.374   4.603   5.630 -0.2537 -0.1096 -0.0595
 2772TIP3    H129807   1.406   4.516   5.654 -0.4449 -0.0511  0.4254
 2772TIP3    H229808   1.424   4.663   5.686  0.2803  0.1443 -0.7843
 2773TIP3   OH229809   5.115   5.937  14.255  0.5257 -0.2950 -0.1092
 2773TIP3    H129810   5.188   5.880  14.229  0.2585 -0.2303 -1.0219
 2773TIP3    H229811   5.158   6.016  14.290  0.8938 -1.0205  1.1216
 2774TIP3   OH229812   6.034   1.783   2.349  0.3972 -0.2329 -0.2026
 2774TIP3    H129813   6.081   1.863   2.371 -0.3841 -0.3883  2.2942
 2774TIP3    H229814   5.974   1.769   2.422 -1.8514 -1.3370 -2.1308
 2775TIP3   OH229815   0.114   5.842   3.781 -0.2060 -0.1123  1.2119
 2775TIP3    H129816   0.031   5.822   3.737 -0.1269  0.0726  0.9783
 2775TIP3    H229817   0.156   5.757   3.793  0.4857 -0.0385 -0.4714
 2776TIP3   OH229818   1.417   6.636  11.809 -0.7678 -0.0340 -0.6429
 2776TIP3    H129819   1.346   6.700  11.814 -0.7029  0.2733 -2.8344
 2776TIP3    H229820   1.413   6.603  11.720  0.6795 -1.4022 -0.2357
 2777TIP3   OH229821   5.801   1.843  17.210  0.4163  0.1168 -0.0389
 2777TIP3    H129822   5.799   1.928  17.166 -0.4063  0.2579  0.2515
 2777TIP3    H229823   5.799   1.779  17.139  0.9980  0.3337 -0.2593
 2778TIP3   OH229824   2.674   5.064  16.124  0.0625  0.4007  0.0459
 2778TIP3    H129825   2.666   5.110  16.040  0.6831 -0.1301 -0.3156
 2778TIP3    H229826   2.678   5.134  16.189 -1.2068  0.8115 -0.2768
 2779TIP3   OH229827   3.562   2.926   3.901 -0.0541 -0.0494 -0.2119
 2779TIP3    H129828   3.615   2.847   3.895  1.5583  1.0504 -1.3415
 2779TIP3    H229829   3.570   2.953   3.993 -0.1549 -0.8916  0.0479
 2780TIP3   OH229830   2.957   0.652   5.008 -0.4611  0.5914  0.0888
 2780TIP3    H129831   2.887   0.645   4.943 -0.0388 -2.3089 -0.1932
 2780TIP3    H229832   3.037   0.664   4.956 -0.0749 -2.0986 -0.0720
 2781TIP3   OH229833   2.993   1.478  14.800  0.0186 -0.3602  0.6926
 2781TIP3    H129834   3.055   1.543  14.834  0.4445 -1.3141  1.8176
 2781TIP3    H229835   2.916   1.529  14.775  0.4740  0.6144  1.2232
 2782TIP3   OH229836   3.280   4.749  11.506  0.0278  0.1693  0.6453
 2782TIP3    H129837   3.357   4.704  11.540  0.2724  0.1201  0.0447
 2782TIP3    H229838   3.243   4.795  11.582  1.8861  1.9939  0.5395
 2783TIP3   OH229839   6.000   3.295  13.917 -0.1173 -0.9181 -0.1067
 2783TIP3    H129840   6.082   3.250  13.898  0.1597 -0.7240  0.5918
 2783TIP3    H229841   5.944   3.228  13.956 -0.0056 -0.8629  0.1506
 2784TIP3   OH229842   6.821   0.429   2.706  0.2510 -0.0098  0.7587
 2784TIP3    H129843   6.794   0.362   2.769 -1.6057 -0.0520 -0.0272
 2784TIP3    H229844   6.777   0.404   2.624  0.1882  1.6942  0.2341
 2785TIP3   OH229845   3.551   5.840   5.814 -0.8137 -0.5553 -0.0212
 2785TIP3    H129846   3.470   5.883   5.844 -1.5231 -1.3143 -0.7834
 2785TIP3    H229847   3.597   5.908   5.764  0.2131  0.6182  2.3748
 2786TIP3   OH229848   3.971   5.033  12.607  0.2674  0.2668  0.2301
 2786TIP3    H129849   3.991   5.126  12.593  1.5227 -0.2028 -1.4665
 2786TIP3    H229850   3.906   5.012  12.540  1.1927 -0.4283 -0.4787
 2787TIP3   OH229851   1.570   3.302   5.142 -0.1540 -0.2777 -0.0856
 2787TIP3    H129852   1.491   3.298   5.088 -1.4552 -1.6143  1.7763
 2787TIP3    H229853   1.583   3.396   5.158 -0.2602  0.0783 -1.9095
 2788TIP3   OH229854   0.408   1.263  16.426 -0.5955  0.7541 -0.2297
 2788TIP3    H129855   0.373   1.299  16.345  0.6345 -1.4304 -1.8435
 2788TIP3    H229856   0.355   1.303  16.495 -3.4327  0.7749 -2.2494
 2789TIP3   OH229857   0.924   4.767   1.363 -0.1947  0.3265  1.0888
 2789TIP3    H129858   1.011   4.744   1.394  0.8544  2.1845 -0.2744
 2789TIP3    H229859   0.927   4.862   1.352 -1.5024  0.1644 -1.5064
 2790TIP3   OH229860   3.000   5.496   2.549 -0.2184  0.7795 -0.2094
 2790TIP3    H129861   3.074   5.530   2.599  0.0146  1.5046 -1.0141
 2790TIP3    H229862   3.035   5.484   2.460  0.4386 -3.8208  0.4123
 2791TIP3   OH229863   2.701   2.003  11.899  0.8285 -0.0061 -0.1259
 2791TIP3    H129864   2.735   2.039  11.817 -0.8818  0.4715 -0.6666
 2791TIP3    H229865   2.708   2.075  11.961  1.3469 -0.1110 -0.0511
 2792TIP3   OH229866   0.458   2.677   6.326  0.8824  0.2788  0.0150
 2792TIP3    H129867   0.446   2.772   6.335  1.2694  0.2492  0.9399
 2792TIP3    H229868   0.543   2.660   6.367  1.3807 -0.3095 -1.2354
 2793TIP3   OH229869   1.740   1.308  13.950 -0.2446  0.0971  0.5980
 2793TIP3    H129870   1.794   1.253  14.006  1.2698  0.9255 -0.0043
 2793TIP3    H229871   1.789   1.390  13.942 -2.2745  1.4768  1.2328
 2794TIP3   OH229872   3.125   5.466  12.309 -0.4023 -0.1641 -0.6080
 2794TIP3    H129873   3.131   5.396  12.244 -0.4636 -0.6061 -0.1475
 2794TIP3    H229874   3.081   5.425  12.384 -0.3287  0.3345 -0.2867
 2795TIP3   OH229875   0.840   2.417   0.924  0.0342  0.0922 -0.1333
 2795TIP3    H129876   0.861   2.354   0.855  3.4312 -0.4300  1.1919
 2795TIP3    H229877   0.919   2.471   0.933 -0.2219  0.1098  3.3127
 2796TIP3   OH229878   2.383   5.424   3.456  0.1328  0.0534 -0.3582
 2796TIP3    H129879   2.463   5.378   3.430  0.4042  0.3782 -0.1102
 2796TIP3    H229880   2.400   5.515   3.431  0.6500  0.4979  1.4688
 2797TIP3   OH229881   4.116   3.250  12.342 -0.0318  0.5799 -0.3201
 2797TIP3    H129882   4.042   3.193  12.320  0.2053  0.1679 -0.0565
 2797TIP3    H229883   4.140   3.291  12.259 -1.5919  1.9741 -0.1212
 2798TIP3   OH229884   0.051   2.980   2.600  0.4479 -0.2601 -0.0018
 2798TIP3    H129885   0.102   3.024   2.667  0.6429 -0.9473  0.3100
 2798TIP3    H229886  -0.015   2.930   2.648  1.0406 -1.3260 -0.2644
 2799TIP3   OH229887   4.321   0.414   1.519  0.1057  0.4489  0.4420
 2799TIP3    H129888   4.296   0.390   1.608 -0.2707 -1.1330 -0.0602
 2799TIP3    H229889   4.239   0.410   1.469  0.1385  2.2168  0.1702
 2800TIP3   OH229890   5.619   3.122   2.170 -0.2336  0.1071 -0.0377
 2800TIP3    H129891   5.670   3.177   2.229 -0.2455  0.9188 -0.7624
 2800TIP3    H229892   5.670   3.121   2.088 -1.8019  1.7155 -1.1000
 2801TIP3   OH229893   1.248   1.596   6.409  0.5044  0.6280  0.1258
 2801TIP3    H129894   1.258   1.692   6.407 -1.5467  0.8907 -1.7075
 2801TIP3    H229895   1.212   1.578   6.496  0.5071  1.5681  0.3355
 2802TIP3   OH229896   5.121   3.908  14.374  0.2538  0.4588 -0.6464
 2802TIP3    H129897   5.136   3.813  14.365  0.4536  0.4438 -0.2117
 2802TIP3    H229898   5.156   3.929  14.461 -2.0692  0.4842  0.3462
 2803TIP3   OH229899   4.050   1.013   1.947  1.1241 -0.2428 -0.4593
 2803TIP3    H129900   4.102   1.089   1.974  0.3014 -0.3049  1.4841
 2803TIP3    H229901   4.061   1.009   1.852  1.1795  2.3309 -0.6332
 2804TIP3   OH229902   4.742   1.018  11.386 -1.3542  0.1821  0.3333
 2804TIP3    H129903   4.679   1.087  11.406  1.9551  3.2384  1.3530
 2804TIP3    H229904   4.799   1.013  11.463  0.2985 -1.6273 -0.8789
 2805TIP3   OH229905   3.150   0.273  11.755  0.1435  0.8246 -0.4220
 2805TIP3    H129906   3.084   0.265  11.686  0.9270 -0.7065 -1.0237
 2805TIP3    H229907   3.116   0.219  11.826 -0.2190  1.6833  0.0836
 2806TIP3   OH229908   0.701   2.885   2.597  0.2668  0.8570  0.9601
 2806TIP3    H129909   0.645   2.841   2.661 -0.1379  2.1161  1.4961
 2806TIP3    H229910   0.681   2.978   2.607  2.8954  1.4481  1.6576
 2807TIP3   OH229911   6.426   2.240  10.458 -0.8153 -0.1105 -0.6130
 2807TIP3    H129912   6.412   2.333  10.475  0.6290 -0.0303  0.2860
 2807TIP3    H229913   6.351   2.197  10.499 -1.4160  0.6479 -0.9058
 2808TIP3   OH229914   3.726   1.408   4.993  0.1192  0.4310 -0.1480
 2808TIP3    H129915   3.637   1.416   4.959 -0.6607  0.1554  1.6962
 2808TIP3    H229916   3.753   1.498   5.010 -0.3682  0.4427  0.6035
 2809TIP3   OH229917   0.065   0.995   3.281  0.1643 -0.8427  0.4024
 2809TIP3    H129918   0.042   0.929   3.216 -1.2568  0.4889 -0.5296
 2809TIP3    H229919  -0.009   0.995   3.343 -0.5993  0.8189 -0.4311
 2810TIP3   OH229920   3.699   4.829  14.982 -0.0159 -0.3025  0.2804
 2810TIP3    H129921   3.793   4.814  14.986 -0.0152 -0.1697  0.8383
 2810TIP3    H229922   3.672   4.842  15.073 -0.2992  1.2771  0.0155
 2811TIP3   OH229923   1.950   4.752  17.161  1.0324  0.4289  0.1075
 2811TIP3    H129924   2.032   4.706  17.179  0.8263  0.6138  1.6753
 2811TIP3    H229925   1.943   4.817  17.231  0.3823  1.5911 -0.9897
 2812TIP3   OH229926   4.771   2.724  11.395 -0.7501  0.0359  0.2688
 2812TIP3    H129927   4.851   2.727  11.342  0.3187 -0.9857  1.7494
 2812TIP3    H229928   4.726   2.806  11.375  1.4784  1.4311  0.6029
 2813TIP3   OH229929   4.037   2.127   2.902  0.7929  0.2061 -0.3374
 2813TIP3    H129930   3.975   2.103   2.971  1.9109 -0.6802  0.3946
 2813TIP3    H229931   3.982   2.147   2.826 -0.4178  0.2919  0.5343
 2814TIP3   OH229932   6.479   4.785  16.454  0.0524  0.0197 -0.1447
 2814TIP3    H129933   6.485   4.696  16.490  0.8086  0.7563  1.6150
 2814TIP3    H229934   6.554   4.792  16.395  0.2276 -0.3712  0.0300
 2815TIP3   OH229935   2.296   6.645   3.423 -0.7262  0.2219 -0.6458
 2815TIP3    H129936   2.242   6.673   3.349 -2.2276  0.0527  0.3373
 2815TIP3    H229937   2.308   6.551   3.409 -0.1809  0.3618 -1.1646
 2816TIP3   OH229938   0.669   1.467   2.682 -0.3849 -0.1656  0.7147
 2816TIP3    H129939   0.684   1.438   2.593 -0.8942  0.5802  0.3713
 2816TIP3    H229940   0.750   1.512   2.707 -0.8986  1.2765 -0.0710
 2817TIP3   OH229941   5.541   0.809  16.385 -0.1574  0.5847 -0.1687
 2817TIP3    H129942   5.512   0.845  16.301  0.1836 -0.6250 -0.8272
 2817TIP3    H229943   5.525   0.879  16.448  1.3254  2.2406 -1.5267
 2818TIP3   OH229944   4.284   1.744  13.778 -0.2510  0.3581  0.1617
 2818TIP3    H129945   4.303   1.834  13.805 -0.4095  0.8115 -1.1576
 2818TIP3    H229946   4.310   1.741  13.686 -1.8221 -0.4593 -0.2788
 2819TIP3   OH229947   6.005   2.139  13.851 -0.4067 -0.2443 -0.0859
 2819TIP3    H129948   6.037   2.226  13.825 -1.7742  0.1377 -0.6461
 2819TIP3    H229949   6.052   2.118  13.931 -0.9649  1.6190  0.8019
 2820TIP3   OH229950   1.204   0.895   3.796  0.9122 -0.1013  0.2649
 2820TIP3    H129951   1.166   0.974   3.835  0.4404 -0.2436  0.1091
 2820TIP3    H229952   1.251   0.927   3.719  1.4055  0.1190  0.6528
 2821TIP3   OH229953   4.523   4.390   4.795 -0.2436 -0.3006 -0.7328
 2821TIP3    H129954   4.501   4.420   4.707  0.3971  0.6279 -0.5953
 2821TIP3    H229955   4.605   4.435   4.816  0.0845 -1.2094 -0.0087
 2822TIP3   OH229956   2.194   3.727  15.160 -0.3917 -0.6016 -0.2769
 2822TIP3    H129957   2.225   3.711  15.250 -0.2940 -1.4969 -0.4628
 2822TIP3    H229958   2.136   3.654  15.141 -1.4590  0.2661 -0.4911
 2823TIP3   OH229959   6.727   2.443  14.048  0.3052 -0.3947  0.0722
 2823TIP3    H129960   6.806   2.457  14.101  0.7112 -2.5380  0.1201
 2823TIP3    H229961   6.655   2.474  14.104  1.0773  1.7712 -0.0569
 2824TIP3   OH229962   1.792   5.650  12.222  0.4001 -0.3267  0.4816
 2824TIP3    H129963   1.798   5.647  12.126 -0.0725 -1.1287  0.4688
 2824TIP3    H229964   1.860   5.711  12.248  1.5520 -1.2276 -0.2837
 2825TIP3   OH229965   0.766   1.741   1.839 -0.3192 -0.0620  0.3978
 2825TIP3    H129966   0.724   1.823   1.863  0.5433  0.5864 -0.2696
 2825TIP3    H229967   0.842   1.735   1.897 -0.0270 -0.0719  0.0168
 2826TIP3   OH229968   1.302   3.452   4.487  0.0912 -0.5741  0.0844
 2826TIP3    H129969   1.273   3.512   4.418 -0.0978 -0.3984  0.3160
 2826TIP3    H229970   1.331   3.374   4.440  1.1365  0.0089 -0.2845
 2827TIP3   OH229971   2.996   1.711  12.057 -0.0992 -0.2233  0.2075
 2827TIP3    H129972   2.942   1.633  12.067  0.3559 -0.4544  0.8828
 2827TIP3    H229973   2.964   1.772  12.123 -0.8610  0.4155 -0.7101
 2828TIP3   OH229974   1.275   3.295   1.179  0.4273 -0.1367 -0.4996
 2828TIP3    H129975   1.235   3.208   1.169  1.0907 -0.3918 -1.0277
 2828TIP3    H229976   1.278   3.309   1.274 -1.0019 -0.0532 -0.4476
 2829TIP3   OH229977   0.371   4.685   6.019  0.0734  0.0852  0.5061
 2829TIP3    H129978   0.306   4.740   5.976 -0.7035  0.2110  1.7814
 2829TIP3    H229979   0.393   4.732   6.099 -0.9612 -1.6188  1.8716
 2830TIP3   OH229980   0.081   0.866   5.810  0.0924 -0.1095  0.5614
 2830TIP3    H129981   0.078   0.957   5.841 -2.3746  0.3605 -0.7923
 2830TIP3    H229982   0.004   0.825   5.849  0.6429 -1.3441  0.3722
 2831TIP3   OH229983   0.663   6.221   1.876 -0.7215 -0.0907 -0.3514
 2831TIP3    H129984   0.583   6.194   1.831  0.5275 -3.1328 -0.9922
 2831TIP3    H229985   0.724   6.243   1.805 -0.6374  1.3233  0.1141
 2832TIP3   OH229986   5.012   6.719  14.249 -0.2908  0.2268 -0.7920
 2832TIP3    H129987   5.028   6.754  14.337  0.8510 -3.6732  0.7810
 2832TIP3    H229988   4.946   6.651  14.262  0.6758 -1.1853 -2.7197
 2833TIP3   OH229989   4.555   3.822   3.328  0.2757 -0.1076  0.4462
 2833TIP3    H129990   4.528   3.756   3.391 -0.3055  0.8510  1.2436
 2833TIP3    H229991   4.643   3.847   3.355 -0.6758  1.6979  2.1613
 2834TIP3   OH229992   3.580   5.970   0.391  0.0437 -0.1273 -0.1030
 2834TIP3    H129993   3.500   5.967   0.338 -0.4006  0.9097  0.4632
 2834TIP3    H229994   3.557   6.028   0.464  0.2396 -2.4215  1.9188
 2835TIP3   OH229995   6.371   2.966   5.859 -0.0640 -0.3688  0.2358
 2835TIP3    H129996   6.431   3.034   5.891 -0.7428 -0.2697  1.3187
 2835TIP3    H229997   6.302   2.961   5.924 -1.4051 -0.2988 -1.1153
 2836TIP3   OH229998   2.997   5.785  10.850 -0.5423 -0.4674  0.1670
 2836TIP3    H129999   3.056   5.802  10.777 -1.8297  0.5908 -0.6634
 2836TIP3    H230000   2.993   5.689  10.856  2.1141 -0.5976  1.0041
 2837TIP3   OH230001   4.588   1.798  13.236  0.2456 -0.3660 -0.5628
 2837TIP3    H130002   4.679   1.785  13.210  0.5603  0.0206  0.3122
 2837TIP3    H230003   4.585   1.771  13.328 -0.1754  1.0099 -0.1442
 2838TIP3   OH230004   6.566   1.682  15.875  0.5390 -0.1460 -0.4182
 2838TIP3    H130005   6.538   1.773  15.887  1.7554  0.4115 -1.5251
 2838TIP3    H230006   6.631   1.667  15.943 -0.7659 -0.7279  0.7530
 2839TIP3   OH230007   0.729   1.225  13.331  0.3024  0.6699 -0.5844
 2839TIP3    H130008   0.732   1.270  13.416 -0.5342 -1.2084  0.5025
 2839TIP3    H230009   0.816   1.242  13.293  1.2694  0.3359  1.3272
 2840TIP3   OH230010   1.744   2.839  13.160  0.2201  0.2212  0.3333
 2840TIP3    H130011   1.704   2.759  13.125  0.4289 -0.3504  1.3693
 2840TIP3    H230012   1.838   2.822  13.155  0.2603 -0.5057  2.5109
 2841TIP3   OH230013   1.666   2.716  14.592 -0.3162 -0.6004  0.5442
 2841TIP3    H130014   1.636   2.657  14.523 -1.0906 -0.0378  0.3835
 2841TIP3    H230015   1.596   2.780  14.600  0.1724 -0.1439  1.2424
 2842TIP3   OH230016   4.266   2.540  13.066  0.0099  0.1249  0.3972
 2842TIP3    H130017   4.267   2.633  13.088  1.2611  0.8767 -2.3220
 2842TIP3    H230018   4.300   2.496  13.144 -1.4503  1.7935  2.0726
 2843TIP3   OH230019   0.375   6.447   2.021  0.3936  0.2033  1.0031
 2843TIP3    H130020   0.435   6.482   1.954  0.6886  0.6555  1.4889
 2843TIP3    H230021   0.346   6.525   2.069  0.8035 -0.1808  1.9030
 2844TIP3   OH230022   5.084   6.545  14.645  0.1119 -0.4071  0.3874
 2844TIP3    H130023   5.121   6.628  14.615 -1.2704  0.5164  1.1479
 2844TIP3    H230024   5.059   6.500  14.564 -1.3766  1.0062  0.0133
 2845TIP3   OH230025   3.920   2.856   1.981  0.1316 -0.0498 -0.5575
 2845TIP3    H130026   3.915   2.798   1.905  1.4400  1.3872 -1.8060
 2845TIP3    H230027   3.887   2.940   1.949  3.2881  1.3540 -0.4222
 2846TIP3   OH230028   2.869   1.295   4.849 -0.2594 -0.0932  0.6085
 2846TIP3    H130029   2.919   1.220   4.820  0.3677  0.6096 -0.1660
 2846TIP3    H230030   2.816   1.320   4.773 -1.5942 -0.6504  1.3213
 2847TIP3   OH230031   4.613   1.233  14.619 -0.2867  0.3764  0.6099
 2847TIP3    H130032   4.558   1.195  14.551 -1.1794  1.0162  0.9551
 2847TIP3    H230033   4.651   1.311  14.578  0.3970 -0.0837  0.3615
 2848TIP3   OH230034   3.557   5.145   1.140 -0.0174 -0.3061  0.2360
 2848TIP3    H130035   3.513   5.227   1.119 -2.3640 -1.6304 -0.3807
 2848TIP3    H230036   3.617   5.167   1.212 -0.7816  1.8504  0.2666
 2849TIP3   OH230037   3.375   2.617  15.430 -0.1871  0.1484 -0.5625
 2849TIP3    H130038   3.281   2.630  15.440  0.0655  1.0767  0.8141
 2849TIP3    H230039   3.411   2.705  15.423  0.8979  0.0313  2.2438
 2850TIP3   OH230040   4.810   2.789   1.334 -0.3195 -0.0339 -0.4088
 2850TIP3    H130041   4.738   2.851   1.320  0.1912  1.5969  3.0571
 2850TIP3    H230042   4.880   2.821   1.276 -1.4798 -0.1361 -1.9456
 2851TIP3   OH230043   6.585   4.269  16.609 -0.4542  0.0519 -0.3603
 2851TIP3    H130044   6.654   4.203  16.608 -1.4268 -0.9984  0.3070
 2851TIP3    H230045   6.576   4.294  16.701 -1.0009  0.1301 -0.4301
 2852TIP3   OH230046   1.590   5.982   5.901  0.2567 -0.1016 -0.0406
 2852TIP3    H130047   1.648   5.964   5.974  0.4588  0.2708 -0.1073
 2852TIP3    H230048   1.593   6.077   5.890 -1.2956  0.0500  0.7164
 2853TIP3   OH230049   2.337   2.278   3.423 -0.5436 -0.4240  0.3471
 2853TIP3    H130050   2.424   2.316   3.408 -0.7715 -0.1730 -0.4117
 2853TIP3    H230051   2.354   2.188   3.449 -0.0728 -0.5680 -0.4298
 2854TIP3   OH230052   5.261   5.350  17.153  0.5998  0.2546 -0.7031
 2854TIP3    H130053   5.223   5.280  17.101 -0.8546  0.9336 -0.6142
 2854TIP3    H230054   5.327   5.306  17.207 -1.1888 -1.3208  0.3344
 2855TIP3   OH230055   0.463   6.566   5.757 -0.5532  0.1348  0.7631
 2855TIP3    H130056   0.375   6.544   5.725 -0.4358 -0.9053  1.1261
 2855TIP3    H230057   0.461   6.661   5.768 -1.3547  0.2275 -0.0654
 2856TIP3   OH230058   1.189   3.909   3.546 -0.1491  0.0154  0.2956
 2856TIP3    H130059   1.255   3.861   3.495  2.0598  2.6812  0.3590
 2856TIP3    H230060   1.118   3.926   3.484  2.0650  2.3792 -1.8458
 2857TIP3   OH230061   0.502   2.016  16.523 -0.0511  0.2786  0.6239
 2857TIP3    H130062   0.427   1.955  16.521 -1.3925  1.8744 -1.3311
 2857TIP3    H230063   0.469   2.092  16.571  0.8166  0.4538  0.9539
 2858TIP3   OH230064   4.097   2.628   5.369 -0.7028  0.3439 -0.5899
 2858TIP3    H130065   4.175   2.675   5.397 -0.2072 -0.4236 -0.6640
 2858TIP3    H230066   4.096   2.549   5.423 -0.1082 -0.8214 -2.2122
 2859TIP3   OH230067   3.913   5.650   5.081 -0.0093 -0.5173 -0.0799
 2859TIP3    H130068   3.871   5.640   5.167 -0.6110 -0.1213 -0.3169
 2859TIP3    H230069   3.865   5.723   5.040  0.6952 -0.2809 -0.4952
 2860TIP3   OH230070   5.464   5.515  12.802  0.1538  0.0715  0.2687
 2860TIP3    H130071   5.376   5.478  12.789  1.0138 -1.8242 -0.6342
 2860TIP3    H230072   5.487   5.554  12.718  1.3556 -2.2696 -0.5793
 2861TIP3   OH230073   3.495   0.466   0.164 -0.2203 -0.2636  0.6846
 2861TIP3    H130074   3.519   0.387   0.213 -0.3393 -0.7149  0.0355
 2861TIP3    H230075   3.572   0.523   0.170 -0.1099 -0.4587  1.1033
 2862TIP3   OH230076   1.510   1.158  10.557  0.2345  0.3944  0.9531
 2862TIP3    H130077   1.500   1.076  10.605  2.0656  0.1926  1.0427
 2862TIP3    H230078   1.445   1.153  10.487  1.0420 -1.6365  0.2838
 2863TIP3   OH230079   2.132   3.156   1.558 -0.0892  0.1674 -0.1223
 2863TIP3    H130080   2.082   3.077   1.538 -1.8306  1.0539  0.5815
 2863TIP3    H230081   2.169   3.183   1.473  1.2807 -1.8412 -0.2306
 2864TIP3   OH230082   1.712   3.996  11.897  0.2378  0.5129 -0.1863
 2864TIP3    H130083   1.621   3.994  11.926  0.7367 -0.5100  1.4558
 2864TIP3    H230084   1.707   4.009  11.802 -1.7420 -2.9052 -0.7081
 2865TIP3   OH230085   3.040   0.750  16.253  0.3303 -0.0173  0.3869
 2865TIP3    H130086   3.010   0.659  16.246  0.7689 -0.1921  0.7736
 2865TIP3    H230087   2.961   0.802  16.240 -0.4044 -0.4872  2.5877
 2866TIP3   OH230088   3.142   1.531  15.114  0.4128  0.0252 -0.3089
 2866TIP3    H130089   3.066   1.558  15.166  0.0940  1.5949 -1.5052
 2866TIP3    H230090   3.217   1.551  15.169  0.0055 -2.9703  1.5292
 2867TIP3   OH230091   0.710   4.843   3.178 -0.8855 -0.1774  0.0701
 2867TIP3    H130092   0.736   4.933   3.161 -0.8987 -0.0678  0.6237
 2867TIP3    H230093   0.617   4.839   3.153 -0.3351 -0.6253 -2.1230
 2868TIP3   OH230094   1.277   2.533   1.159  0.6212  0.2195  0.7158
 2868TIP3    H130095   1.252   2.471   1.091 -2.9543  1.5133  0.6228
 2868TIP3    H230096   1.244   2.495   1.240  0.6989  0.8061  1.0303
 2869TIP3   OH230097   4.873   2.141   3.717  0.2615  0.0524 -0.3054
 2869TIP3    H130098   4.799   2.144   3.656 -2.0149 -1.0750  2.1437
 2869TIP3    H230099   4.905   2.231   3.721 -2.3937  1.0790  0.0002
 2870TIP3   OH230100   4.269   1.066   4.124 -0.0100  0.0920  0.5873
 2870TIP3    H130101   4.314   0.983   4.139  0.8793  0.3927 -0.3109
 2870TIP3    H230102   4.179   1.050   4.151  0.3950 -0.8280  1.4633
 2871TIP3   OH230103   5.981   2.737  14.605 -0.2493 -0.1997 -0.0380
 2871TIP3    H130104   6.036   2.807  14.571  1.4533 -2.9590 -3.7667
 2871TIP3    H230105   5.897   2.749  14.562 -0.8982  0.9814  1.4736
 2872TIP3   OH230106   6.621   2.061   1.271 -0.4629 -0.5373 -0.1640
 2872TIP3    H130107   6.558   2.118   1.227 -1.2567  0.6782  2.3625
 2872TIP3    H230108   6.668   2.118   1.331  1.6571 -1.8298 -0.4493
 2873TIP3   OH230109   2.833   0.692   1.872  0.2001  0.2096 -0.1075
 2873TIP3    H130110   2.811   0.764   1.931 -1.2954 -0.6898  0.4931
 2873TIP3    H230111   2.752   0.642   1.865  1.0202 -1.0312 -1.0559
 2874TIP3   OH230112   1.306   5.981   1.681 -0.5754  0.1519 -0.0078
 2874TIP3    H130113   1.219   5.944   1.697 -1.0697  1.8290  1.4516
 2874TIP3    H230114   1.349   5.981   1.766  1.3880 -1.7417 -0.8823
 2875TIP3   OH230115   1.979   1.700   3.537  0.2874  0.1579  0.1204
 2875TIP3    H130116   1.907   1.710   3.475 -0.1606  2.0639  0.8842
 2875TIP3    H230117   1.979   1.607   3.559  0.6046 -0.6443 -2.8317
 2876TIP3   OH230118   6.033   3.505  11.802  0.4666 -0.2005  0.6587
 2876TIP3    H130119   6.033   3.412  11.824 -2.7592 -0.1798  1.3242
 2876TIP3    H230120   5.985   3.511  11.719  0.7543  0.8526  0.5471
 2877TIP3   OH230121   2.455   4.840  15.436 -0.3570 -0.0518  0.3474
 2877TIP3    H130122   2.391   4.841  15.365  0.1277  1.3373 -0.1020
 2877TIP3    H230123   2.402   4.850  15.516 -0.7425  0.9074 -0.0055
 2878TIP3   OH230124   5.976   1.198  16.748 -0.3981  0.0845  0.4076
 2878TIP3    H130125   5.994   1.165  16.836  0.6746 -1.2459 -0.2734
 2878TIP3    H230126   5.957   1.120  16.696  1.3308  0.5633 -1.0534
 2879TIP3   OH230127   1.862   3.615  11.469  0.5105 -0.1666  0.0684
 2879TIP3    H130128   1.904   3.604  11.383 -0.5503  1.5401 -0.7108
 2879TIP3    H230129   1.770   3.634  11.449  0.6568  2.5050  1.4346
 2880TIP3   OH230130   4.935   4.082  14.652 -0.2780 -0.6677  0.0808
 2880TIP3    H130131   4.978   4.003  14.686  1.5781 -0.1043 -0.8248
 2880TIP3    H230132   4.924   4.138  14.729  0.9561 -0.6955  0.2945
 2881TIP3   OH230133   0.140   2.587   3.447 -0.0752  0.2742  0.4081
 2881TIP3    H130134   0.127   2.512   3.505  0.9553  0.4076  0.8370
 2881TIP3    H230135   0.052   2.606   3.412 -0.1451 -1.9878 -0.8279
 2882TIP3   OH230136   6.720   4.137  16.146  0.7134  0.3960 -0.3059
 2882TIP3    H130137   6.731   4.075  16.218 -4.1005 -0.1379  0.2890
 2882TIP3    H230138   6.718   4.082  16.067 -0.8510  0.0832 -0.0646
 2883TIP3   OH230139   6.235   5.479   0.106  0.3582 -0.7619 -0.2854
 2883TIP3    H130140   6.183   5.549   0.067 -1.4140 -1.6206  0.3938
 2883TIP3    H230141   6.227   5.493   0.201  2.3320 -0.2822 -0.1516
 2884TIP3   OH230142   0.033   1.875   2.074 -0.2473  0.4803  0.2402
 2884TIP3    H130143  -0.031   1.898   2.007 -0.3820 -1.6542 -0.4371
 2884TIP3    H230144   0.031   1.949   2.135 -0.0735  2.5261 -2.0776
 2885TIP3   OH230145   0.510   3.794  11.662 -0.3744 -0.7250  0.2452
 2885TIP3    H130146   0.595   3.813  11.623  0.0626 -2.1502  0.4367
 2885TIP3    H230147   0.487   3.872  11.712  0.6900 -0.2235 -0.0365
 2886TIP3   OH230148   1.778   5.421  16.815 -0.3130 -0.2146  0.5863
 2886TIP3    H130149   1.813   5.341  16.778 -0.8934 -0.0009 -0.4786
 2886TIP3    H230150   1.689   5.398  16.844 -1.4797  0.5800 -2.0398
 2887TIP3   OH230151   0.617   0.363   6.354 -0.5736 -0.1655  0.0353
 2887TIP3    H130152   0.659   0.432   6.302 -0.1167 -0.3166  0.1992
 2887TIP3    H230153   0.528   0.394   6.367 -1.3736 -1.0346 -2.6053
 2888TIP3   OH230154   0.038   1.647  15.150  0.1268 -0.2449  0.1592
 2888TIP3    H130155  -0.016   1.712  15.195  1.9617  1.0484  0.5843
 2888TIP3    H230156   0.095   1.698  15.092 -0.2230 -1.6893 -1.5543
 2889TIP3   OH230157   2.311   4.213  15.854 -0.2628 -0.2449  0.0725
 2889TIP3    H130158   2.389   4.180  15.810 -0.8279 -0.5348 -0.7289
 2889TIP3    H230159   2.303   4.158  15.932  1.3689  0.9805  1.1790
 2890TIP3   OH230160   4.212   3.576   1.577 -0.1417 -0.1521 -0.7695
 2890TIP3    H130161   4.167   3.540   1.653  0.6691 -0.4227 -0.4137
 2890TIP3    H230162   4.303   3.585   1.604  0.0856  0.1027 -1.5825
 2891TIP3   OH230163   2.820   2.876   0.875 -0.4425 -0.5214  0.4466
 2891TIP3    H130164   2.895   2.842   0.924 -0.9110 -2.5517 -0.1719
 2891TIP3    H230165   2.762   2.801   0.865 -0.7918  0.0334 -2.4519
 2892TIP3   OH230166   3.935   2.147  12.154 -0.8345  0.0156  0.6520
 2892TIP3    H130167   3.851   2.137  12.199 -0.5653  0.7237  1.3354
 2892TIP3    H230168   3.913   2.144  12.061 -1.4233 -1.2940  0.8189
 2893TIP3   OH230169   6.634   5.468   2.457 -0.5165 -0.1436  0.2454
 2893TIP3    H130170   6.695   5.517   2.512  0.4798 -2.3713  1.2591
 2893TIP3    H230171   6.600   5.399   2.514 -3.2606  0.3995 -0.5841
 2894TIP3   OH230172   3.463   6.383  12.812  0.2343  0.0047  0.5856
 2894TIP3    H130173   3.423   6.301  12.783  0.4475 -0.2130  0.9004
 2894TIP3    H230174   3.547   6.386  12.767 -0.1480  0.4898 -0.1198
 2895TIP3   OH230175   4.459   6.485   2.622  0.1116 -0.6317 -0.0174
 2895TIP3    H130176   4.395   6.501   2.691 -0.1689 -2.1908  0.1172
 2895TIP3    H230177   4.432   6.402   2.583  1.9763 -1.2753 -0.0350
 2896TIP3   OH230178   6.628   5.076   0.370 -0.3347 -0.3975 -0.8345
 2896TIP3    H130179   6.718   5.101   0.393 -0.9886  0.3704  1.0402
 2896TIP3    H230180   6.614   5.113   0.284  0.6343  0.8536 -0.4778
 2897TIP3   OH230181   4.766   2.394   6.004 -0.2944 -0.1788 -0.1360
 2897TIP3    H130182   4.846   2.410   6.054 -1.1950  3.1085  0.5219
 2897TIP3    H230183   4.795   2.344   5.928  1.6670 -2.4794  1.9171
 2898TIP3   OH230184   5.383   1.924  12.562  0.0575 -0.0649 -0.0054
 2898TIP3    H130185   5.330   1.849  12.590  1.2234 -0.6678  0.6667
 2898TIP3    H230186   5.404   1.969  12.644 -0.4410  0.8803 -0.3865
 2899TIP3   OH230187   1.946   5.419  11.671  0.2452 -0.3878 -0.4878
 2899TIP3    H130188   1.997   5.499  11.683  0.0390 -0.5761  2.6595
 2899TIP3    H230189   1.953   5.374  11.755 -0.6908 -3.0820 -1.7453
 2900TIP3   OH230190   6.547   0.119  11.545  0.3645  0.4955  0.3420
 2900TIP3    H130191   6.635   0.153  11.527  0.4466  0.1720  0.1346
 2900TIP3    H230192   6.504   0.118  11.460 -0.2075  1.6668  0.5931
 2901TIP3   OH230193   0.489   5.506  12.866 -0.4464 -0.2066  0.3871
 2901TIP3    H130194   0.462   5.415  12.857  0.2720 -0.4298  0.3857
 2901TIP3    H230195   0.409   5.557  12.853 -0.4831 -0.7246 -1.8304
 2902TIP3   OH230196   6.203   2.854   1.268 -0.8573  0.3653 -0.7154
 2902TIP3    H130197   6.173   2.932   1.313 -0.1385  0.1472  0.1707
 2902TIP3    H230198   6.154   2.782   1.309  0.2197  0.1023  0.1501
 2903TIP3   OH230199   6.774   5.716  13.453  0.0992 -0.2048  0.7327
 2903TIP3    H130200   6.868   5.697  13.448 -0.0389 -1.3824  2.0144
 2903TIP3    H230201   6.735   5.635  13.485 -1.4699  0.0259 -0.4713
 2904TIP3   OH230202   5.893   0.831  16.850  0.6046 -0.1541 -0.2216
 2904TIP3    H130203   5.864   0.761  16.909  0.0323  0.2449 -0.0153
 2904TIP3    H230204   5.913   0.904  16.908 -0.0760  0.2823 -0.5229
 2905TIP3   OH230205   0.833   6.819   3.661  0.1465 -0.2991  0.0006
 2905TIP3    H130206   0.924   6.793   3.649  0.4629  1.6866 -2.7175
 2905TIP3    H230207   0.790   6.796   3.579 -1.5879 -0.1969  0.8314
 2906TIP3   OH230208   5.580   2.384   6.026  0.6230  0.8704 -0.8494
 2906TIP3    H130209   5.522   2.389   6.102  1.5627 -0.3968 -0.0176
 2906TIP3    H230210   5.625   2.300   6.035  2.4222  1.6976 -1.6103
 2907TIP3   OH230211   2.965   2.720   0.616 -0.1651 -0.3219 -0.9042
 2907TIP3    H130212   2.994   2.759   0.533  0.0773  0.8669 -0.2812
 2907TIP3    H230213   2.926   2.792   0.664  1.1927 -0.5906  0.7099
 2908TIP3   OH230214   4.332   4.117  17.216  1.1853 -0.5732  0.5155
 2908TIP3    H130215   4.378   4.187  17.169  0.1571 -0.8927 -1.0426
 2908TIP3    H230216   4.289   4.161  17.289  1.3748  0.2471  0.1455
 2909TIP3   OH230217   2.993   5.587  13.675 -0.1990  0.1658  0.5521
 2909TIP3    H130218   3.057   5.524  13.642  0.5694  0.2778  1.7584
 2909TIP3    H230219   2.919   5.533  13.703  0.5266 -0.2467  1.7503
 2910TIP3   OH230220   0.979   4.235   4.333  0.0836 -0.5042  0.1811
 2910TIP3    H130221   0.890   4.228   4.369  0.0930 -1.3694  0.0667
 2910TIP3    H230222   1.027   4.164   4.375  0.6663 -0.1668  0.0858
 2911TIP3   OH230223   6.717   2.378  11.884 -1.0814 -0.4444 -0.0823
 2911TIP3    H130224   6.752   2.391  11.972  0.4648  1.2623 -0.8834
 2911TIP3    H230225   6.638   2.431  11.881  0.9942  2.8514 -0.8647
 2912TIP3   OH230226   6.034   6.655  15.895 -0.3129  0.3558  0.1589
 2912TIP3    H130227   6.097   6.705  15.947  0.1492 -1.2148  1.1805
 2912TIP3    H230228   5.964   6.634  15.957 -1.0559  0.6889 -0.5550
 2913TIP3   OH230229   4.975   2.000  13.129  0.5852 -0.2178  0.3002
 2913TIP3    H130230   4.940   1.911  13.120  3.3572 -1.2604 -1.2378
 2913TIP3    H230231   5.036   1.994  13.203  1.5350  0.1095 -0.4408
 2914TIP3   OH230232   3.563   1.114   4.796 -0.8003  0.2532  0.1340
 2914TIP3    H130233   3.598   1.200   4.773 -1.0591  0.5630  0.8715
 2914TIP3    H230234   3.518   1.128   4.879 -2.8408 -0.0912 -0.8640
 2915TIP3   OH230235   2.080   0.995  16.250 -1.0227 -0.2212  0.8779
 2915TIP3    H130236   2.048   1.069  16.301 -1.2465  0.0289  0.3853
 2915TIP3    H230237   2.147   1.033  16.193 -1.1038 -0.4090  0.6572
 2916TIP3   OH230238   4.999   1.283  15.900 -0.0952  0.1796 -0.1470
 2916TIP3    H130239   4.921   1.327  15.868 -1.2045  0.1871  2.3417
 2916TIP3    H230240   5.043   1.348  15.955  0.2422 -0.6220  0.5575
 2917TIP3   OH230241   3.391   0.110  12.669  0.2004 -0.3914  0.3684
 2917TIP3    H130242   3.468   0.054  12.670 -0.6220 -1.5818 -0.5135
 2917TIP3    H230243   3.372   0.128  12.761 -0.0990 -2.3897  0.7267
 2918TIP3   OH230244   5.027   2.363   4.648 -0.4194  0.2762 -0.3096
 2918TIP3    H130245   5.064   2.296   4.591 -0.5010 -0.2197  0.2046
 2918TIP3    H230246   5.016   2.318   4.732 -2.0551  0.4369 -0.4015
 2919TIP3   OH230247   4.297   4.278  16.027 -0.3436  0.0202 -0.1976
 2919TIP3    H130248   4.257   4.199  15.990  0.1175 -0.4523  0.2936
 2919TIP3    H230249   4.230   4.313  16.086 -0.0711 -0.7518  0.5985
 2920TIP3   OH230250   0.179   3.299  12.925  0.0461  0.8631  0.6720
 2920TIP3    H130251   0.196   3.376  12.871 -0.1711  0.2614 -0.2735
 2920TIP3    H230252   0.094   3.316  12.964  0.1083  1.2090  0.6635
 2921TIP3   OH230253   3.158   3.188  13.667 -0.8268 -0.4563  0.3340
 2921TIP3    H130254   3.254   3.187  13.670 -0.6092  3.1525 -0.7240
 2921TIP3    H230255   3.136   3.167  13.577 -0.8768  0.3286  0.1490
 2922TIP3   OH230256   1.458   5.542  10.462  0.2498  0.4115  0.1316
 2922TIP3    H130257   1.510   5.518  10.385 -1.4100  0.9292 -1.2159
 2922TIP3    H230258   1.472   5.471  10.524 -0.7825 -1.6676 -1.8664
 2923TIP3   OH230259   0.689   4.562   5.022 -0.1649  0.8635  0.5224
 2923TIP3    H130260   0.687   4.637   5.081  0.1119  0.5506  0.9371
 2923TIP3    H230261   0.603   4.563   4.979  0.0389  1.7205  0.1297
 2924TIP3   OH230262   0.196   1.096   2.261  0.2041  0.7370 -0.1254
 2924TIP3    H130263   0.271   1.154   2.269  0.9754 -0.4196  1.7103
 2924TIP3    H230264   0.230   1.009   2.280 -1.2339 -0.1306 -1.2129
 2925TIP3   OH230265   0.156   2.426   4.251  0.0338 -0.6183  0.2470
 2925TIP3    H130266   0.182   2.508   4.292 -1.5983  1.2787 -2.2357
 2925TIP3    H230267   0.215   2.417   4.176 -0.8073 -0.8744 -0.3951
 2926TIP3   OH230268   6.547   1.788   1.668 -0.2959  0.0227 -0.1732
 2926TIP3    H130269   6.489   1.812   1.596 -2.1499 -0.7952  0.9957
 2926TIP3    H230270   6.528   1.696   1.686 -0.3028  0.3518  1.7168
 2927TIP3   OH230271   5.874   3.564   4.554  0.7484 -0.2824 -0.0031
 2927TIP3    H130272   5.914   3.619   4.622 -0.4734  0.8978 -0.1781
 2927TIP3    H230273   5.802   3.617   4.521 -0.9437 -2.2677  0.2849
 2928TIP3   OH230274   6.466   5.989  16.267  0.1228  0.4393  0.2780
 2928TIP3    H130275   6.430   6.008  16.354 -0.6260 -3.0762  0.8855
 2928TIP3    H230276   6.545   5.937  16.284  1.2797  1.6189 -1.1758
 2929TIP3   OH230277   5.358   3.191  14.154 -0.2885 -0.1167 -0.1862
 2929TIP3    H130278   5.352   3.114  14.211  0.1236  0.5956  0.8616
 2929TIP3    H230279   5.372   3.264  14.215 -0.2714  0.7318 -1.1854
 2930TIP3   OH230280   1.368   5.040  13.852 -0.2117 -0.1324  0.6299
 2930TIP3    H130281   1.286   5.021  13.805 -0.3813  0.0782  0.8362
 2930TIP3    H230282   1.350   5.016  13.943 -0.1881  0.3019  0.7548
 2931TIP3   OH230283   5.975   6.500   5.139 -0.2655  0.1121 -0.0229
 2931TIP3    H130284   5.995   6.550   5.060  2.2435 -2.4455 -1.1927
 2931TIP3    H230285   5.897   6.449   5.116 -0.2568  0.2751 -0.4288
 2932TIP3   OH230286   5.973   5.035  15.497  0.7085  0.0991  0.0594
 2932TIP3    H130287   5.928   5.002  15.419 -0.0250  1.8154 -0.2957
 2932TIP3    H230288   5.961   4.967  15.562 -0.3891 -0.5106 -0.7467
 2933TIP3   OH230289   4.462   5.608  13.086  0.2613  0.1751  0.2564
 2933TIP3    H130290   4.412   5.667  13.143  1.7828  1.9065 -0.1181
 2933TIP3    H230291   4.505   5.547  13.147  0.3467  0.8014  0.8389
 2934TIP3   OH230292   3.177   4.628  11.010  0.2111  0.0381  0.9644
 2934TIP3    H130293   3.167   4.703  10.952 -1.8311 -0.1732  0.9485
 2934TIP3    H230294   3.261   4.641  11.054 -0.0335  2.2487  0.8688
 2935TIP3   OH230295   3.852   2.790   3.972  0.4288  0.2425  0.1161
 2935TIP3    H130296   3.866   2.706   3.929 -1.2335  0.3112 -0.6257
 2935TIP3    H230297   3.890   2.779   4.060 -0.8343 -1.7091  0.4753
 2936TIP3   OH230298   6.115   3.930  15.995  0.4422 -0.1156 -0.0055
 2936TIP3    H130299   6.171   3.888  15.930  1.9984  1.9121 -0.0592
 2936TIP3    H230300   6.038   3.958  15.946  0.4371 -0.8714 -0.4339
 2937TIP3   OH230301   2.390   3.230  15.081  0.1007  0.2130 -0.0196
 2937TIP3    H130302   2.469   3.179  15.061 -0.1411 -0.7852  1.4318
 2937TIP3    H230303   2.319   3.166  15.076 -0.4394  0.8105  0.0351
 2938TIP3   OH230304   1.029   0.768   6.040 -0.3342 -0.0744  0.0402
 2938TIP3    H130305   1.099   0.763   6.104  0.6369 -2.7871 -1.0930
 2938TIP3    H230306   1.071   0.804   5.962 -0.5137 -0.4664 -0.2405
 2939TIP3   OH230307   0.318   5.090   5.916 -0.2372  0.3168 -0.1571
 2939TIP3    H130308   0.392   5.088   5.976  0.3209 -0.4359 -0.8321
 2939TIP3    H230309   0.303   4.998   5.895 -0.0949  0.5897 -1.5372
 2940TIP3   OH230310   2.466   2.484   2.375 -0.7844 -0.2829  0.1533
 2940TIP3    H130311   2.430   2.445   2.455  0.2907  1.3936  1.5439
 2940TIP3    H230312   2.533   2.422   2.346 -0.3742 -0.3740  1.2442
 2941TIP3   OH230313   2.097   1.405   2.881  0.3776 -0.1236  0.4860
 2941TIP3    H130314   2.178   1.398   2.830  0.4968  1.0059  0.5055
 2941TIP3    H230315   2.039   1.459   2.828 -0.7790 -1.7552 -0.0058
 2942TIP3   OH230316   5.888   0.622   2.914  0.4261 -0.0255  0.0434
 2942TIP3    H130317   5.967   0.570   2.921  0.4207  0.1676  2.1713
 2942TIP3    H230318   5.818   0.564   2.944  0.1301  0.5492  0.4987
 2943TIP3   OH230319   6.279   5.516   6.170  0.2397 -0.1301 -0.3564
 2943TIP3    H130320   6.342   5.451   6.203  0.4626  0.7880  1.1133
 2943TIP3    H230321   6.327   5.561   6.100  0.7214 -0.3767 -0.1939
 2944TIP3   OH230322   6.259   1.367   4.312  0.1340 -0.2235  0.0990
 2944TIP3    H130323   6.304   1.433   4.261 -1.1491  1.4870  1.0679
 2944TIP3    H230324   6.167   1.394   4.311 -0.1059 -0.7151  2.3580
 2945TIP3   OH230325   0.290   4.434  12.475  0.2404 -0.4617 -0.6140
 2945TIP3    H130326   0.274   4.383  12.396 -0.4118 -0.5084 -0.4557
 2945TIP3    H230327   0.203   4.453  12.510  0.4736  0.5470 -0.5310
 2946TIP3   OH230328   3.770   0.521   1.160  0.1178 -0.4801  0.2279
 2946TIP3    H130329   3.845   0.552   1.109  1.1017 -0.8286  1.4181
 2946TIP3    H230330   3.747   0.437   1.120 -0.1296 -0.0460 -0.5916
 2947TIP3   OH230331   1.901   2.802   2.632 -0.6888  0.0670 -0.4217
 2947TIP3    H130332   1.976   2.761   2.675  1.1573  0.2243 -3.2398
 2947TIP3    H230333   1.849   2.838   2.704  0.5769 -2.2461  1.7971
 2948TIP3   OH230334   1.874   1.867  12.254 -0.9842  0.3736  0.4190
 2948TIP3    H130335   1.896   1.815  12.177  2.1840 -0.8582  1.9826
 2948TIP3    H230336   1.891   1.957  12.228  0.1763 -0.0314 -0.2900
 2949TIP3   OH230337   2.901   5.043  12.452 -0.5202  0.0632  0.2888
 2949TIP3    H130338   2.895   4.976  12.520 -1.3199  0.5513  0.7187
 2949TIP3    H230339   2.991   5.077  12.460 -0.6301  0.1705  1.1669
 2950TIP3   OH230340   3.319   0.476  14.304 -0.3802  0.5119 -0.0891
 2950TIP3    H130341   3.283   0.408  14.362  1.9956 -0.5000  0.3154
 2950TIP3    H230342   3.323   0.554  14.359 -1.4284  0.5108  0.0071
 2951TIP3   OH230343   2.463   3.775  10.908 -0.6652 -0.3381  0.2602
 2951TIP3    H130344   2.543   3.734  10.942 -0.7439 -0.2210  0.5829
 2951TIP3    H230345   2.488   3.808  10.822 -0.1115  0.5151  0.7342
 2952TIP3   OH230346   1.512   6.107  14.297 -0.1676  0.2216  0.4503
 2952TIP3    H130347   1.417   6.116  14.297 -0.0614  1.7722 -1.1898
 2952TIP3    H230348   1.538   6.134  14.385 -1.0849  2.3321  0.1382
 2953TIP3   OH230349   4.679   2.620  16.131  0.3817 -0.7779 -0.2290
 2953TIP3    H130350   4.629   2.636  16.212  2.5589 -1.1945  1.2749
 2953TIP3    H230351   4.620   2.649  16.061 -1.0152  1.0358  1.5685
 2954TIP3   OH230352   5.312   1.728   5.339 -0.5323 -0.1270 -0.4028
 2954TIP3    H130353   5.334   1.678   5.417  0.4923  0.8547 -0.0298
 2954TIP3    H230354   5.230   1.773   5.362  0.6636  1.5326  0.8038
 2955TIP3   OH230355   4.457   0.743   0.582  0.1424 -0.2873  0.2222
 2955TIP3    H130356   4.454   0.836   0.607 -1.1336  0.4473 -2.3412
 2955TIP3    H230357   4.412   0.698   0.654  0.5208  1.0906  1.3793
 2956TIP3   OH230358   3.637   3.644   1.816 -0.1883  0.0645  0.0054
 2956TIP3    H130359   3.641   3.738   1.797 -0.3281  0.5282  2.0362
 2956TIP3    H230360   3.641   3.639   1.912 -1.1946 -1.9529 -0.0092
 2957TIP3   OH230361   4.352   3.485  11.493  0.0889  0.0756  0.0830
 2957TIP3    H130362   4.386   3.522  11.411 -0.7118 -0.4244 -0.4875
 2957TIP3    H230363   4.311   3.403  11.466  1.2350 -0.9111  1.2263
 2958TIP3   OH230364   1.725   1.763  11.282 -0.5841 -0.0904 -0.4251
 2958TIP3    H130365   1.706   1.729  11.194  0.6998  0.2192 -0.8464
 2958TIP3    H230366   1.663   1.834  11.294 -1.1410 -0.4943 -0.8574
 2959TIP3   OH230367   3.058   6.225   3.396 -0.5360  0.4512  0.5442
 2959TIP3    H130368   3.009   6.198   3.318 -0.4031  0.1333  0.5683
 2959TIP3    H230369   3.114   6.296   3.365 -1.0210  0.8275  0.5220
 2960TIP3   OH230370   4.591   4.533  12.753 -0.3951  0.1125  0.2295
 2960TIP3    H130371   4.662   4.551  12.692 -0.5814  0.7272  0.1866
 2960TIP3    H230372   4.629   4.548  12.840  0.1975 -1.8567  0.3571
 2961TIP3   OH230373   6.130   3.808  15.065 -0.2876 -0.0640  0.0439
 2961TIP3    H130374   6.206   3.756  15.038  0.5054  0.2394  1.5600
 2961TIP3    H230375   6.141   3.891  15.017  1.2604  0.5859  1.4116
 2962TIP3   OH230376   3.337   5.547   3.921  0.2575  0.4101  0.0832
 2962TIP3    H130377   3.318   5.639   3.937  0.7531  0.3090  1.3763
 2962TIP3    H230378   3.382   5.517   4.000  0.4913 -0.8358 -0.4852
 2963TIP3   OH230379   1.104   0.162   4.895 -0.2583  0.0439  0.4824
 2963TIP3    H130380   1.084   0.124   4.809 -0.2580  0.0058  0.4990
 2963TIP3    H230381   1.181   0.114   4.925  0.7544  1.1793 -0.2240
 2964TIP3   OH230382   0.191   0.524  14.382 -0.2617  0.7740 -0.8304
 2964TIP3    H130383   0.110   0.565  14.411 -0.6642 -0.8833  0.5539
 2964TIP3    H230384   0.260   0.587  14.406 -0.8825  0.8597  0.9093
 2965TIP3   OH230385   2.168   4.863   4.438 -0.1529  0.7784  0.2632
 2965TIP3    H130386   2.211   4.899   4.360  0.0609 -1.3470 -0.6663
 2965TIP3    H230387   2.240   4.848   4.500  0.7897 -3.3644 -1.5163
 2966TIP3   OH230388   5.515   2.949   1.236  0.4241  0.9603 -0.1483
 2966TIP3    H130389   5.487   2.980   1.322 -1.3704  0.7756 -0.6212
 2966TIP3    H230390   5.436   2.956   1.182  1.0152 -0.6683 -1.2839
 2967TIP3   OH230391   2.519   3.280  16.324  0.0859  0.1665  0.5606
 2967TIP3    H130392   2.442   3.273  16.268  0.4972 -2.5808  0.2050
 2967TIP3    H230393   2.484   3.307  16.409 -1.0470  0.4392  0.0290
 2968TIP3   OH230394   1.659   6.011   3.197 -0.3741 -0.7841 -0.0194
 2968TIP3    H130395   1.753   6.027   3.207 -0.6174  0.5743  0.3778
 2968TIP3    H230396   1.635   6.059   3.118 -0.9461 -0.0573  0.5726
 2969TIP3   OH230397   1.660   1.926  16.790 -0.5734 -0.0034  1.0382
 2969TIP3    H130398   1.598   1.885  16.730  0.0048 -0.9752  1.0760
 2969TIP3    H230399   1.618   1.919  16.876 -1.7693  2.1192  0.6961
 2970TIP3   OH230400   3.611   0.892   0.368  0.1182  0.5778  0.2727
 2970TIP3    H130401   3.608   0.889   0.272 -0.5503 -1.2376  0.3093
 2970TIP3    H230402   3.545   0.829   0.396  0.1113  1.2730  1.9476
 2971TIP3   OH230403   2.680   2.685   2.496 -0.5810  0.4919 -0.1553
 2971TIP3    H130404   2.654   2.594   2.479  0.2816  0.3092 -0.5438
 2971TIP3    H230405   2.635   2.736   2.429 -2.8837  0.6711  1.3949
 2972TIP3   OH230406   5.004   5.545  16.140  0.2427 -0.3441  0.0411
 2972TIP3    H130407   5.044   5.546  16.227 -0.6707  0.0497  0.4690
 2972TIP3    H230408   5.026   5.459  16.104 -1.7781 -1.6835  1.8024
 2973TIP3   OH230409   0.156   3.867  16.774  0.1755 -0.2305 -0.3193
 2973TIP3    H130410   0.106   3.930  16.825  1.0498 -0.7106  1.2076
 2973TIP3    H230411   0.193   3.918  16.702 -1.8583  0.2761 -1.0697
 2974TIP3   OH230412   3.954   2.069  12.449  0.5647 -0.2871  0.5855
 2974TIP3    H130413   4.031   2.043  12.398  1.0519  1.2340  0.4775
 2974TIP3    H230414   3.960   2.165  12.453  0.1437 -0.3006  2.8695
 2975TIP3   OH230415   2.361   2.394  11.525 -0.1459 -0.3141  0.3846
 2975TIP3    H130416   2.267   2.398  11.510 -0.2645 -0.4042  1.0500
 2975TIP3    H230417   2.398   2.367  11.441 -0.7865 -1.0964  0.3403
 2976TIP3   OH230418   5.575   2.434  12.436 -0.6384 -0.1707  0.1094
 2976TIP3    H130419   5.551   2.527  12.428 -1.6165 -0.1403  2.5200
 2976TIP3    H230420   5.667   2.431  12.410 -0.8960  1.2500 -1.1261
 2977TIP3   OH230421   2.591   2.366  12.963 -0.2015  0.5182 -0.7295
 2977TIP3    H130422   2.597   2.398  12.873  1.0464  0.5441 -0.6492
 2977TIP3    H230423   2.500   2.383  12.988  0.3023  3.9425 -0.7423
 2978TIP3   OH230424   1.983   0.193   6.198 -0.0459  0.3833 -0.0579
 2978TIP3    H130425   1.905   0.237   6.165  1.5154  2.3995 -1.2832
 2978TIP3    H230426   1.995   0.229   6.286 -0.4571  0.0980  0.1182
 2979TIP3   OH230427   3.547   0.655  11.033  0.3045 -0.2029 -0.7947
 2979TIP3    H130428   3.545   0.573  10.983  0.1314 -0.6083 -0.1287
 2979TIP3    H230429   3.607   0.711  10.984  2.1269 -1.4749 -0.1275
 2980TIP3   OH230430   1.150   4.260   4.618  0.1797  0.0865  0.3994
 2980TIP3    H130431   1.161   4.284   4.710  1.1989 -1.1788  0.6322
 2980TIP3    H230432   1.234   4.224   4.592 -0.1627  0.2232 -0.9840
 2981TIP3   OH230433   1.514   4.245   5.976 -0.5281 -0.3946  0.1099
 2981TIP3    H130434   1.609   4.233   5.973 -0.5347 -0.3458 -0.8836
 2981TIP3    H230435   1.498   4.300   6.052  0.3787  0.6750 -0.4463
 2982TIP3   OH230436   3.055   3.806  14.079  0.7297  0.2207  0.1111
 2982TIP3    H130437   3.024   3.786  14.168  1.6153 -0.2039  0.3410
 2982TIP3    H230438   3.035   3.898  14.067  1.1541  0.4383  1.0001
 2983TIP3   OH230439   0.323   0.124  15.678  0.4793 -0.1818  0.7429
 2983TIP3    H130440   0.252   0.188  15.668 -0.7435 -1.6464 -0.5679
 2983TIP3    H230441   0.367   0.124  15.593  0.8520 -0.6448  0.9340
 2984TIP3   OH230442   0.277   1.492  14.352  0.6542 -0.0904 -0.1554
 2984TIP3    H130443   0.197   1.444  14.330  1.2096 -0.8058 -0.7054
 2984TIP3    H230444   0.247   1.574  14.391 -0.3370 -0.4403 -0.1618
 2985TIP3   OH230445   2.449   3.331   0.270 -0.5230  0.1745 -0.4040
 2985TIP3    H130446   2.444   3.243   0.233  0.0909 -1.1372  2.3654
 2985TIP3    H230447   2.360   3.366   0.260 -0.6159 -0.4635 -2.1443
 2986TIP3   OH230448   0.135   1.838   4.602 -0.4783  0.0113  0.1329
 2986TIP3    H130449   0.044   1.857   4.577 -0.9453  0.1556  1.8319
 2986TIP3    H230450   0.179   1.922   4.595 -0.0081 -0.3617 -2.3412
 2987TIP3   OH230451   1.026   5.158  16.026  0.2120 -0.2243  0.7563
 2987TIP3    H130452   1.060   5.100  15.958  0.1162 -0.3919  0.8486
 2987TIP3    H230453   1.104   5.197  16.066  0.5490 -2.7783  2.9083
 2988TIP3   OH230454   4.509   2.921   0.348  0.5455  0.5724 -0.5475
 2988TIP3    H130455   4.462   2.869   0.283  0.2056  1.5842 -1.1343
 2988TIP3    H230456   4.588   2.951   0.302  2.0127 -1.4041  0.5337
 2989TIP3   OH230457   2.334   0.816   3.082  0.4278  0.1658 -0.1857
 2989TIP3    H130458   2.347   0.732   3.038 -0.9930 -1.3783  2.1143
 2989TIP3    H230459   2.418   0.862   3.072  1.2332 -1.4887 -1.5098
 2990TIP3   OH230460   3.156   6.508   2.309  0.3733  0.2222  1.0418
 2990TIP3    H130461   3.112   6.513   2.224  1.3347 -1.9239  0.3422
 2990TIP3    H230462   3.220   6.579   2.306  0.2532  0.3129  0.0536
 2991TIP3   OH230463   1.113   3.466   0.337 -0.1395  0.1454 -0.2259
 2991TIP3    H130464   1.172   3.415   0.392 -0.8990  0.2272  0.6842
 2991TIP3    H230465   1.043   3.494   0.396 -0.8776  0.3887 -1.1967
 2992TIP3   OH230466   2.434   1.149  13.168 -0.1290 -0.0094  0.2409
 2992TIP3    H130467   2.349   1.167  13.129  0.4121  0.0833 -0.9356
 2992TIP3    H230468   2.415   1.092  13.242 -1.1963 -0.1148 -0.1029
 2993TIP3   OH230469   1.564   5.235  13.276  0.1656 -0.1374  0.1877
 2993TIP3    H130470   1.637   5.174  13.284 -0.5934 -1.1523 -0.3837
 2993TIP3    H230471   1.547   5.241  13.182 -0.8563 -0.3836  0.3360
 2994TIP3   OH230472   5.187   0.853  12.702  0.6232 -0.6541  0.0627
 2994TIP3    H130473   5.227   0.825  12.620 -0.1627 -0.8610 -0.2609
 2994TIP3    H230474   5.129   0.781  12.726  0.2712 -0.2631  0.3960
 2995TIP3   OH230475   4.552   1.305   0.697 -0.8403 -0.2091  0.3715
 2995TIP3    H130476   4.526   1.377   0.754  2.4650  2.1024 -0.7453
 2995TIP3    H230477   4.509   1.324   0.613  1.1445  1.4024 -0.3450
 2996TIP3   OH230478   5.880   5.357  16.442  0.0994 -0.1856  0.2087
 2996TIP3    H130479   5.844   5.349  16.354 -1.7899  2.4954  0.5915
 2996TIP3    H230480   5.803   5.365  16.498  1.2334  1.8197  1.6130
 2997TIP3   OH230481   5.739   2.950  14.313  0.1597  0.3148  0.5427
 2997TIP3    H130482   5.672   3.006  14.352  0.0178  1.2024 -0.8957
 2997TIP3    H230483   5.758   2.884  14.380  0.1268  1.9054  2.1875
 2998TIP3   OH230484   3.804   1.979  16.399 -0.1494  0.1774  0.6976
 2998TIP3    H130485   3.769   1.906  16.450  1.2336 -0.9452  0.1233
 2998TIP3    H230486   3.808   1.946  16.310  2.6793  0.0442  0.7838
 2999TIP3   OH230487   5.040   2.688   3.815 -0.8192 -0.4591 -0.3446
 2999TIP3    H130488   5.057   2.756   3.751 -1.7927  0.4264  0.2998
 2999TIP3    H230489   5.063   2.728   3.899 -3.7244  0.0368  0.3226
 3000TIP3   OH230490   0.438   4.291  16.975  0.4632  0.0633 -0.0690
 3000TIP3    H130491   0.516   4.237  16.964 -1.3084 -2.4563 -1.2974
 3000TIP3    H230492   0.442   4.355  16.903  2.3772  1.4010  1.1497
 3001TIP3   OH230493   2.629   3.860   2.544 -0.1506 -0.8650 -0.8295
 3001TIP3    H130494   2.587   3.778   2.516 -2.0287 -0.1401 -0.2665
 3001TIP3    H230495   2.577   3.928   2.503  0.2285  0.1054  0.2662
 3002TIP3   OH230496   6.637   1.180   2.410  0.2008 -0.3618  0.4446
 3002TIP3    H130497   6.626   1.115   2.480  0.2556 -0.0146  0.7778
 3002TIP3    H230498   6.549   1.192   2.375 -0.2500  1.1128  1.9461
 3003TIP3   OH230499   2.780   6.158  14.356 -0.4637  0.0669  0.4614
 3003TIP3    H130500   2.695   6.179  14.316  0.3565  0.6963 -1.0268
 3003TIP3    H230501   2.831   6.119  14.285  0.7420  0.3614  1.1471
 3004TIP3   OH230502   4.039   0.567  13.287 -0.1225  0.0849  0.4394
 3004TIP3    H130503   4.111   0.627  13.309 -0.5226  0.5639  0.4488
 3004TIP3    H230504   3.988   0.614  13.222 -1.9810  0.9219  2.3851
 3005TIP3   OH230505   3.043   2.252  12.251  0.4057 -0.1135  0.1768
 3005TIP3    H130506   3.117   2.262  12.191 -1.5400 -0.6198 -2.5150
 3005TIP3    H230507   3.006   2.340  12.258  0.2567 -0.1661  0.0704
 3006TIP3   OH230508   4.314   2.580  10.620  0.1831 -0.4382 -0.0426
 3006TIP3    H130509   4.253   2.518  10.580 -0.8766  0.5692 -0.0317
 3006TIP3    H230510   4.268   2.614  10.697  0.5948  0.6346 -0.2522
 3007TIP3   OH230511   4.062   4.259   0.641  0.8814 -0.5798 -0.3680
 3007TIP3    H130512   4.134   4.195   0.633  0.0564 -1.5699 -0.1065
 3007TIP3    H230513   4.040   4.281   0.551  1.3022 -0.5248 -0.4590
 3008TIP3   OH230514   0.355   3.207   3.537  0.1188  0.6501  0.0561
 3008TIP3    H130515   0.281   3.221   3.597 -0.2078 -0.6742 -0.0173
 3008TIP3    H230516   0.315   3.206   3.450  0.4295  1.3205 -0.1033
 3009TIP3   OH230517   3.743   4.886   3.288 -0.1330 -0.2968 -0.6496
 3009TIP3    H130518   3.776   4.870   3.200 -0.6319 -1.0570 -0.7072
 3009TIP3    H230519   3.656   4.846   3.289 -0.3555  0.1816  0.0212
 3010TIP3   OH230520   1.936   3.231   5.043 -0.3489 -0.1709 -0.4174
 3010TIP3    H130521   1.943   3.136   5.044 -1.6749 -0.2901  1.0197
 3010TIP3    H230522   2.015   3.261   5.089  0.1965 -0.5477 -1.0913
 3011TIP3   OH230523   3.762   5.509   2.429  0.2145 -0.5747  0.4588
 3011TIP3    H130524   3.750   5.415   2.437 -0.7084 -0.4836  0.2787
 3011TIP3    H230525   3.797   5.522   2.340  1.8561 -0.8551  1.0295
 3012TIP3   OH230526   0.847   2.174  15.335  0.2910 -0.3504  0.4757
 3012TIP3    H130527   0.873   2.158  15.426 -0.3237 -1.1016  0.5315
 3012TIP3    H230528   0.753   2.193  15.340 -0.3690 -3.0018 -0.2165
 3013TIP3   OH230529   3.127   1.152  15.055  0.3619  0.5543 -0.2104
 3013TIP3    H130530   3.108   1.095  15.130  0.5730  1.2106  0.3567
 3013TIP3    H230531   3.052   1.212  15.052 -0.6138 -0.6660 -1.7306
 3014TIP3   OH230532   6.094   2.803  13.108 -0.0834 -0.1852 -0.6002
 3014TIP3    H130533   6.094   2.898  13.121 -1.6712 -0.4488  2.1395
 3014TIP3    H230534   6.003   2.781  13.088  0.1348 -1.1647 -0.5660
 3015TIP3   OH230535   3.618   6.001   3.261  0.0321  0.0863  0.4430
 3015TIP3    H130536   3.538   5.981   3.213  0.7543 -0.3782 -0.6038
 3015TIP3    H230537   3.595   6.078   3.314 -0.9346  0.3161 -0.2676
 3016TIP3   OH230538   4.139   4.564  11.917 -0.2013  0.0108 -0.2239
 3016TIP3    H130539   4.138   4.498  11.847 -1.9605 -0.7319  0.4693
 3016TIP3    H230540   4.118   4.515  11.997 -0.0684  1.1702  0.5435
 3017TIP3   OH230541   0.897   4.014   5.730  0.1861 -0.1663 -0.2270
 3017TIP3    H130542   0.991   4.030   5.730  0.3312 -0.9378 -0.6857
 3017TIP3    H230543   0.862   4.070   5.799  0.9364  0.3768 -0.2864
 3018TIP3   OH230544   6.631   1.494   3.673  0.2723  0.1342  0.5479
 3018TIP3    H130545   6.595   1.514   3.759 -0.2768  1.0340  0.1301
 3018TIP3    H230546   6.658   1.402   3.679  0.6179  0.3030  1.7887
 3019TIP3   OH230547   3.757   1.944   2.290  0.3440 -0.1043  0.2217
 3019TIP3    H130548   3.769   1.977   2.201  0.6632  1.5456  0.8439
 3019TIP3    H230549   3.663   1.929   2.298  0.2145  0.4877 -0.1455
 3020TIP3   OH230550   2.255   0.707   3.647 -0.2697  0.1574  0.2606
 3020TIP3    H130551   2.194   0.680   3.579 -0.1133 -2.1328  0.9371
 3020TIP3    H230552   2.205   0.770   3.700 -1.8668 -1.1683  0.4289
 3021TIP3   OH230553   2.961   5.163   2.921 -0.2800  0.3422 -0.2475
 3021TIP3    H130554   3.030   5.096   2.913 -0.3062  0.3196 -0.2872
 3021TIP3    H230555   2.907   5.133   2.994 -0.1743  0.4258 -0.1367
 3022TIP3   OH230556   5.629   1.586  14.643  0.1784  0.7125 -0.4586
 3022TIP3    H130557   5.608   1.679  14.655 -1.1193  0.3856 -0.0105
 3022TIP3    H230558   5.589   1.563  14.559  0.3900  0.5313 -0.5095
 3023TIP3   OH230559   0.244   4.399   3.251 -0.4595 -0.0739 -1.0037
 3023TIP3    H130560   0.164   4.386   3.199 -1.9076 -1.3506  1.3494
 3023TIP3    H230561   0.298   4.322   3.231 -2.0604 -1.8644  0.9860
 3024TIP3   OH230562   5.635   6.551  12.747 -0.5272  0.1508 -0.3573
 3024TIP3    H130563   5.717   6.508  12.723 -0.5160  0.1306 -0.2826
 3024TIP3    H230564   5.591   6.567  12.663 -0.1563  0.7407 -0.4426
 3025TIP3   OH230565   3.498   1.142  15.307 -0.2604  0.2577 -0.1038
 3025TIP3    H130566   3.593   1.153  15.306 -0.1087  0.4841 -4.7145
 3025TIP3    H230567   3.471   1.176  15.392  3.5716  2.4026  0.4868
 3026TIP3   OH230568   4.706   0.634  12.558  0.1706  0.2033 -0.5914
 3026TIP3    H130569   4.728   0.691  12.485  0.0524 -0.1759 -0.9270
 3026TIP3    H230570   4.707   0.546  12.521  0.8514 -0.0659  0.0368
 3027TIP3   OH230571   4.035   2.629   4.627  0.0401  0.3588 -0.2852
 3027TIP3    H130572   4.113   2.584   4.597 -0.3956 -1.4911  1.1648
 3027TIP3    H230573   3.962   2.577   4.593 -0.4980  0.3408  0.8429
 3028TIP3   OH230574   5.577   3.642  15.015  0.3425  0.5238  0.2764
 3028TIP3    H130575   5.543   3.673  15.099 -1.0238  1.1498 -0.4697
 3028TIP3    H230576   5.656   3.594  15.038 -2.3660 -3.4670  2.4873
 3029TIP3   OH230577   4.586   4.654   5.345  0.1562 -0.5473  0.2242
 3029TIP3    H130578   4.582   4.669   5.250 -2.1939 -1.4012  0.1198
 3029TIP3    H230579   4.540   4.729   5.382 -0.6356 -1.1886  0.5467
 3030TIP3   OH230580   5.541   4.514  12.111 -0.0710  0.0203 -0.7229
 3030TIP3    H130581   5.563   4.582  12.175 -0.3429  0.2742 -0.8962
 3030TIP3    H230582   5.459   4.544  12.073  2.9407  3.3133 -5.7948
 3031TIP3   OH230583   2.673   3.211   4.546  0.2265 -0.5576 -0.4205
 3031TIP3    H130584   2.631   3.132   4.510 -2.5069  0.4229  0.3242
 3031TIP3    H230585   2.679   3.194   4.640 -0.9641  0.2955 -0.1619
 3032TIP3   OH230586   3.827   3.139   4.805  0.2172 -0.4551  0.2190
 3032TIP3    H130587   3.745   3.176   4.838  0.2492 -1.0850  1.0420
 3032TIP3    H230588   3.893   3.169   4.867  0.6984  0.3949 -0.6685
 3033TIP3   OH230589   5.144   1.079  16.047 -0.2111  0.2247  0.0260
 3033TIP3    H130590   5.068   1.102  15.993 -1.3071 -1.1224  0.8973
 3033TIP3    H230591   5.188   1.010  15.997 -0.8373 -0.5346  0.4810
 3034TIP3   OH230592   2.782   2.910  15.493  0.1807 -0.1361  0.0760
 3034TIP3    H130593   2.706   2.852  15.498 -0.4660  0.6919  0.1853
 3034TIP3    H230594   2.827   2.898  15.576  0.8283 -1.4864 -0.4474
 3035TIP3   OH230595   2.932   3.080   4.734  0.0654  0.2984 -0.4884
 3035TIP3    H130596   2.946   3.093   4.640  1.2829  0.1610 -0.3496
 3035TIP3    H230597   3.017   3.101   4.773 -0.4229  0.3290  0.5802
 3036TIP3   OH230598   1.586   4.821  11.400 -0.2563  0.0014  0.3893
 3036TIP3    H130599   1.615   4.787  11.484 -0.8770  1.1786  1.1074
 3036TIP3    H230600   1.666   4.838  11.351  0.1347  0.1932  1.0960
 3037TIP3   OH230601   2.542   3.470   5.128 -0.8006 -0.2100  0.7612
 3037TIP3    H130602   2.481   3.511   5.068  0.4983  0.3640 -0.2102
 3037TIP3    H230603   2.594   3.542   5.164  0.0775 -0.7817  0.6800
 3038TIP3   OH230604   5.844   4.063  17.154 -0.5635 -0.0466  0.0408
 3038TIP3    H130605   5.853   4.049  17.060  0.2843 -0.3827  0.1664
 3038TIP3    H230606   5.772   4.005  17.180 -0.8976  0.1537 -0.4185
 3039TIP3   OH230607   2.277   2.121   0.899  0.1680  0.0568  0.1155
 3039TIP3    H130608   2.233   2.037   0.911 -1.1900  0.5611 -0.9531
 3039TIP3    H230609   2.307   2.146   0.987  0.0930 -1.2634  0.5350
 3040TIP3   OH230610   4.112   2.118   4.566 -0.1458  0.0735  0.1403
 3040TIP3    H130611   4.067   2.039   4.536  0.8795 -0.9674  1.2341
 3040TIP3    H230612   4.048   2.188   4.555 -0.7974 -0.7392 -1.6543
 3041TIP3   OH230613   5.789   0.753   5.229 -0.1326 -0.5194 -0.7262
 3041TIP3    H130614   5.732   0.770   5.153 -0.5578 -0.9202 -0.5019
 3041TIP3    H230615   5.731   0.711   5.293  0.3385 -0.6159 -0.3623
 3042TIP3   OH230616   3.218   0.783   0.970 -0.3900 -0.4659 -0.3286
 3042TIP3    H130617   3.154   0.753   0.905  0.6660 -1.5592 -0.9018
 3042TIP3    H230618   3.166   0.832   1.034 -1.2509  2.1565 -2.8408
 3043TIP3   OH230619   1.723   1.985  14.480  0.2685 -0.1866  0.4568
 3043TIP3    H130620   1.719   2.025  14.394  1.6917 -0.4294  0.2464
 3043TIP3    H230621   1.759   1.897  14.464 -2.3934 -1.4532  0.9525
 3044TIP3   OH230622   1.291   6.062  15.007 -0.3324 -0.0346 -0.3061
 3044TIP3    H130623   1.304   5.967  15.009  1.0939  0.1052 -1.4665
 3044TIP3    H230624   1.370   6.097  14.965  0.0909  1.8307  1.7802
 3045TIP3   OH230625   5.176   5.795  15.175 -0.4543 -0.5207 -0.2571
 3045TIP3    H130626   5.198   5.852  15.102  0.0647 -1.9647 -1.2628
 3045TIP3    H230627   5.105   5.740  15.143 -1.9847  0.5154  1.1989
 3046TIP3   OH230628   6.152   0.633   4.550  1.0259 -0.6016 -0.1056
 3046TIP3    H130629   6.187   0.547   4.526  0.0619 -1.3029  0.9040
 3046TIP3    H230630   6.173   0.643   4.643  0.6953  0.0324 -0.0923
 3047TIP3   OH230631   6.631   3.863   3.942  0.6470  0.8294  0.5211
 3047TIP3    H130632   6.625   3.809   4.021  0.6089 -1.0387 -0.6855
 3047TIP3    H230633   6.723   3.890   3.938  0.6914  0.7606  1.0879
 3048TIP3   OH230634   1.753   4.565   5.215 -0.5612 -0.0616  0.5279
 3048TIP3    H130635   1.789   4.625   5.150  0.2328  1.4994  2.2775
 3048TIP3    H230636   1.659   4.580   5.212 -0.4852  0.3701  0.0914
 3049TIP3   OH230637   0.417   5.575  13.209  0.4030 -1.1513  0.1175
 3049TIP3    H130638   0.333   5.535  13.187  0.3860 -0.1033 -1.9309
 3049TIP3    H230639   0.415   5.582  13.305 -2.2472 -0.3198  0.0841
 3050TIP3   OH230640   5.131   2.461  14.785  0.1274  0.0054 -0.3373
 3050TIP3    H130641   5.062   2.523  14.808  0.6351  0.4921 -0.0941
 3050TIP3    H230642   5.157   2.486  14.697  0.3304  0.1330 -0.2410
 3051TIP3   OH230643   2.698   1.485  17.140  0.2348 -0.3982  0.2952
 3051TIP3    H130644   2.751   1.538  17.081 -1.2376  0.4538 -0.3410
 3051TIP3    H230645   2.681   1.543  17.215 -0.3170 -0.4035  0.1823
 3052TIP3   OH230646   3.962   2.600  12.934  0.3846 -0.3552 -0.0863
 3052TIP3    H130647   3.944   2.553  12.853  1.0886 -0.2861 -0.2932
 3052TIP3    H230648   3.934   2.539  13.003 -0.1537 -0.4389 -0.3756
 3053TIP3   OH230649   6.550   2.990  15.063  0.5291 -0.3583 -0.1273
 3053TIP3    H130650   6.465   2.950  15.046  0.8558 -0.9188 -0.4858
 3053TIP3    H230651   6.609   2.916  15.078  0.8697  0.0340  0.5404
 3054TIP3   OH230652   4.218   0.335  16.917 -0.4389 -0.0226 -0.5964
 3054TIP3    H130653   4.239   0.428  16.923 -1.7247  0.2800 -0.6098
 3054TIP3    H230654   4.213   0.305  17.008 -2.7295  0.5752 -0.4765
 3055TIP3   OH230655   6.128   5.954  15.495  0.4084 -0.0531 -0.1982
 3055TIP3    H130656   6.033   5.946  15.490  0.1628  1.7703  0.8327
 3055TIP3    H230657   6.160   5.887  15.434 -1.4526 -1.9305  0.7534
 3056TIP3   OH230658   5.190   3.667   3.911 -0.1678 -0.1918 -0.2750
 3056TIP3    H130659   5.167   3.686   3.820 -0.0084  0.0340 -0.2701
 3056TIP3    H230660   5.220   3.751   3.946  1.8963 -0.7201 -0.6585
 3057TIP3   OH230661   6.255   2.696  12.160  0.5273  0.9268  0.5867
 3057TIP3    H130662   6.309   2.736  12.092 -0.3165  0.5972 -0.2923
 3057TIP3    H230663   6.297   2.722  12.242  1.0531  2.0698 -0.0240
 3058TIP3   OH230664   6.827   1.796  14.004  0.4145 -0.5342 -0.5041
 3058TIP3    H130665   6.796   1.724  14.058  0.8134 -0.8475 -0.6825
 3058TIP3    H230666   6.814   1.874  14.057 -0.5705 -0.6623 -0.5362
 3059TIP3   OH230667   3.308   0.736  11.477 -0.2886  0.2822 -0.1520
 3059TIP3    H130668   3.343   0.716  11.390 -0.9775 -0.0017 -0.3684
 3059TIP3    H230669   3.386   0.750  11.531  0.1616 -0.2923 -0.6351
 3060TIP3   OH230670   4.652   0.081  12.438  0.3932  0.0957  0.1760
 3060TIP3    H130671   4.603   0.007  12.473 -0.3217  1.0014  1.1363
 3060TIP3    H230672   4.590   0.129  12.383 -0.1210  1.7332  2.0875
 3061TIP3   OH230673   4.813   1.537   5.816 -0.1478 -0.0758 -0.8401
 3061TIP3    H130674   4.828   1.522   5.909  0.5079  0.4388 -0.8566
 3061TIP3    H230675   4.868   1.612   5.794 -0.9763  0.3815 -1.4463
 3062TIP3   OH230676   6.003   6.405  14.926 -0.1826  0.6213  0.2435
 3062TIP3    H130677   6.064   6.470  14.960  2.6315 -0.9396 -1.4912
 3062TIP3    H230678   6.037   6.321  14.958 -3.8934 -0.2282  2.7373
 3063TIP3   OH230679   6.267   4.300   6.058  0.7204 -0.5982  0.5608
 3063TIP3    H130680   6.333   4.296   6.127  0.4717 -0.8327  0.7841
 3063TIP3    H230681   6.200   4.238   6.085  0.1742 -0.0161  0.5746
 3064TIP3   OH230682   6.106   2.662   1.457  0.2649 -0.5015  0.1040
 3064TIP3    H130683   6.063   2.700   1.534 -0.1305 -1.8805  0.5825
 3064TIP3    H230684   6.089   2.568   1.464  0.6997 -0.7058 -1.3793
 3065TIP3   OH230685   6.139   3.485  15.573  0.2887  0.0313  0.2827
 3065TIP3    H130686   6.090   3.566  15.555  0.7979  0.2265 -0.2618
 3065TIP3    H230687   6.205   3.482  15.504  0.9067 -0.3441  0.8858
 3066TIP3   OH230688   5.493   6.364   0.400  0.3666 -0.3561  0.3997
 3066TIP3    H130689   5.513   6.296   0.336  1.6314  0.6653 -0.3207
 3066TIP3    H230690   5.470   6.440   0.348  0.4371  0.2043  1.1738
 3067TIP3   OH230691   2.090   6.232  13.799  0.0989 -0.2206 -0.4021
 3067TIP3    H130692   2.075   6.144  13.764 -0.1397 -0.3155 -0.0709
 3067TIP3    H230693   2.014   6.248  13.856 -0.5949  0.7694 -1.5651
 3068TIP3   OH230694   2.888   2.006   4.054 -0.3344 -0.0545  0.0352
 3068TIP3    H130695   2.867   1.964   4.138  1.4395 -0.4267  0.3384
 3068TIP3    H230696   2.958   1.952   4.017 -0.2275  0.8210 -1.1104
 3069TIP3   OH230697   1.660   3.739  15.538 -0.0717  0.4326  0.0075
 3069TIP3    H130698   1.692   3.761  15.626  1.2771 -0.9057 -0.1000
 3069TIP3    H230699   1.603   3.664  15.551 -0.8742  1.0043 -0.1424
 3070TIP3   OH230700   0.342   1.232  15.630  0.1497 -0.6017  0.1220
 3070TIP3    H130701   0.328   1.313  15.581 -0.4935 -0.0573  1.1422
 3070TIP3    H230702   0.370   1.262  15.717 -0.0812 -1.4771  0.5072
 3071TIP3   OH230703   5.137   5.957  11.054  0.2730 -0.2961 -1.1079
 3071TIP3    H130704   5.150   5.863  11.048  2.0535 -0.1551 -0.3898
 3071TIP3    H230705   5.092   5.981  10.974 -0.5613 -1.8010 -1.1208
 3072TIP3   OH230706   4.740   2.650  16.713  0.0246  0.3865  0.1952
 3072TIP3    H130707   4.806   2.720  16.706 -0.8020  1.1912  0.2609
 3072TIP3    H230708   4.708   2.638  16.624  0.2971 -0.0493  0.1532
 3073TIP3   OH230709   3.356   1.711   6.054  0.3048 -0.3257  0.5624
 3073TIP3    H130710   3.262   1.703   6.038  0.0761 -0.6407  1.8805
 3073TIP3    H230711   3.382   1.623   6.082  1.0976 -0.3556 -0.2155
 3074TIP3   OH230712   1.479   2.822   3.597 -0.0067  0.0017  0.3538
 3074TIP3    H130713   1.487   2.911   3.562  0.1425 -0.1082  0.1028
 3074TIP3    H230714   1.485   2.766   3.520 -1.6944 -0.1727  0.3191
 3075TIP3   OH230715   6.559   1.822  12.024 -0.4829 -0.1660 -0.6704
 3075TIP3    H130716   6.469   1.824  12.056 -0.0578 -1.3522  0.6901
 3075TIP3    H230717   6.587   1.913  12.024 -0.2768 -0.0717  3.1675
 3076TIP3   OH230718   6.800   2.643  16.046 -0.8275  0.0142 -0.1046
 3076TIP3    H130719   6.718   2.671  16.087 -1.9349 -2.6236 -0.3141
 3076TIP3    H230720   6.775   2.572  15.987  1.2707  0.9885 -2.3630
 3077TIP3   OH230721   1.137   2.595  11.537 -0.2708 -0.6489 -0.7821
 3077TIP3    H130722   1.067   2.538  11.568 -0.1512 -0.5104 -0.2544
 3077TIP3    H230723   1.198   2.601  11.610 -0.5004  0.5084 -0.6588
 3078TIP3   OH230724   3.395   5.756   2.436  0.1806  0.1917 -0.2284
 3078TIP3    H130725   3.417   5.814   2.363  3.6941  0.1988  0.6741
 3078TIP3    H230726   3.345   5.811   2.496 -1.9940  0.4246 -2.0899
 3079TIP3   OH230727   2.711   4.780   4.250  0.3787 -0.1983 -0.2577
 3079TIP3    H130728   2.727   4.795   4.343  0.0127 -1.0412 -0.0493
 3079TIP3    H230729   2.621   4.747   4.246  1.4811 -3.4770 -0.5282
 3080TIP3   OH230730   4.610   0.599  11.951  0.4504  0.3823  0.3283
 3080TIP3    H130731   4.579   0.671  12.006  1.0238  0.0505  1.1026
 3080TIP3    H230732   4.680   0.558  12.003  0.0700 -0.7880 -0.0641
 3081TIP3   OH230733   4.813   6.359  16.921  0.4491 -0.5287 -0.3875
 3081TIP3    H130734   4.739   6.313  16.883 -0.6297  1.1082 -0.3551
 3081TIP3    H230735   4.873   6.372  16.847  1.1445 -2.5695 -0.2513
 3082TIP3   OH230736   1.213   5.948  11.423  0.3189 -0.1330  0.3383
 3082TIP3    H130737   1.278   5.886  11.390 -0.3618 -1.1772  0.8998
 3082TIP3    H230738   1.162   5.898  11.487 -0.4144  0.9390  0.6276
 3083TIP3   OH230739   0.332   0.075   0.987 -0.1399  0.3212  0.0960
 3083TIP3    H130740   0.328   0.137   1.060 -1.1486 -0.0164  0.3352
 3083TIP3    H230741   0.263   0.103   0.927 -1.6536 -1.4382  0.9220
 3084TIP3   OH230742   1.578   5.334   3.420  0.8844 -0.2384 -0.5502
 3084TIP3    H130743   1.586   5.356   3.327  2.5348 -0.3183 -0.4545
 3084TIP3    H230744   1.600   5.415   3.466 -0.5118 -0.0295 -0.2026
 3085TIP3   OH230745   3.034   2.619   3.144 -0.4571 -0.0634  0.3778
 3085TIP3    H130746   3.003   2.590   3.230 -0.4710  0.7313  0.6517
 3085TIP3    H230747   2.954   2.627   3.092 -0.5668  0.5360  0.6328
 3086TIP3   OH230748   1.297   4.121  12.378  0.5466  0.2366 -0.1284
 3086TIP3    H130749   1.232   4.067  12.424 -1.0929  0.1691 -2.3772
 3086TIP3    H230750   1.276   4.211  12.404  1.5020  0.0345  1.4543
 3087TIP3   OH230751   4.117   0.799  15.105  0.5152  0.2304  0.3159
 3087TIP3    H130752   4.091   0.752  15.026 -0.5236 -0.0123  0.7771
 3087TIP3    H230753   4.183   0.744  15.146  1.2773  0.5000 -0.5196
 3088TIP3   OH230754   6.519   1.565   5.121 -0.6864 -0.2888 -0.2814
 3088TIP3    H130755   6.431   1.589   5.092 -1.1548  0.5407  1.6002
 3088TIP3    H230756   6.509   1.550   5.216  1.1425 -0.4666 -0.0816
 3089TIP3   OH230757   2.643   1.664   4.537  0.0287 -0.0264 -0.1667
 3089TIP3    H130758   2.730   1.681   4.573  0.5412 -1.3587 -0.6997
 3089TIP3    H230759   2.657   1.591   4.476 -1.1401  0.9066 -1.6204
 3090TIP3   OH230760   5.257   0.058  12.518  0.4228 -0.1923  0.0318
 3090TIP3    H130761   5.331   0.049  12.578 -0.0871  0.8671  0.8608
 3090TIP3    H230762   5.297   0.077  12.433  1.1039  1.1221  0.6182
 3091TIP3   OH230763   2.702   4.404  15.307 -0.1277 -0.2255  0.0579
 3091TIP3    H130764   2.738   4.383  15.221 -0.3628 -0.8580  0.1042
 3091TIP3    H230765   2.770   4.457  15.349 -0.1424  0.3607 -0.6279
 3092TIP3   OH230766   2.615   2.663  12.275  0.2593  0.2414 -0.0376
 3092TIP3    H130767   2.539   2.661  12.216 -0.6094 -1.0691  1.0512
 3092TIP3    H230768   2.607   2.747  12.321 -1.6637 -0.6512  1.4026
 3093TIP3   OH230769   4.807   6.364   3.101 -0.8338 -0.3626  0.6026
 3093TIP3    H130770   4.732   6.320   3.060  0.9846 -0.5305 -2.9557
 3093TIP3    H230771   4.785   6.457   3.094 -0.3715 -0.3517 -1.4353
 3094TIP3   OH230772   5.745   6.584   0.586  0.1893  0.5257  0.2362
 3094TIP3    H130773   5.829   6.612   0.622  0.3911  1.6041 -0.9703
 3094TIP3    H230774   5.716   6.514   0.644  1.9286  0.1028  0.6643
 3095TIP3   OH230775   3.105   6.409  15.143  0.4763  0.2801 -0.2215
 3095TIP3    H130776   3.137   6.396  15.054 -3.0430  0.5690 -1.6547
 3095TIP3    H230777   3.056   6.330  15.163  0.4985  0.5849  1.1562
 3096TIP3   OH230778   3.435   5.084  15.498  0.1580  0.2317 -0.5000
 3096TIP3    H130779   3.405   5.146  15.432 -1.5916 -0.3565 -0.2945
 3096TIP3    H230780   3.408   5.123  15.582 -0.3821 -0.5023 -0.3320
 3097TIP3   OH230781   2.710   2.186  13.886 -0.0791 -0.7747 -0.4676
 3097TIP3    H130782   2.696   2.228  13.971 -0.7500 -1.0222 -0.4465
 3097TIP3    H230783   2.669   2.246  13.823  0.3600 -0.6236 -0.6116
 3098TIP3   OH230784   0.224   3.034  13.808 -0.1146  0.0380  0.3745
 3098TIP3    H130785   0.197   2.996  13.892  0.4832  1.7104  1.3743
 3098TIP3    H230786   0.302   3.085  13.829  0.6561 -0.3388 -1.4217
 3099TIP3   OH230787   2.581   3.460  13.039 -0.2622  0.4565  0.0922
 3099TIP3    H130788   2.502   3.474  12.988 -0.3071 -1.7366 -0.5737
 3099TIP3    H230789   2.653   3.479  12.979 -0.2863  1.0566  0.2501
 3100TIP3   OH230790   1.131   3.797   0.305  0.7861 -0.1662 -0.4680
 3100TIP3    H130791   1.178   3.856   0.246  1.8250 -0.7255 -0.2328
 3100TIP3    H230792   1.093   3.731   0.247 -1.0682  1.1193 -0.8173
 3101TIP3   OH230793   5.380   1.202  13.864  0.0120  0.0488 -0.4506
 3101TIP3    H130794   5.420   1.288  13.868  0.1642 -0.0615  0.7154
 3101TIP3    H230795   5.437   1.146  13.918 -2.4898  0.2294  2.6272
 3102TIP3   OH230796   1.781   4.256  16.312 -0.0718  0.0763  0.3573
 3102TIP3    H130797   1.781   4.342  16.271 -0.1253 -0.3591 -0.5930
 3102TIP3    H230798   1.841   4.204  16.259 -1.0834 -0.8435  0.0670
 3103TIP3   OH230799   5.201   2.653   1.276 -0.2963 -0.3623 -0.3086
 3103TIP3    H130800   5.270   2.705   1.318 -0.1673  1.9039 -3.0304
 3103TIP3    H230801   5.191   2.577   1.332  0.9244  1.6350  2.8939
 3104TIP3   OH230802   4.300   0.732  10.873  0.3402  0.0560 -0.1086
 3104TIP3    H130803   4.237   0.779  10.928 -1.0168 -1.4307 -0.3300
 3104TIP3    H230804   4.257   0.725  10.788  1.0587 -0.4535 -0.4409
 3105TIP3   OH230805   3.707   3.128  11.061  0.4508  0.3858  0.1757
 3105TIP3    H130806   3.706   3.076  10.981 -1.0793  0.6265  0.0003
 3105TIP3    H230807   3.748   3.211  11.036  0.8285  0.1139 -0.1130
 3106TIP3   OH230808   0.823   4.075   0.975 -0.1124  0.1188  0.5061
 3106TIP3    H130809   0.739   4.031   0.988  0.7819 -1.4180  1.3456
 3106TIP3    H230810   0.865   4.026   0.905 -0.2091  1.3723 -0.4641
 3107TIP3   OH230811   4.980   2.669  15.820 -0.0813 -0.0366  0.6549
 3107TIP3    H130812   4.910   2.627  15.770  2.0959 -2.2467 -0.7665
 3107TIP3    H230813   4.978   2.626  15.905 -0.9849  0.5867  0.9697
 3108TIP3   OH230814   0.441   4.618  16.033 -0.4539 -0.3911  0.1243
 3108TIP3    H130815   0.365   4.672  16.056 -1.2909 -0.5981 -1.9502
 3108TIP3    H230816   0.513   4.656  16.084 -1.4791  1.2342  0.4475
 3109TIP3   OH230817   5.336   1.590  12.621 -0.6785  0.4549  0.6407
 3109TIP3    H130818   5.426   1.605  12.648 -0.0859  1.5050 -1.6497
 3109TIP3    H230819   5.288   1.575  12.702  1.3838  0.7637  1.9735
 3110TIP3   OH230820   5.799   2.342   0.643  0.1963  0.1418  0.2790
 3110TIP3    H130821   5.721   2.293   0.667  0.1023  1.2771  2.5079
 3110TIP3    H230822   5.809   2.327   0.549 -0.5220 -3.0882  0.6031
 3111TIP3   OH230823   6.784   0.430   5.638 -0.1801 -0.1792 -0.0130
 3111TIP3    H130824   6.840   0.379   5.580 -0.5678 -0.5568 -0.0613
 3111TIP3    H230825   6.761   0.369   5.709 -0.6541 -0.0843 -0.0785
 3112TIP3   OH230826   6.460   5.984  13.601  0.6096  0.0360  0.1213
 3112TIP3    H130827   6.465   5.977  13.506  1.6594  0.6561  0.1217
 3112TIP3    H230828   6.414   6.066  13.617 -0.0219 -0.3173  0.1587
 3113TIP3   OH230829   0.571   3.414  15.197  0.1810 -0.6866 -0.3328
 3113TIP3    H130830   0.490   3.396  15.244 -0.5414  0.0172 -1.2587
 3113TIP3    H230831   0.633   3.441  15.264 -0.6212 -0.3707  0.2953
 3114TIP3   OH230832   5.898   1.824   1.777  1.0347  0.0933 -0.7222
 3114TIP3    H130833   5.992   1.841   1.789  1.3878 -2.9642  2.7265
 3114TIP3    H230834   5.895   1.738   1.734 -0.1650  0.0349 -0.5537
 3115TIP3   OH230835   3.167   5.955  16.930  0.7758  0.2563 -0.6015
 3115TIP3    H130836   3.186   5.866  16.901 -1.1963 -0.9935  1.5915
 3115TIP3    H230837   3.072   5.963  16.919  0.6228  1.2872  1.2149
 3116TIP3   OH230838   2.960   5.870  15.257  0.2545 -0.2556  0.2559
 3116TIP3    H130839   2.935   5.804  15.192  0.5705 -1.1758  1.0535
 3116TIP3    H230840   2.971   5.821  15.338 -0.3374  0.9030  1.0683
 3117TIP3   OH230841   6.819   1.633  12.099  0.0477  0.6205 -0.2571
 3117TIP3    H130842   6.745   1.581  12.067  0.2355 -0.8514  1.5410
 3117TIP3    H230843   6.810   1.717  12.054 -1.7442 -0.0909 -1.3468
 3118TIP3   OH230844   6.002   0.047  14.048 -0.4295 -0.0750  0.3509
 3118TIP3    H130845   5.931   0.018  14.105 -1.1363  0.8828 -0.0071
 3118TIP3    H230846   6.063   0.092  14.107 -1.2419  1.0624  0.3581
 3119TIP3   OH230847   6.170   5.488  14.499 -0.3892 -0.8058 -0.2605
 3119TIP3    H130848   6.088   5.442  14.482  0.0213 -1.1892 -1.2741
 3119TIP3    H230849   6.162   5.517  14.590 -0.7424 -2.7211  0.3818
 3120TIP3   OH230850   6.370   2.563  11.493  0.0504 -0.3120  0.4438
 3120TIP3    H130851   6.364   2.617  11.414  1.1015 -0.7086  0.0683
 3120TIP3    H230852   6.290   2.511  11.493 -0.3959  0.3606  0.1487
 3121TIP3   OH230853   2.355   1.845  12.830  0.4332  0.6616 -0.0802
 3121TIP3    H130854   2.269   1.838  12.872 -0.3452  0.3628 -1.6318
 3121TIP3    H230855   2.402   1.766  12.856 -0.0122  0.5054  0.2565
 3122TIP3   OH230856   5.350   4.871   1.788 -0.8998 -0.3947  0.4139
 3122TIP3    H130857   5.300   4.893   1.866 -0.3265 -0.4684  0.8040
 3122TIP3    H230858   5.436   4.912   1.801 -1.3873  1.1972 -1.0196
 3123TIP3   OH230859   2.593   2.211  16.580  0.4928 -0.4156 -0.6003
 3123TIP3    H130860   2.514   2.264  16.579  0.9219  0.2330 -0.4090
 3123TIP3    H230861   2.658   2.263  16.533  1.3784 -0.0283  0.9691
 3124TIP3   OH230862   2.893   0.538  15.694 -0.1936 -0.3046  0.7213
 3124TIP3    H130863   2.916   0.627  15.719  0.2054 -0.0355 -0.5231
 3124TIP3    H230864   2.802   0.544  15.664 -0.4444 -0.4871  1.4403
 3125TIP3   OH230865   0.571   5.109  10.317  0.1010 -0.3468 -0.2523
 3125TIP3    H130866   0.646   5.117  10.377 -1.1652 -0.4255  1.4174
 3125TIP3    H230867   0.610   5.099  10.230  2.0101  0.0859  0.5158
 3126TIP3   OH230868   0.726   4.021   1.774 -0.1815 -0.5144 -0.2563
 3126TIP3    H130869   0.634   3.995   1.778 -0.3113  0.0208  0.3842
 3126TIP3    H230870   0.729   4.088   1.705 -0.3432 -0.2575 -0.0154
 3127TIP3   OH230871   0.392   1.604  16.747  0.3491  0.2629 -0.1514
 3127TIP3    H130872   0.350   1.685  16.777  0.2076  0.4062 -0.7083
 3127TIP3    H230873   0.350   1.587  16.663 -0.1020 -0.7619  0.2718
 3128TIP3   OH230874   5.931   3.682   3.949  0.1461  0.9937 -0.5899
 3128TIP3    H130875   6.013   3.731   3.951 -0.1633  1.5012 -0.2263
 3128TIP3    H230876   5.870   3.739   3.901  0.4176 -0.0518 -2.2818
 3129TIP3   OH230877   4.857   0.962  16.966 -0.1519 -0.3084 -0.3674
 3129TIP3    H130878   4.794   1.023  16.928 -1.4048 -0.0158  1.9388
 3129TIP3    H230879   4.824   0.875  16.942 -0.8694 -0.1270 -0.0767
 3130TIP3   OH230880   2.597   1.591   3.088 -0.6882  0.3543  0.0736
 3130TIP3    H130881   2.535   1.555   3.024 -0.4358 -2.5344  1.2943
 3130TIP3    H230882   2.587   1.534   3.165  2.8394  0.3224  0.6340
 3131TIP3   OH230883   0.848   1.649   1.587  0.0086  0.8199 -0.3590
 3131TIP3    H130884   0.812   1.666   1.674 -0.0754  1.8982 -0.5816
 3131TIP3    H230885   0.771   1.625   1.535  0.1203 -0.2483 -0.0466
 3132TIP3   OH230886   0.513   5.904   3.371 -0.2825 -0.5954  0.1744
 3132TIP3    H130887   0.449   5.842   3.406 -2.6140  0.7550 -1.4220
 3132TIP3    H230888   0.488   5.988   3.408  0.7039 -0.0490 -0.3608
 3133TIP3   OH230889   5.658   3.827  14.593  0.2473  0.0750  0.3628
 3133TIP3    H130890   5.615   3.878  14.662 -0.7803 -0.1066 -0.1253
 3133TIP3    H230891   5.714   3.765  14.640 -1.0256 -0.5690  1.0847
 3134TIP3   OH230892   0.481   6.284   3.911  0.0192 -0.1367  0.3587
 3134TIP3    H130893   0.420   6.223   3.953 -0.6569  0.4783  0.2973
 3134TIP3    H230894   0.454   6.370   3.942  1.3609  0.0890  0.9333
 3135TIP3   OH230895   6.391   0.177   3.467 -0.8221  0.2507  0.0460
 3135TIP3    H130896   6.375   0.086   3.440 -2.3232  0.9117 -1.4435
 3135TIP3    H230897   6.470   0.172   3.521  0.1606 -1.7024 -1.4331
 3136TIP3   OH230898   3.789   1.497  13.190 -0.6558  0.1286  0.5432
 3136TIP3    H130899   3.834   1.580  13.207  0.7800 -0.8618  1.9226
 3136TIP3    H230900   3.860   1.433  13.181 -1.7343 -1.0166 -0.1373
 3137TIP3   OH230901   0.881   5.035   1.364 -0.2486  0.6321  0.2850
 3137TIP3    H130902   0.799   5.070   1.331 -0.3411  0.6542  0.5364
 3137TIP3    H230903   0.949   5.089   1.324 -0.3103  0.0719 -0.6045
 3138TIP3   OH230904   1.043   1.615  14.085  0.2360  0.0645 -0.1745
 3138TIP3    H130905   1.082   1.660  14.010  0.2457  0.6961  0.1996
 3138TIP3    H230906   0.957   1.587  14.053 -1.1920  3.2043  0.4712
 3139TIP3   OH230907   5.597   6.331  17.216  0.3461 -0.8118 -0.1287
 3139TIP3    H130908   5.626   6.289  17.297 -0.7541  0.7045  1.1264
 3139TIP3    H230909   5.638   6.418  17.219 -0.0747 -0.5742 -0.9808
 3140TIP3   OH230910   0.669   4.455  11.355  0.3431 -0.4632 -0.1917
 3140TIP3    H130911   0.753   4.483  11.390  1.2723 -2.2127 -0.8556
 3140TIP3    H230912   0.683   4.363  11.332 -2.0947 -1.1335  0.7200
 3141TIP3   OH230913   2.531   6.785   5.861 -0.2421  0.3492 -0.1941
 3141TIP3    H130914   2.439   6.761   5.860  0.3642 -2.3617 -0.0468
 3141TIP3    H230915   2.534   6.872   5.901 -2.4799 -0.7886  2.7040
 3142TIP3   OH230916   0.864   1.077   5.883 -0.1243 -0.2399  0.1087
 3142TIP3    H130917   0.909   1.097   5.965 -0.6173 -1.9197  0.8452
 3142TIP3    H230918   0.866   1.159   5.833  1.4350  0.4226  1.1904
 3143TIP3   OH230919   2.341   1.661   5.176 -0.4976 -0.0793 -0.0190
 3143TIP3    H130920   2.325   1.648   5.269 -1.2534  1.5309  0.0963
 3143TIP3    H230921   2.263   1.628   5.133 -0.5057 -0.0521 -0.0252
 3144TIP3   OH230922   3.157   2.589  15.715  0.2924 -0.0887  0.3736
 3144TIP3    H130923   3.071   2.607  15.754  0.2231 -0.6074  0.4712
 3144TIP3    H230924   3.204   2.540  15.782  0.5312 -0.1267  0.1803
 3145TIP3   OH230925   5.705   1.470   4.022  0.4836  0.0892 -0.2433
 3145TIP3    H130926   5.654   1.397   3.989  0.2403  0.0635  0.1843
 3145TIP3    H230927   5.795   1.437   4.026  0.3925 -0.1482 -0.1583
 3146TIP3   OH230928   1.879   6.245   3.652  0.2192 -0.2603 -0.5387
 3146TIP3    H130929   1.817   6.250   3.725  0.5913 -0.5068 -0.1988
 3146TIP3    H230930   1.837   6.189   3.588 -0.9884  1.5183 -1.3928
 3147TIP3   OH230931   5.229   0.538   5.468  0.4987 -0.6361 -0.0909
 3147TIP3    H130932   5.155   0.481   5.449 -0.7977  0.0883  2.3664
 3147TIP3    H230933   5.210   0.619   5.420  0.0014 -0.6735  0.0427
 3148TIP3   OH230934   1.524   4.616   4.575  0.5064  0.0508 -0.0178
 3148TIP3    H130935   1.543   4.625   4.668  1.3997 -0.4406 -0.1321
 3148TIP3    H230936   1.430   4.632   4.567  0.1765 -1.1208  1.1450
 3149TIP3   OH230937   3.882   0.056  14.452  0.2288  0.4124 -0.2598
 3149TIP3    H130938   3.882   0.017  14.365  0.0300 -0.2947  0.0534
 3149TIP3    H230939   3.868   0.150  14.436  0.3129  0.3064 -0.9886
 3150TIP3   OH230940   2.750   1.824  10.744 -0.9282  0.1623 -0.1995
 3150TIP3    H130941   2.741   1.866  10.830 -2.3058 -2.3399  1.0148
 3150TIP3    H230942   2.772   1.895  10.684 -1.7794  2.3357  1.8995
 3151TIP3   OH230943   6.669   6.082  15.842 -0.0228  0.5633  0.0371
 3151TIP3    H130944   6.687   6.174  15.824  0.4981  0.9017  2.0916
 3151TIP3    H230945   6.756   6.041  15.844  0.0786  0.7438  2.5274
 3152TIP3   OH230946   5.409   4.133  13.524 -0.4421 -0.1647 -0.6312
 3152TIP3    H130947   5.334   4.158  13.578  0.9095  0.9407  0.8570
 3152TIP3    H230948   5.452   4.063  13.574  1.1494  1.2626  0.0984
 3153TIP3   OH230949   6.480   5.640  16.343 -0.1698 -0.3164 -0.1684
 3153TIP3    H130950   6.439   5.601  16.265 -0.1418  0.7116 -0.7120
 3153TIP3    H230951   6.535   5.710  16.309 -1.4158  1.2420  0.8563
 3154TIP3   OH230952   1.694   3.141  12.893  0.0796  0.2835  0.2011
 3154TIP3    H130953   1.773   3.165  12.943 -0.2180  0.4549  0.5974
 3154TIP3    H230954   1.651   3.224  12.874 -1.4450  0.0816  2.3876
 3155TIP3   OH230955   0.883   2.081   2.632 -0.0086  0.3739 -0.2482
 3155TIP3    H130956   0.937   2.005   2.651  0.5087  0.0894 -2.6151
 3155TIP3    H230957   0.832   2.094   2.712  0.3686 -2.0307  0.4692
 3156TIP3   OH230958   0.389   4.195   3.156 -0.2671  0.2844 -0.5316
 3156TIP3    H130959   0.482   4.176   3.139 -0.7164 -2.2811 -0.4715
 3156TIP3    H230960   0.342   4.122   3.116 -2.2969  1.5351 -0.5573
 3157TIP3   OH230961   1.089   4.545   4.294 -0.2608  0.1907  0.4811
 3157TIP3    H130962   1.054   4.461   4.324  2.5364 -0.2154  3.0759
 3157TIP3    H230963   1.062   4.608   4.362  0.9644  0.5582  0.6466
 3158TIP3   OH230964   3.225   1.395  14.271 -0.1700 -0.2594  0.4249
 3158TIP3    H130965   3.222   1.485  14.241 -0.6116 -1.2205 -2.8511
 3158TIP3    H230966   3.318   1.380  14.292  0.1612  0.6038 -0.3320
 3159TIP3   OH230967   0.641   0.685  14.883 -0.3789 -0.2812 -0.2823
 3159TIP3    H130968   0.602   0.646  14.962  0.6730  0.1859  0.4840
 3159TIP3    H230969   0.700   0.617  14.850  0.6370  0.2276  0.4415
 3160TIP3   OH230970   2.036   6.347  11.421 -0.2060  0.2231  0.5069
 3160TIP3    H130971   2.010   6.291  11.348  2.4403 -1.5124  0.7925
 3160TIP3    H230972   2.132   6.344  11.422 -0.0819  1.8147  2.8252
 3161TIP3   OH230973   3.552   5.171   1.599  0.4449  0.1677 -0.0465
 3161TIP3    H130974   3.533   5.150   1.507 -0.3499  1.9518 -0.3320
 3161TIP3    H230975   3.595   5.256   1.596 -2.5237  1.8816  1.3651
 3162TIP3   OH230976   1.214   1.792   0.553  0.0719 -0.2180  0.2202
 3162TIP3    H130977   1.149   1.723   0.566 -1.0226  0.4796 -1.2802
 3162TIP3    H230978   1.163   1.871   0.537  1.2814  0.3858 -0.8660
 3163TIP3   OH230979   3.251   1.821   2.041  0.1124  0.5100  0.0940
 3163TIP3    H130980   3.266   1.739   1.994 -1.5664  1.1592 -1.6903
 3163TIP3    H230981   3.321   1.879   2.011  0.0435  0.3957 -0.2836
 3164TIP3   OH230982   6.135   5.443  13.262  0.0653 -0.4313  0.7425
 3164TIP3    H130983   6.046   5.449  13.228  0.4552 -0.3190 -0.2927
 3164TIP3    H230984   6.140   5.356  13.302 -0.4014 -0.5721  0.5001
 3165TIP3   OH230985   6.376   3.101  14.216  0.6942  0.0103  0.1746
 3165TIP3    H130986   6.462   3.079  14.182  0.2840  0.8267 -1.4886
 3165TIP3    H230987   6.338   3.017  14.243  1.7686 -0.4218  0.3654
 3166TIP3   OH230988   4.501   1.102  14.387 -0.0492  0.5199 -0.0344
 3166TIP3    H130989   4.498   1.141  14.299 -0.3535  0.7938  0.0923
 3166TIP3    H230990   4.409   1.098  14.414 -0.2972 -2.4634 -0.9796
 3167TIP3   OH230991   6.206   6.791  14.881 -0.1031 -0.1832 -0.4397
 3167TIP3    H130992   6.230   6.713  14.931  0.0115  0.3054  0.2857
 3167TIP3    H230993   6.290   6.830  14.856 -0.1136  0.7916  0.9382
 3168TIP3   OH230994   2.638   5.311   3.392 -0.1838 -0.3249 -0.5612
 3168TIP3    H130995   2.727   5.312   3.357  0.5519 -1.6398  1.1167
 3168TIP3    H230996   2.649   5.291   3.485 -2.1457  1.2901  0.0909
 3169TIP3   OH230997   2.779   2.877  16.221  0.1232 -0.4265 -0.1800
 3169TIP3    H130998   2.859   2.901  16.175  0.8103 -1.0012  0.6901
 3169TIP3    H230999   2.794   2.904  16.312 -2.4341  3.7249 -0.7006
 3170TIP3   OH231000   5.567   0.734   3.373  0.3559 -0.6797 -0.0437
 3170TIP3    H131001   5.574   0.685   3.291  0.5823 -0.1897 -0.3196
 3170TIP3    H231002   5.606   0.676   3.439 -0.4990 -1.3839 -0.1417
 3171TIP3   OH231003   1.423   0.177  13.376  0.1425 -0.5121 -0.3956
 3171TIP3    H131004   1.399   0.261  13.339 -0.1084 -0.1273  0.6169
 3171TIP3    H231005   1.355   0.159  13.441  0.9407 -0.8477  0.3566
 3172TIP3   OH231006   5.601   5.302   4.608 -0.9593  0.2740 -0.4624
 3172TIP3    H131007   5.685   5.322   4.568 -0.1917  0.2784  1.1028
 3172TIP3    H231008   5.550   5.383   4.601 -1.3068 -0.0680 -2.4660
 3173TIP3   OH231009   6.537   6.503   1.232 -0.6335 -0.4931 -1.4765
 3173TIP3    H131010   6.515   6.483   1.323 -1.6444  1.3537 -1.2817
 3173TIP3    H231011   6.458   6.481   1.182 -0.6300 -0.0285 -1.6924
 3174TIP3   OH231012   0.922   2.796   0.270 -0.5636 -0.2342  0.3600
 3174TIP3    H131013   0.830   2.806   0.244 -0.6068 -0.5453  0.3857
 3174TIP3    H231014   0.959   2.884   0.263 -1.0735  0.0459  1.1603
 3175TIP3   OH231015   1.082   1.501  16.757  0.1695  0.0280 -0.1696
 3175TIP3    H131016   1.142   1.482  16.686  0.8947 -2.5344  1.0185
 3175TIP3    H231017   1.110   1.586  16.791  1.9355 -0.2586 -0.8413
 3176TIP3   OH231018   3.217   1.352   2.930 -0.1611 -0.5500 -0.1660
 3176TIP3    H131019   3.180   1.439   2.945  0.2063 -0.1647 -1.4205
 3176TIP3    H231020   3.266   1.334   3.010  0.8218  0.9581 -0.3748
 3177TIP3   OH231021   4.221   2.553   0.668 -0.1896  0.3218  0.1328
 3177TIP3    H131022   4.206   2.643   0.639 -0.1025  0.2055 -0.2822
 3177TIP3    H231023   4.291   2.521   0.610 -0.1078  0.0399  0.3847
 3178TIP3   OH231024   3.133   4.938   0.519  0.4784 -0.2531 -0.6210
 3178TIP3    H131025   3.044   4.904   0.533  0.8523 -0.8462  0.4019
 3178TIP3    H231026   3.120   5.033   0.513 -0.1148 -0.2051  0.8155
 3179TIP3   OH231027   3.783   1.162   5.539 -0.0389  0.3457 -0.1070
 3179TIP3    H131028   3.863   1.151   5.487  0.4491  3.3084 -0.1421
 3179TIP3    H231029   3.712   1.163   5.474  0.0425 -0.5967 -0.2281
 3180TIP3   OH231030   0.994   1.597  12.085  0.0583  0.0260  0.6807
 3180TIP3    H131031   0.996   1.683  12.126 -1.1534  1.0801 -1.3523
 3180TIP3    H231032   0.901   1.580  12.069  0.3931 -0.9422 -0.3657
 3181TIP3   OH231033   2.768   0.804   2.772  0.3300 -0.8221  0.2725
 3181TIP3    H131034   2.811   0.884   2.804 -1.8170  0.5123  0.0046
 3181TIP3    H231035   2.682   0.805   2.813  0.4329 -3.3341  0.6745
 3182TIP3   OH231036   5.682   4.286   2.243 -0.2486 -0.0582 -0.1591
 3182TIP3    H131037   5.777   4.279   2.227  0.1935  1.8357  1.2354
 3182TIP3    H231038   5.665   4.380   2.241 -1.8117 -0.2749  1.1510
 3183TIP3   OH231039   4.512   1.186  13.600 -0.2217  0.1022  0.2129
 3183TIP3    H131040   4.568   1.261  13.620 -1.8715  1.8850 -1.4301
 3183TIP3    H231041   4.558   1.111  13.638  1.4516  1.9200  2.0401
 3184TIP3   OH231042   4.823   3.665  12.709  0.0301 -0.0804  0.5712
 3184TIP3    H131043   4.734   3.677  12.676  0.7681 -0.0252 -1.5609
 3184TIP3    H231044   4.867   3.748  12.691  0.9020 -0.6014  0.2321
 3185TIP3   OH231045   5.444   5.999   1.169 -0.0020 -0.0479 -0.1011
 3185TIP3    H131046   5.463   6.084   1.129  1.1087  0.0490  0.6075
 3185TIP3    H231047   5.479   6.006   1.257  0.8563 -1.5380 -0.2993
 3186TIP3   OH231048   1.484   2.392  14.797  0.0765 -0.0437  0.0310
 3186TIP3    H131049   1.484   2.342  14.715  2.0477 -0.2268  0.1009
 3186TIP3    H231050   1.554   2.456  14.787 -0.8728  1.1822  0.8770
 3187TIP3   OH231051   1.621   5.115  15.291 -0.3740 -0.1685 -0.1344
 3187TIP3    H131052   1.666   5.090  15.210 -0.1724  0.0858 -0.1022
 3187TIP3    H231053   1.552   5.050  15.301 -0.6422  0.0100 -0.7189
 3188TIP3   OH231054   5.337   1.913   1.000 -0.0501 -1.0690 -0.2242
 3188TIP3    H131055   5.306   1.971   0.930  1.3065  0.4104  0.3447
 3188TIP3    H231056   5.274   1.841   1.001 -2.5046  0.9329 -0.2226
 3189TIP3   OH231057   3.051   2.613  12.833  0.7148  0.2680 -0.2664
 3189TIP3    H131058   3.103   2.678  12.786  1.9113  0.0207  0.6607
 3189TIP3    H231059   3.116   2.561  12.880 -0.3889  0.1429  1.1836
 3190TIP3   OH231060   5.598   4.781   4.476 -1.0002  0.1567  0.6317
 3190TIP3    H131061   5.691   4.802   4.477 -1.1172  0.7482 -0.0566
 3190TIP3    H231062   5.589   4.710   4.539  0.1595 -0.9280 -0.3541
 3191TIP3   OH231063   6.371   1.161   5.045  0.1499 -0.0825  0.3953
 3191TIP3    H131064   6.453   1.178   5.089  0.3836 -0.9715  0.3297
 3191TIP3    H231065   6.396   1.124   4.960 -0.3089 -0.0475  0.2368
 3192TIP3   OH231066   5.572   5.911  15.360  0.0756  0.0556  0.2453
 3192TIP3    H131067   5.520   5.904  15.280 -1.1309  1.6045  0.8634
 3192TIP3    H231068   5.515   5.878  15.429  0.5962  0.0437  0.6802
 3193TIP3   OH231069   3.645   1.621   2.436 -0.1318  0.0668 -0.6506
 3193TIP3    H131070   3.582   1.647   2.369  0.2510  0.9165 -0.6935
 3193TIP3    H231071   3.622   1.673   2.512  1.5753  1.7363 -1.1935
 3194TIP3   OH231072   2.421   5.570  14.055  0.0441 -0.8515  0.1406
 3194TIP3    H131073   2.356   5.500  14.053 -1.1425  0.1513  1.4960
 3194TIP3    H231074   2.418   5.604  14.145 -0.0974  1.5224 -0.6782
 3195TIP3   OH231075   4.878   4.429   2.952  0.0701 -0.5591  0.2668
 3195TIP3    H131076   4.878   4.445   2.858 -1.7932  0.2083  0.3720
 3195TIP3    H231077   4.791   4.395   2.971 -0.9947  2.8562  2.2344
 3196TIP3   OH231078   6.322   6.264   2.820 -0.0972  0.5050  0.1467
 3196TIP3    H131079   6.370   6.222   2.748  1.0694  0.1294  1.1020
 3196TIP3    H231080   6.275   6.336   2.779  0.2857  0.0999 -1.0438
 3197TIP3   OH231081   2.067   1.963   5.335  0.1177  0.0606  0.3518
 3197TIP3    H131082   2.155   1.926   5.332 -0.1712 -0.5768 -0.9947
 3197TIP3    H231083   2.017   1.913   5.270 -0.8608  1.3459  0.0580
 3198TIP3   OH231084   4.986   2.463  13.077 -0.1759  0.0439 -0.1794
 3198TIP3    H131085   5.074   2.500  13.070 -0.4633  0.8516  0.3116
 3198TIP3    H231086   4.939   2.498  13.001 -0.2944  0.2623 -0.0079
 3199TIP3   OH231087   1.769   1.890   2.226  0.0713 -0.3802 -0.4424
 3199TIP3    H131088   1.686   1.846   2.209 -0.2820  0.6644 -1.5573
 3199TIP3    H231089   1.748   1.983   2.222  0.5849 -0.0066  2.8991
 3200TIP3   OH231090   3.767   0.786   2.356  0.3713 -0.5949  0.2410
 3200TIP3    H131091   3.850   0.786   2.308 -0.7147 -0.1394 -1.7285
 3200TIP3    H231092   3.771   0.865   2.410  1.4834 -0.9496  0.7202
 3201TIP3   OH231093   0.086   5.876   4.062 -0.0046 -0.4938  0.4633
 3201TIP3    H131094   0.087   5.841   3.972 -0.3475 -0.7148  0.5437
 3201TIP3    H231095   0.056   5.802   4.116  0.9129 -0.5881  0.8586
 3202TIP3   OH231096   5.296   3.041   2.808  0.3934  0.1261  0.3671
 3202TIP3    H131097   5.382   3.001   2.818 -0.1841 -1.7181 -1.3219
 3202TIP3    H231098   5.313   3.124   2.763  1.2624 -0.5138 -0.5298
 3203TIP3   OH231099   2.402   3.519  11.338  0.3787 -0.9430  0.1885
 3203TIP3    H131100   2.448   3.504  11.421  1.5251 -0.3915 -0.3250
 3203TIP3    H231101   2.451   3.588  11.296 -0.7449 -0.5769 -0.5585
 3204TIP3   OH231102   6.579   6.740  11.730 -0.0225  0.4487 -0.4088
 3204TIP3    H131103   6.573   6.831  11.699 -0.9263  0.0971 -1.3200
 3204TIP3    H231104   6.574   6.747  11.825  1.8646  1.4879 -0.3271
 3205TIP3   OH231105   2.808   0.300   3.695 -0.4485  0.6710  0.4585
 3205TIP3    H131106   2.728   0.247   3.698 -0.2132  0.3397  1.4536
 3205TIP3    H231107   2.780   0.388   3.717 -0.7266  0.8198 -0.4546
 3206TIP3   OH231108   3.863   0.734  16.547  0.7856  0.9294  0.4661
 3206TIP3    H131109   3.850   0.782  16.629 -0.1238  0.7103  0.4591
 3206TIP3    H231110   3.788   0.758  16.492  0.5838 -0.0731  0.2658
 3207TIP3   OH231111   1.699   1.276   2.191  0.1666 -0.0233 -0.2170
 3207TIP3    H131112   1.687   1.286   2.096  0.1402  0.2491 -0.1849
 3207TIP3    H231113   1.778   1.327   2.210  0.0154  0.1417 -0.0462
 3208TIP3   OH231114   5.725   0.911  14.814  0.7421 -0.5895  0.1613
 3208TIP3    H131115   5.802   0.964  14.793 -0.3988  0.7252 -0.9261
 3208TIP3    H231116   5.676   0.965  14.876 -0.7440 -0.0423 -1.4311
 3209TIP3   OH231117   5.018   3.202   3.069  0.5048 -0.2482 -0.1981
 3209TIP3    H131118   5.095   3.253   3.042 -1.1569  2.2458 -0.5290
 3209TIP3    H231119   4.984   3.248   3.146 -1.5273 -0.3170 -0.9887
 3210TIP3   OH231120   2.849   5.360   3.234 -0.5449  0.0995 -0.1320
 3210TIP3    H131121   2.844   5.455   3.246 -1.0389  0.2162 -1.1625
 3210TIP3    H231122   2.934   5.336   3.271 -0.0735  1.0530 -0.5579
 3211TIP3   OH231123   3.587   3.206  16.261 -0.0238 -0.2835 -0.1412
 3211TIP3    H131124   3.650   3.218  16.332 -1.6134  0.0376  1.2702
 3211TIP3    H231125   3.546   3.291  16.250  0.3306 -0.2784 -1.6216
 3212TIP3   OH231126   3.405   0.037   4.545 -0.3740 -0.0007  0.4119
 3212TIP3    H131127   3.357   0.098   4.601  0.6720 -0.4466  1.8504
 3212TIP3    H231128   3.484   0.085   4.519  0.0603 -0.4535  0.8840
 3213TIP3   OH231129   3.105   3.507  12.370 -0.0967  0.2720  0.3434
 3213TIP3    H131130   3.150   3.490  12.453  0.5365  0.6567  0.0871
 3213TIP3    H231131   3.129   3.597  12.348  0.1606  0.0022 -0.5223
 3214TIP3   OH231132   3.434   3.202  13.692  0.4001  0.2387  0.4955
 3214TIP3    H131133   3.497   3.134  13.713  2.2159  1.2391 -1.3417
 3214TIP3    H231134   3.431   3.204  13.596 -3.1297 -0.3165  0.4323
 3215TIP3   OH231135   4.675   0.798  11.761 -0.0527 -0.0266  0.0085
 3215TIP3    H131136   4.768   0.817  11.751 -0.1959 -0.5254 -4.4800
 3215TIP3    H231137   4.672   0.712  11.803  1.3076  1.0100  2.3998
 3216TIP3   OH231138   6.489   4.550   1.955 -0.6693  0.6426  0.9127
 3216TIP3    H131139   6.502   4.598   1.873  0.8916 -1.8421 -0.4171
 3216TIP3    H231140   6.396   4.526   1.954 -0.7814  1.0865  0.1305
 3217TIP3   OH231141   6.243   0.434  15.713  0.1759 -0.3860 -1.0763
 3217TIP3    H131142   6.255   0.416  15.620 -1.7629  0.9653 -1.6393
 3217TIP3    H231143   6.172   0.375  15.740  1.7077 -1.8592 -0.0218
 3218TIP3   OH231144   6.347   4.704  14.353  0.2480 -0.2213  0.2630
 3218TIP3    H131145   6.298   4.784  14.335  1.9398  1.1042  1.1754
 3218TIP3    H231146   6.436   4.723  14.323  1.3164 -0.7627  2.7905
 3219TIP3   OH231147   3.507   3.003  14.137  0.4173  0.2639 -0.8469
 3219TIP3    H131148   3.480   2.970  14.223 -0.5554  1.6465 -0.5930
 3219TIP3    H231149   3.518   3.097  14.150  3.0802  0.1178 -1.5585
 3220TIP3   OH231150   6.246   0.116  14.154 -0.8426  0.2649  0.2403
 3220TIP3    H131151   6.293   0.061  14.092 -0.0190  0.7738  0.3837
 3220TIP3    H231152   6.265   0.077  14.240 -1.5811 -0.1556  0.2216
 3221TIP3   OH231153   0.993   5.987  15.062 -0.0159 -0.1852  0.6613
 3221TIP3    H131154   1.028   5.898  15.068  0.8950  0.0875 -0.4085
 3221TIP3    H231155   0.914   5.978  15.009 -0.8256 -0.5774  1.8806
 3222TIP3   OH231156   1.190   1.955   3.436 -0.2149 -0.2418  0.0753
 3222TIP3    H131157   1.256   1.950   3.367  0.4100  0.2436  0.6300
 3222TIP3    H231158   1.149   2.041   3.424 -0.2211 -0.2264  0.2104
 3223TIP3   OH231159   4.260   4.692  14.365 -0.0292 -0.4384 -0.7107
 3223TIP3    H131160   4.180   4.645  14.342 -0.7411  0.9867 -1.2551
 3223TIP3    H231161   4.272   4.756  14.294  1.5282 -0.5322 -0.5808
 3224TIP3   OH231162   5.871   0.844   6.193 -0.2043 -0.3260  0.6541
 3224TIP3    H131163   5.906   0.755   6.193  0.5915 -0.0238  1.1507
 3224TIP3    H231164   5.831   0.854   6.106  0.8112 -0.7426  0.1188
 3225TIP3   OH231165   3.153   0.162  15.109 -0.2707 -0.4316 -0.0120
 3225TIP3    H131166   3.187   0.104  15.041  0.8170  1.6413 -1.3367
 3225TIP3    H231167   3.117   0.103  15.175  0.0438 -2.5637 -1.6472
 3226TIP3   OH231168   4.364   5.116   2.767 -0.5378  0.3250 -0.1395
 3226TIP3    H131169   4.309   5.054   2.718 -0.0758  0.6035 -1.0212
 3226TIP3    H231170   4.335   5.202   2.738 -0.0667  0.4873 -0.1292
 3227TIP3   OH231171   2.445   5.665  13.799 -0.6036 -0.0822 -1.0608
 3227TIP3    H131172   2.429   5.625  13.884  1.5761 -2.9265 -1.8288
 3227TIP3    H231173   2.379   5.625  13.741  1.5552 -2.9060 -1.8210
 3228TIP3   OH231174   4.458   2.632  16.756 -0.1550  0.1017  0.1091
 3228TIP3    H131175   4.437   2.726  16.750  0.1125  0.1071 -1.2198
 3228TIP3    H231176   4.552   2.627  16.738  0.0065 -0.3538  1.0490
 3229TIP3   OH231177   5.740   0.488  15.709 -0.0823 -0.0282  0.0177
 3229TIP3    H131178   5.711   0.401  15.682  2.0754 -0.7017 -0.3303
 3229TIP3    H231179   5.798   0.472  15.783  2.3230  0.8089 -1.5681
 3230TIP3   OH231180   6.333   4.258   3.087  0.0713 -0.5908  0.0765
 3230TIP3    H131181   6.418   4.252   3.045 -0.1930 -1.5606 -0.3271
 3230TIP3    H231182   6.295   4.339   3.052 -0.0918 -1.3113 -1.4714
 3231TIP3   OH231183   4.461   4.936  11.554 -0.0324 -0.6849  0.5290
 3231TIP3    H131184   4.532   5.001  11.557 -0.5250 -0.1777  1.6443
 3231TIP3    H231185   4.492   4.870  11.491  0.9363  0.0898  0.1659
 3232TIP3   OH231186   0.143   4.824   0.440 -0.0973  0.2874  0.3199
 3232TIP3    H131187   0.136   4.825   0.536 -0.6550 -0.4344  0.3022
 3232TIP3    H231188   0.163   4.733   0.419  1.4816  0.7209 -0.1823
 3233TIP3   OH231189   1.546   5.547   1.177  0.2969  0.0882  0.1129
 3233TIP3    H131190   1.640   5.566   1.169  0.3586 -0.3291 -0.2325
 3233TIP3    H231191   1.539   5.499   1.259  0.4519 -0.2543 -0.0711
 3234TIP3   OH231192   1.833   0.143  12.170  0.1426 -0.5826 -0.1770
 3234TIP3    H131193   1.780   0.205  12.220 -0.9658 -2.6124  1.3458
 3234TIP3    H231194   1.792   0.141  12.083 -0.4833 -0.0059  0.0922
 3235TIP3   OH231195   1.245   4.675   4.590 -0.1647 -0.6456 -0.2078
 3235TIP3    H131196   1.287   4.670   4.676 -0.2542  2.0553  0.0925
 3235TIP3    H231197   1.166   4.621   4.599 -0.5607  0.1706  1.6865
 3236TIP3   OH231198   4.847   6.343  15.258 -0.5991 -0.0790 -0.4262
 3236TIP3    H131199   4.926   6.345  15.311 -0.5590 -0.3398 -0.4764
 3236TIP3    H231200   4.821   6.251  15.256 -2.1164  0.2431  1.3866
 3237TIP3   OH231201   0.242   4.396   4.985 -0.1839 -0.0186  0.3599
 3237TIP3    H131202   0.168   4.372   5.041 -0.8453 -3.9131 -1.8188
 3237TIP3    H231203   0.312   4.335   5.009  0.0946 -0.6227 -1.7646
 3238TIP3   OH231204   1.167   0.377  12.604 -0.1012  0.3741  0.6921
 3238TIP3    H131205   1.137   0.294  12.566  1.2825 -1.7273  3.8491
 3238TIP3    H231206   1.088   0.417  12.639 -0.4150 -1.1537  1.8155
 3239TIP3   OH231207   6.413   0.070   1.035 -0.2516  0.1170  0.2920
 3239TIP3    H131208   6.422   0.066   0.940 -2.0468  0.9268  0.0543
 3239TIP3    H231209   6.405   0.163   1.056 -0.3020 -0.0708  1.1821
 3240TIP3   OH231210   6.113   6.328  14.563  0.3513  0.4599  0.3073
 3240TIP3    H131211   6.147   6.243  14.537 -1.4518 -0.2104 -0.0066
 3240TIP3    H231212   6.191   6.380  14.584  1.4662 -1.3398  0.7941
 3241TIP3   OH231213   3.508   2.945  16.253  0.2306 -0.2536  0.1969
 3241TIP3    H131214   3.528   2.931  16.345 -0.4436 -0.0713  0.3780
 3241TIP3    H231215   3.533   3.036  16.237  1.6224 -0.6860 -0.1563
 3242TIP3   OH231216   6.723   1.493  11.735  0.4296 -0.2135 -0.4128
 3242TIP3    H131217   6.672   1.414  11.713 -0.8964  0.7290 -0.8661
 3242TIP3    H231218   6.683   1.524  11.816 -0.0265  0.7727 -0.9967
 3243TIP3   OH231219   1.427   2.191  17.203  0.2567  0.2842 -0.2970
 3243TIP3    H131220   1.483   2.121  17.171 -0.1910 -0.2411  0.0573
 3243TIP3    H231221   1.459   2.210  17.291 -0.9685 -0.9678  0.4510
 3244TIP3   OH231222   1.025   1.199   5.102 -0.0847 -0.1445  0.8152
 3244TIP3    H131223   0.988   1.112   5.087  0.6008 -0.4432  0.7993
 3244TIP3    H231224   1.091   1.209   5.033 -1.3336  1.1024 -0.2514
 3245TIP3   OH231225   1.368   1.968  12.989 -0.6506 -0.0188 -0.0104
 3245TIP3    H131226   1.329   1.886  12.958  0.9594 -1.3034  1.1863
 3245TIP3    H231227   1.387   2.017  12.909 -1.2929 -0.9698 -0.7740
 3246TIP3   OH231228   2.552   3.048   6.463  0.0687  0.3275  0.5944
 3246TIP3    H131229   2.566   3.119   6.400  1.6647  0.6232  1.2160
 3246TIP3    H231230   2.617   3.064   6.532  2.8669 -3.4416 -0.7671
 3247TIP3   OH231231   1.600   1.852  12.632  0.2161  0.1667 -0.3967
 3247TIP3    H131232   1.675   1.888  12.677 -0.6892  1.2280  0.3186
 3247TIP3    H231233   1.593   1.905  12.552 -0.9297  1.4616  0.5060
 3248TIP3   OH231234   6.662   1.674   4.108 -0.4641 -0.6613  0.0957
 3248TIP3    H131235   6.688   1.761   4.141 -0.2178 -0.5191 -0.4746
 3248TIP3    H231236   6.685   1.614   4.179  0.6004 -0.4258 -0.0357
 3249TIP3   OH231237   4.332   3.401  15.862  0.0256  0.3383 -0.0950
 3249TIP3    H131238   4.297   3.477  15.815 -0.5947 -0.4196 -0.9032
 3249TIP3    H231239   4.414   3.381  15.817  0.7232  1.1486  0.7851
 3250TIP3   OH231240   1.686   3.498  14.219 -0.2494  0.0338 -0.2430
 3250TIP3    H131241   1.727   3.584  14.228 -2.0459  0.8437  0.6108
 3250TIP3    H231242   1.691   3.460  14.307  0.5320 -0.7712 -0.6103
 3251TIP3   OH231243   1.861   6.520  12.813 -0.1331  0.1956 -0.2010
 3251TIP3    H131244   1.773   6.556  12.798  0.2678  0.9146 -0.9152
 3251TIP3    H231245   1.873   6.456  12.743  0.3997  1.0482 -0.9198
 3252TIP3   OH231246   3.387   0.701  17.138 -0.4920 -0.2143  0.2436
 3252TIP3    H131247   3.368   0.609  17.122  1.2711 -0.7623  1.0392
 3252TIP3    H231248   3.382   0.742  17.052  0.9012 -1.5185 -0.5043
 3253TIP3   OH231249   2.040   4.974   0.753  0.0496 -0.1210 -0.2069
 3253TIP3    H131250   1.984   4.896   0.760 -0.7099  0.3849 -0.4834
 3253TIP3    H231251   2.120   4.943   0.711 -0.3446 -0.7060 -0.5379
 3254TIP3   OH231252   0.893   3.526   5.114  0.4405 -0.4268  0.4359
 3254TIP3    H131253   0.824   3.554   5.054 -0.0882  1.0234  1.6457
 3254TIP3    H231254   0.971   3.575   5.087  0.3555 -0.2245  0.5530
 3255TIP3   OH231255   5.775   5.667   6.066  0.0435  0.3289 -0.0671
 3255TIP3    H131256   5.870   5.678   6.055  0.1397 -0.8475 -0.5255
 3255TIP3    H231257   5.749   5.742   6.119  1.4347  0.0001  1.1543
 3256TIP3   OH231258   6.255   1.828  13.738 -0.1806  0.0123  0.1499
 3256TIP3    H131259   6.277   1.850  13.829 -1.5576  0.9378  0.2790
 3256TIP3    H231260   6.340   1.822  13.694  0.4795  0.1433  1.3622
 3257TIP3   OH231261   2.453   1.665   6.080 -0.9932  0.9484 -0.0898
 3257TIP3    H131262   2.477   1.647   6.171 -1.0359  2.3821  0.2203
 3257TIP3    H231263   2.535   1.662   6.032 -0.6057  2.6140  0.4230
 3258TIP3   OH231264   4.656   0.660  16.919 -0.3522  0.2345  0.0703
 3258TIP3    H131265   4.687   0.710  16.844 -1.0117 -0.6770 -0.8330
 3258TIP3    H231266   4.734   0.617  16.954 -0.1368  0.2142 -0.4364
 3259TIP3   OH231267   2.193   2.468  13.536  0.0057 -0.1285 -0.2014
 3259TIP3    H131268   2.155   2.507  13.615 -0.1544  0.4569 -0.5652
 3259TIP3    H231269   2.194   2.539  13.472  1.7021 -0.1188 -0.2153
 3260TIP3   OH231270   0.345   1.682  17.061 -0.1877 -0.4993  0.0532
 3260TIP3    H131271   0.354   1.588  17.042 -1.8417 -0.7526  0.3440
 3260TIP3    H231272   0.280   1.713  16.999  1.7492  0.9450 -1.3638
 3261TIP3   OH231273   2.741   5.791  16.263  0.0333  0.1667  0.5925
 3261TIP3    H131274   2.781   5.841  16.334 -0.1533 -0.6115  1.2694
 3261TIP3    H231275   2.797   5.714  16.254 -2.7079 -2.4487  3.5159
 3262TIP3   OH231276   3.156   5.446   0.375  0.1074 -0.3251 -0.0199
 3262TIP3    H131277   3.147   5.494   0.293  0.0936 -1.1384 -0.4996
 3262TIP3    H231278   3.135   5.356   0.353 -1.1951 -0.3327  1.1564
 3263TIP3   OH231279   2.667   5.689  11.856  0.0638  0.4235 -0.4553
 3263TIP3    H131280   2.684   5.619  11.919  1.6715  1.2305  0.0840
 3263TIP3    H231281   2.752   5.702  11.812 -0.9853 -0.0927 -2.8033
 3264TIP3   OH231282   3.089   0.630  14.494  0.0863  0.4254  0.1584
 3264TIP3    H131283   3.138   0.586  14.563  0.2446  0.6078  0.1633
 3264TIP3    H231284   3.018   0.570  14.473  0.7397 -0.1884 -0.3679
 3265TIP3   OH231285   6.095   0.422   1.029  0.4452 -0.2512  0.2376
 3265TIP3    H131286   6.122   0.379   0.948 -1.7630 -2.6463  0.6300
 3265TIP3    H231287   6.076   0.512   1.003  0.8873 -0.6670 -1.6572
 3266TIP3   OH231288   0.916   1.356   4.757  0.0196 -0.2017 -0.3351
 3266TIP3    H131289   0.964   1.343   4.675 -1.1455 -1.2410 -0.8722
 3266TIP3    H231290   0.869   1.274   4.771 -1.7584  0.8423  0.0774
 3267TIP3   OH231291   5.829   2.321  15.690  0.1417 -0.5009 -0.3206
 3267TIP3    H131292   5.865   2.255  15.631 -1.6492  0.2583 -2.3880
 3267TIP3    H231293   5.873   2.402  15.665 -1.4366  0.0444 -1.4699
 3268TIP3   OH231294   6.331   5.573  13.396 -0.0033 -0.5553 -1.0073
 3268TIP3    H131295   6.282   5.511  13.342  1.3455 -1.8249 -0.8436
 3268TIP3    H231296   6.303   5.554  13.485 -0.5562 -0.0043 -1.0550
 3269TIP3   OH231297   4.750   5.231  13.372  0.3847 -0.2096  0.5553
 3269TIP3    H131298   4.807   5.304  13.348  2.4235 -1.4311  1.4107
 3269TIP3    H231299   4.684   5.270  13.428 -0.1965  1.4118 -1.1733
 3270TIP3   OH231300   5.183   0.453   1.004  0.4595 -0.4943 -0.2594
 3270TIP3    H131301   5.213   0.380   0.950  0.1696 -0.5043 -0.4053
 3270TIP3    H231302   5.095   0.473   0.972  0.4787 -0.1791 -0.1204
 3271TIP3   OH231303   1.014   0.256   2.319 -0.3612 -0.5789  0.1515
 3271TIP3    H131304   1.026   0.236   2.227  0.6303  0.7665 -0.0456
 3271TIP3    H231305   0.965   0.182   2.354  1.5133 -2.4106 -0.8825
 3272TIP3   OH231306   1.746   6.021  12.043 -0.6056  0.4251 -0.3879
 3272TIP3    H131307   1.828   6.051  12.004 -1.1265  1.6870 -0.5840
 3272TIP3    H231308   1.679   6.077  12.002 -1.5424 -0.4971 -0.1437
 3273TIP3   OH231309   1.643   3.715   4.624  0.3638 -0.4786 -0.0281
 3273TIP3    H131310   1.701   3.735   4.698  0.9664  0.9411 -0.8527
 3273TIP3    H231311   1.654   3.788   4.564 -1.8207 -0.4838 -0.5129
 3274TIP3   OH231312   4.044   2.383  15.805  0.1879 -0.0493  0.7547
 3274TIP3    H131313   4.007   2.310  15.854  0.5935  0.2215  1.4875
 3274TIP3    H231314   3.968   2.433  15.775 -0.1462 -1.3804 -0.7621
 3275TIP3   OH231315   2.396   0.200   1.103  0.0816 -0.5161  0.2772
 3275TIP3    H131316   2.338   0.211   1.177 -0.3574 -0.7028 -0.0384
 3275TIP3    H231317   2.432   0.112   1.112 -0.7835 -0.9394 -0.3010
 3276TIP3   OH231318   5.717   3.437  13.154  0.3362  0.0500 -0.1022
 3276TIP3    H131319   5.648   3.488  13.111  0.4665  0.2871 -0.0288
 3276TIP3    H231320   5.702   3.449  13.247  0.0120 -0.5221 -0.0749
 3277TIP3   OH231321   6.127   3.019  14.837  1.1279 -0.6219  0.3787
 3277TIP3    H131322   6.091   3.104  14.814 -0.6870 -1.5139 -0.3419
 3277TIP3    H231323   6.221   3.033  14.846  0.7762  1.5778  1.0096
 3278TIP3   OH231324   5.776   0.785   1.387 -0.0435 -0.0490  0.4032
 3278TIP3    H131325   5.768   0.690   1.397  1.6644 -0.2251  0.3908
 3278TIP3    H231326   5.690   0.813   1.354 -0.3732 -1.6775 -0.2229
 3279TIP3   OH231327   4.175   1.787   6.145 -0.2794 -0.4110 -0.2041
 3279TIP3    H131328   4.228   1.796   6.066 -0.4596 -0.1766 -0.2987
 3279TIP3    H231329   4.168   1.692   6.158 -1.3939 -0.5015 -1.2572
 3280TIP3   OH231330   4.859   3.939   2.091 -0.6343  0.0871 -0.2617
 3280TIP3    H131331   4.945   3.901   2.076  0.3517  2.4884 -1.1945
 3280TIP3    H231332   4.799   3.865   2.086  0.8802 -1.1267 -4.3738
 3281TIP3   OH231333   5.069   2.682  14.264 -0.3580  0.1420 -0.9025
 3281TIP3    H131334   5.140   2.638  14.217  0.2529 -0.2679  0.3602
 3281TIP3    H231335   5.043   2.753  14.206  1.4301  0.6051 -1.1966
 3282TIP3   OH231336   0.426   1.648  15.619  0.2737 -0.3341  0.1974
 3282TIP3    H131337   0.429   1.744  15.626 -0.5191 -0.3343  0.7475
 3282TIP3    H231338   0.393   1.632  15.531  0.6996 -0.1096 -0.0064
 3283TIP3   OH231339   1.879   4.327  13.879 -0.0177  0.4306 -0.0948
 3283TIP3    H131340   1.809   4.381  13.843  0.8686  1.2929 -0.5574
 3283TIP3    H231341   1.905   4.270  13.807 -2.1866 -2.0029  0.8843
 3284TIP3   OH231342   2.291   4.214   5.134 -0.3210  0.1787  0.0728
 3284TIP3    H131343   2.216   4.213   5.194 -0.8013 -0.6935 -0.5221
 3284TIP3    H231344   2.272   4.286   5.073 -0.7617 -0.1445 -0.1762
 3285TIP3   OH231345   6.606   3.069  14.049 -0.2833  0.3245  0.5146
 3285TIP3    H131346   6.673   3.132  14.075 -0.2600  0.6469 -0.3053
 3285TIP3    H231347   6.633   3.038  13.962 -0.3612 -0.7252  0.8472
 3286TIP3   OH231348   5.346   4.759   0.000 -0.0865 -0.0364  0.8846
 3286TIP3    H131349   5.390   4.684   0.040  1.0090 -0.5746 -1.1808
 3286TIP3    H231350   5.359   4.747  -0.094 -1.3378  1.8839  0.4046
 3287TIP3   OH231351   6.250   5.897  17.014  0.2869  0.7769 -0.6375
 3287TIP3    H131352   6.262   5.959  16.942  0.1858 -0.5162 -1.8216
 3287TIP3    H231353   6.231   5.813  16.971 -1.9090  0.3722  0.9083
 3288TIP3   OH231354   3.965   4.448   3.849  0.6359  0.4829 -0.2997
 3288TIP3    H131355   4.025   4.516   3.819 -0.0114  1.1462 -0.1372
 3288TIP3    H231356   3.931   4.482   3.932  0.1639  0.0480 -0.3119
 3289TIP3   OH231357   0.408   3.871  14.117 -0.6134 -1.0748 -0.3718
 3289TIP3    H131358   0.500   3.896  14.120 -0.2389 -1.7233 -3.1482
 3289TIP3    H231359   0.401   3.797  14.177  0.8011 -1.3408 -0.4968
 3290TIP3   OH231360   5.861   1.020   1.999 -0.2456  0.4476 -0.3198
 3290TIP3    H131361   5.825   0.999   1.913 -0.0179  0.5416 -0.4396
 3290TIP3    H231362   5.784   1.035   2.054 -0.4432 -1.4798 -0.0207
 3291TIP3   OH231363   3.925   6.189  10.727  0.1933  0.4656 -0.4171
 3291TIP3    H131364   3.904   6.280  10.707  1.7354  0.6600 -1.4027
 3291TIP3    H231365   4.013   6.177  10.690  0.8395 -0.8707  1.4064
 3292TIP3   OH231366   3.187   4.038   0.104  0.1445  0.3925  0.4014
 3292TIP3    H131367   3.239   4.092   0.164 -0.0994  0.3564  0.6468
 3292TIP3    H231368   3.183   3.952   0.147 -1.2155  0.7488  1.0147
 3293TIP3   OH231369   4.057   0.512   1.892 -0.2016  0.6889 -0.2912
 3293TIP3    H131370   4.031   0.604   1.892  0.0529  0.8281  1.9821
 3293TIP3    H231371   3.977   0.465   1.867 -0.7202  1.4562 -0.1285
 3294TIP3   OH231372   0.366   3.277   6.526  0.4228 -0.3966 -0.3943
 3294TIP3    H131373   0.419   3.296   6.449  0.1644  0.3645 -0.3870
 3294TIP3    H231374   0.430   3.257   6.594  0.7518  1.1375 -0.2161
 3295TIP3   OH231375   4.480   6.046  14.020 -0.5248 -0.2307  0.6029
 3295TIP3    H131376   4.410   6.097  13.979  0.1259 -0.0513 -0.3332
 3295TIP3    H231377   4.513   5.991  13.949 -0.5618 -1.2545  1.3567
 3296TIP3   OH231378   1.040   1.392   3.670  0.9293  0.4034  0.1101
 3296TIP3    H131379   0.970   1.442   3.712  1.6599  1.5619  0.0127
 3296TIP3    H231380   1.003   1.361   3.588  0.7400  1.6483 -0.2997
 3297TIP3   OH231381   4.561   5.613  15.325  1.2172  0.4434 -0.7013
 3297TIP3    H131382   4.568   5.630  15.231 -0.6208  1.4762 -0.6902
 3297TIP3    H231383   4.492   5.672  15.355  1.5472 -0.1011  1.2535
 3298TIP3   OH231384   1.625   5.592   3.487  0.2681 -0.1039  0.1201
 3298TIP3    H131385   1.538   5.632   3.496  0.8186  1.0865  0.2373
 3298TIP3    H231386   1.680   5.660   3.449  0.9916 -1.0890 -0.6685
 3299TIP3   OH231387   6.446   2.125  16.918 -0.2396  0.4661  0.7834
 3299TIP3    H131388   6.371   2.181  16.896 -1.0219 -0.2542  1.5514
 3299TIP3    H231389   6.406   2.043  16.946  0.8867 -0.3574  0.0119
 3300TIP3   OH231390   6.340   2.664  13.574  0.3079  0.3213 -0.0088
 3300TIP3    H131391   6.270   2.722  13.543  0.5466  1.6312  1.7746
 3300TIP3    H231392   6.295   2.582  13.595 -0.4472  0.6451 -0.3199
 3301TIP3   OH231393   6.295   1.485  15.307  0.1695  0.0875  0.5444
 3301TIP3    H131394   6.203   1.491  15.332 -0.2682 -0.0388 -0.9238
 3301TIP3    H231395   6.320   1.575  15.287  0.3496  0.1131  0.8852
 3302TIP3   OH231396   1.259   2.024   6.161  0.8541  0.1541  0.1933
 3302TIP3    H131397   1.180   2.077   6.147  1.7113  1.1496 -1.0290
 3302TIP3    H231398   1.331   2.086   6.153  1.9321 -1.2659 -1.7728
 3303TIP3   OH231399   3.464   0.744   3.295  0.0396  0.0386 -0.0172
 3303TIP3    H131400   3.418   0.710   3.218  0.7348 -0.1288 -0.3594
 3303TIP3    H231401   3.422   0.699   3.369 -1.7847  1.4284 -0.1159
 3304TIP3   OH231402   0.207   5.752  17.134 -0.7648 -0.1198 -0.2045
 3304TIP3    H131403   0.232   5.664  17.163 -2.7283 -0.2786  1.1652
 3304TIP3    H231404   0.281   5.807  17.159 -0.3844 -1.0542  0.8028
 3305TIP3   OH231405   1.335   5.233   1.519 -0.5377  0.0222  0.3089
 3305TIP3    H131406   1.287   5.150   1.509  0.2354 -0.1665 -2.6569
 3305TIP3    H231407   1.336   5.248   1.614 -1.7750 -2.7003  0.8637
 3306TIP3   OH231408   4.423   6.559  16.937 -0.3955  0.3507  1.3543
 3306TIP3    H131409   4.341   6.597  16.970 -1.5801  1.3187 -2.2511
 3306TIP3    H231410   4.397   6.474  16.902 -0.1581  1.0791 -0.7122
 3307TIP3   OH231411   1.299   4.243   3.561 -0.0411  0.6573 -0.1132
 3307TIP3    H131412   1.293   4.160   3.607 -2.6626  1.6075  1.4824
 3307TIP3    H231413   1.381   4.238   3.512  0.0357 -2.6945  0.1678
 3308TIP3   OH231414   6.417   0.901  10.771  0.1436  0.4329  0.0744
 3308TIP3    H131415   6.387   0.845  10.843  0.5839  1.3040  0.9533
 3308TIP3    H231416   6.348   0.895  10.705 -1.3283  1.3107  1.4738
 3309TIP3   OH231417   3.884   6.770  15.700  0.6163 -0.0676  0.8065
 3309TIP3    H131418   3.883   6.825  15.778  0.7846 -1.1444  1.5923
 3309TIP3    H231419   3.821   6.812  15.641 -0.1154  0.3284  1.8254
 3310TIP3   OH231420   2.046   1.019   1.430  0.5525  0.0439  0.4872
 3310TIP3    H131421   1.973   1.075   1.456  2.1589  1.8982  1.2192
 3310TIP3    H231422   2.124   1.070   1.451  2.0877 -2.0402  0.1217
 3311TIP3   OH231423   2.209   0.956  15.942  0.3435  0.8083 -0.1954
 3311TIP3    H131424   2.287   0.953  15.886  0.3401  1.9541 -0.2908
 3311TIP3    H231425   2.147   1.009  15.892  0.1993  1.5172  0.7200
 3312TIP3   OH231426   4.796   5.979  14.800 -0.8319  0.4820  0.5949
 3312TIP3    H131427   4.766   5.889  14.791 -1.4557  0.6733  0.6526
 3312TIP3    H231428   4.882   5.981  14.759 -1.3410  0.1351 -0.5237
 3313TIP3   OH231429   0.509   0.546   5.011  0.1690 -0.4559 -0.6467
 3313TIP3    H131430   0.452   0.586   4.945 -0.1299  0.3815  0.1014
 3313TIP3    H231431   0.450   0.506   5.073  0.1995  2.1760  1.2741
 3314TIP3   OH231432   4.466   2.982  14.390 -0.0527 -0.3981  0.0100
 3314TIP3    H131433   4.381   2.937  14.389 -0.4350 -0.0010  3.2891
 3314TIP3    H231434   4.467   3.033  14.308 -2.3375 -1.4916 -0.7911
 3315TIP3   OH231435   1.041   3.435   3.441 -0.2275 -0.6070  0.3836
 3315TIP3    H131436   0.991   3.379   3.501  0.0355  0.5070  1.7064
 3315TIP3    H231437   1.132   3.419   3.465 -0.1171 -0.1528  0.2739
 3316TIP3   OH231438   0.028   5.066   5.198  0.2723 -0.5056 -0.2780
 3316TIP3    H131439  -0.029   5.104   5.265  0.9881 -1.1359  0.7085
 3316TIP3    H231440  -0.013   4.982   5.177 -0.1854 -0.1305 -0.9819
 3317TIP3   OH231441   3.660   3.728  12.079 -0.1491  0.0482 -0.1550
 3317TIP3    H131442   3.577   3.712  12.034 -1.2635  0.9248  1.4723
 3317TIP3    H231443   3.637   3.731  12.172  1.4317  1.8479  0.2500
 3318TIP3   OH231444   1.215   1.391  16.211 -0.0201  0.3470  0.1669
 3318TIP3    H131445   1.268   1.469  16.228 -0.7869  0.7008  1.0045
 3318TIP3    H231446   1.156   1.417  16.141 -0.2141  0.4914  0.3831
 3319TIP3   OH231447   0.398   3.317   2.530 -0.0083 -0.0514  0.0846
 3319TIP3    H131448   0.350   3.393   2.499  1.7696  1.0429 -0.1510
 3319TIP3    H231449   0.364   3.244   2.479 -1.8826  0.5177  0.4475
 3320TIP3   OH231450   6.513   4.922  15.030 -0.7406  0.4112 -0.4480
 3320TIP3    H131451   6.551   4.934  15.117  0.5998  1.4115 -1.1377
 3320TIP3    H231452   6.429   4.879  15.047  1.0026 -2.7343  1.1222
 3321TIP3   OH231453   2.379   0.178   4.806  0.0966  0.4820  0.0376
 3321TIP3    H131454   2.437   0.224   4.746 -0.7461  0.0807 -1.1028
 3321TIP3    H231455   2.430   0.101   4.834  0.9131  1.2529  0.7478
 3322TIP3   OH231456   2.131   2.984   6.670 -0.0055  0.5569  0.0331
 3322TIP3    H131457   2.199   2.968   6.605 -1.1413 -1.1863 -0.8037
 3322TIP3    H231458   2.137   2.909   6.730 -2.7237 -1.0469 -1.5041
 3323TIP3   OH231459   5.687   4.487   5.566 -0.1257 -0.1550 -0.6778
 3323TIP3    H131460   5.755   4.554   5.569 -1.2210  1.0297 -1.2151
 3323TIP3    H231461   5.720   4.422   5.504  1.5506 -0.8592  0.8351
 3324TIP3   OH231462   4.189   0.765   1.358 -0.2594 -0.4172 -0.0117
 3324TIP3    H131463   4.123   0.792   1.422  0.5941 -0.9036  1.1306
 3324TIP3    H231464   4.153   0.686   1.318 -0.5291 -0.4815  0.3536
 3325TIP3   OH231465   0.597   0.898   4.941  0.2709 -0.0850  0.0376
 3325TIP3    H131466   0.550   0.980   4.926 -3.0503 -1.9782 -0.8848
 3325TIP3    H231467   0.551   0.857   5.014  3.5219 -0.1106  2.2830
 3326TIP3   OH231468   6.344   3.054   0.523 -0.5021  0.5033  0.5024
 3326TIP3    H131469   6.276   3.013   0.470 -0.6992  2.1775 -0.6052
 3326TIP3    H231470   6.422   3.000   0.507 -1.2485 -0.7091  0.8277
 3327TIP3   OH231471   3.055   1.422  16.815 -0.0813 -0.3331  0.1925
 3327TIP3    H131472   3.136   1.423  16.866 -0.7812  0.9422  1.3513
 3327TIP3    H231473   3.063   1.346  16.758  1.1923 -1.1956  1.4695
 3328TIP3   OH231474   5.322   2.667   6.002 -0.4967 -0.3112 -0.1401
 3328TIP3    H131475   5.374   2.662   6.082  0.5178 -1.4636 -0.8459
 3328TIP3    H231476   5.357   2.743   5.956  1.2558 -1.6068 -1.0422
 3329TIP3   OH231477   4.424   2.665  15.483 -0.6341  0.4029 -0.1387
 3329TIP3    H131478   4.400   2.744  15.532 -2.1744  0.1761 -0.4803
 3329TIP3    H231479   4.412   2.689  15.391  2.7107  0.9854 -0.5612
 3330TIP3   OH231480   4.876   3.968   3.334 -0.3508 -0.4252  0.0868
 3330TIP3    H131481   4.918   3.896   3.287  0.0813 -1.1415  1.5236
 3330TIP3    H231482   4.900   4.047   3.284  0.1650 -1.1485 -0.8301
 3331TIP3   OH231483   2.390   4.256  11.201 -0.1644  0.3625 -0.1813
 3331TIP3    H131484   2.309   4.234  11.247  0.2445  0.8261  0.7777
 3331TIP3    H231485   2.460   4.229  11.260  0.3686  1.2121 -0.3990
 3332TIP3   OH231486   3.911   4.407  16.774 -0.3272 -0.3543 -0.8021
 3332TIP3    H131487   3.975   4.419  16.844 -0.1526 -1.2391 -0.8084
 3332TIP3    H231488   3.934   4.324  16.734 -0.7657 -0.1163 -1.5635
 3333TIP3   OH231489   2.089   2.647   6.660  0.2191  0.2272  0.2128
 3333TIP3    H131490   2.122   2.676   6.575  3.5714 -1.0922  0.8949
 3333TIP3    H231491   2.154   2.678   6.723 -1.6797  0.3621  2.2221
 3334TIP3   OH231492   3.551   6.631  15.344  0.4370  0.8969 -0.0543
 3334TIP3    H131493   3.475   6.675  15.303 -1.2556 -2.0217 -0.2938
 3334TIP3    H231494   3.559   6.548  15.298  0.5593 -1.1183  3.2382
 3335TIP3   OH231495   1.147   2.125   2.522 -0.5034  0.1868 -0.2646
 3335TIP3    H131496   1.192   2.137   2.606 -0.4480 -0.5803 -0.1734
 3335TIP3    H231497   1.056   2.105   2.547 -0.3026 -0.8640 -0.3511
 3336TIP3   OH231498   1.406   1.761  12.463  0.2884 -0.2907  0.6458
 3336TIP3    H131499   1.489   1.799  12.434  0.4290  0.3429  1.8184
 3336TIP3    H231500   1.399   1.786  12.555 -1.1928 -0.3590  0.5800
 3337TIP3   OH231501   5.917   0.552  12.399  0.2235 -0.8215  0.0526
 3337TIP3    H131502   5.868   0.599  12.467  0.7756  0.7670 -0.6083
 3337TIP3    H231503   5.855   0.542  12.327 -0.4275 -2.6923  0.8231
 3338TIP3   OH231504   0.880   1.326   3.455  0.4148 -0.2614  0.0951
 3338TIP3    H131505   0.798   1.357   3.416  0.7607  0.7664  0.1678
 3338TIP3    H231506   0.909   1.255   3.397  0.6095  0.8491 -1.2034
 3339TIP3   OH231507   3.589   6.146   6.181 -0.4698 -0.0544  0.2151
 3339TIP3    H131508   3.569   6.227   6.133 -1.2207 -1.1640 -1.4495
 3339TIP3    H231509   3.626   6.088   6.114  2.4651 -0.2897  1.8807
 3340TIP3   OH231510   4.018   5.427  16.275  0.8589  0.6274  0.3835
 3340TIP3    H131511   4.068   5.358  16.233  0.2520  0.1753  0.3904
 3340TIP3    H231512   3.981   5.386  16.353  0.2917  0.8921  0.2573
 3341TIP3   OH231513   0.755   4.081   0.584 -0.0732  0.6308 -0.0648
 3341TIP3    H131514   0.706   4.082   0.502 -0.8298 -1.9839  0.2703
 3341TIP3    H231515   0.834   4.030   0.564 -1.3440 -2.0776  1.2779
 3342TIP3   OH231516   2.806   2.426  13.652 -0.8142 -0.2648  0.6427
 3342TIP3    H131517   2.836   2.344  13.613  0.6717  1.0252 -1.0689
 3342TIP3    H231518   2.816   2.491  13.583  1.3596  2.0412  2.9042
 3343TIP3   OH231519   1.435   3.617   3.228  0.7107 -0.1699  0.0058
 3343TIP3    H131520   1.502   3.681   3.254  0.0234  0.1047  1.2109
 3343TIP3    H231521   1.352   3.664   3.241  0.1904 -1.3134  1.0196
 3344TIP3   OH231522   2.720   1.111  16.914 -0.1675  0.1996  0.1300
 3344TIP3    H131523   2.724   1.112  17.009 -1.4211 -0.4354  0.2059
 3344TIP3    H231524   2.746   1.200  16.888 -2.4412  1.2705  1.2127
 3345TIP3   OH231525   4.720   4.260   3.533  0.0190 -0.2163  0.9010
 3345TIP3    H131526   4.777   4.188   3.562 -0.5993 -0.7365  0.8370
 3345TIP3    H231527   4.768   4.301   3.461 -0.0369 -1.1606  0.3019
 3346TIP3   OH231528   5.064   4.383   1.845  0.2743 -0.2138 -0.1097
 3346TIP3    H131529   4.987   4.353   1.893 -0.7118 -0.5854 -1.8298
 3346TIP3    H231530   5.052   4.478   1.838  0.7531 -0.0682  0.8955
 3347TIP3   OH231531   6.399   2.434  13.045 -0.3799  0.1162  0.1345
 3347TIP3    H131532   6.317   2.469  13.011 -0.5198 -0.0507  0.3014
 3347TIP3    H231533   6.466   2.470  12.986 -0.2011  2.9616  1.8640
 3348TIP3   OH231534   0.145   1.747   4.187 -0.4758 -0.0309  0.2846
 3348TIP3    H131535   0.063   1.794   4.204  0.4739  1.8781 -0.1319
 3348TIP3    H231536   0.137   1.717   4.096 -0.4833  0.6729  0.0464
 3349TIP3   OH231537   3.570   2.145   5.726 -0.1149 -0.4549  0.9002
 3349TIP3    H131538   3.631   2.077   5.754 -0.0472 -0.3360  1.0434
 3349TIP3    H231539   3.621   2.202   5.670  0.0550 -0.0433  1.4635
 3350TIP3   OH231540   3.566   6.404   0.616 -0.5151 -0.2141 -0.0868
 3350TIP3    H131541   3.543   6.419   0.525 -1.0632  1.4385  0.2765
 3350TIP3    H231542   3.662   6.413   0.619 -0.7034  3.7722  0.0362
 3351TIP3   OH231543   3.583   5.420   4.042 -0.3927 -0.6951 -0.7357
 3351TIP3    H131544   3.538   5.342   4.075 -0.1530 -1.1713 -1.5349
 3351TIP3    H231545   3.559   5.425   3.950  1.3337 -1.0506 -1.2181
 3352TIP3   OH231546   4.920   3.832   2.832 -0.1457  0.5770 -0.4966
 3352TIP3    H131547   4.847   3.803   2.778 -1.9057  1.1205  1.4148
 3352TIP3    H231548   4.890   3.916   2.869  1.5841  0.9703  0.1082
 3353TIP3   OH231549   3.988   4.182  14.668  0.1406  0.2007 -0.1017
 3353TIP3    H131550   3.938   4.256  14.634  0.4955  0.5218  0.0641
 3353TIP3    H231551   4.065   4.177  14.612  0.2496  0.1262  0.0534
 3354TIP3   OH231552   1.888   6.779  12.625  0.3508 -0.2498 -0.0212
 3354TIP3    H131553   1.908   6.706  12.566 -1.3687 -0.5944 -0.2193
 3354TIP3    H231554   1.920   6.750  12.710  3.1679  0.3809 -0.7658
 3355TIP3   OH231555   0.294   4.122   5.710 -0.0957 -0.0605 -0.1545
 3355TIP3    H131556   0.283   4.028   5.696  0.8001 -0.0292 -1.2901
 3355TIP3    H231557   0.208   4.159   5.694 -0.3605 -0.6517 -0.1264
 3356TIP3   OH231558   6.048   4.604   3.997  0.3667 -0.3853  0.3734
 3356TIP3    H131559   6.068   4.685   4.043 -0.2490  1.5400 -2.4567
 3356TIP3    H231560   5.994   4.554   4.058 -1.4656  2.5334  1.3561
 3357TIP3   OH231561   6.122   3.066  13.138  0.5830 -0.2353  0.7733
 3357TIP3    H131562   6.092   3.150  13.102 -0.2923 -1.2490 -1.0390
 3357TIP3    H231563   6.189   3.090  13.201  2.1537  1.7716 -1.4519
 3358TIP3   OH231564   0.002   6.394   4.994 -0.5653  0.3015 -0.0490
 3358TIP3    H131565   0.087   6.351   4.983 -1.3275 -1.8939  1.8583
 3358TIP3    H231566  -0.057   6.346   4.935 -0.8122  0.7105 -0.1345
 3359TIP3   OH231567   0.749   4.872   6.007 -0.5816  0.2841 -0.1298
 3359TIP3    H131568   0.670   4.904   6.049 -0.6063  0.6136 -0.4226
 3359TIP3    H231569   0.819   4.927   6.043 -0.5588  0.3427 -0.2605
 3360TIP3   OH231570   4.076   6.226   6.247  0.0076 -0.3297 -0.4777
 3360TIP3    H131571   4.105   6.282   6.319 -0.7184 -0.3279 -0.1737
 3360TIP3    H231572   4.141   6.156   6.244 -0.7193 -1.1367  1.1577
 3361TIP3   OH231573   4.267   2.490  15.216  0.4957  0.3464 -0.4749
 3361TIP3    H131574   4.200   2.533  15.164 -0.9418  1.9682  2.4872
 3361TIP3    H231575   4.221   2.418  15.259  1.2014  0.1177 -0.0919
 3362TIP3   OH231576   4.007   1.209  16.626 -0.5151  0.4398  0.6704
 3362TIP3    H131577   4.062   1.247  16.557 -1.2960 -1.6283 -1.2332
 3362TIP3    H231578   3.925   1.258  16.621 -0.4197  0.5771  0.3848
 3363TIP3   OH231579   1.887   4.521   0.419  0.2771  0.2897  0.5529
 3363TIP3    H131580   1.816   4.478   0.371  1.2635 -0.4587 -0.2665
 3363TIP3    H231581   1.874   4.493   0.510 -1.0734  1.0060  0.6161
 3364TIP3   OH231582   4.048   3.516   6.050 -0.3905 -0.2669 -0.5448
 3364TIP3    H131583   4.001   3.441   6.015 -0.3261 -0.6248  0.1067
 3364TIP3    H231584   4.036   3.509   6.145  1.2242 -0.5636 -0.3170
 3365TIP3   OH231585   3.400   2.986  16.602 -0.3396  0.0614 -0.3379
 3365TIP3    H131586   3.469   3.053  16.598 -0.6226  0.3337 -0.9051
 3365TIP3    H231587   3.447   2.903  16.594 -0.0860  0.2555 -0.9659
 3366TIP3   OH231588   0.510   0.601   3.377 -0.5787 -0.4337 -0.5569
 3366TIP3    H131589   0.415   0.608   3.383 -0.6085 -1.2858  0.1028
 3366TIP3    H231590   0.525   0.537   3.307 -0.4618  0.4516 -1.3555
 3367TIP3   OH231591   1.247   3.219   4.691  0.3542  0.2811  0.1032
 3367TIP3    H131592   1.233   3.292   4.631  0.8839  1.7332  1.6725
 3367TIP3    H231593   1.159   3.182   4.705 -0.2107  1.7955  0.7052
 3368TIP3   OH231594   4.860   2.839  12.384  0.2423 -0.1590  0.3013
 3368TIP3    H131595   4.769   2.869  12.381 -0.1411 -1.2080  0.9873
 3368TIP3    H231596   4.855   2.746  12.364  0.9481 -0.6191  2.0919
 3369TIP3   OH231597   4.909   5.807   1.949  0.0918  0.5393  1.0873
 3369TIP3    H131598   4.979   5.816   1.885 -0.1819  1.6891  0.9301
 3369TIP3    H231599   4.909   5.891   1.997 -0.9163  0.4070  1.3410
 3370TIP3   OH231600   4.069   5.309  13.536  0.6369 -0.0173  0.1264
 3370TIP3    H131601   4.077   5.343  13.447 -0.6256 -1.9895 -0.8163
 3370TIP3    H231602   4.075   5.214  13.527 -3.1298 -0.5769  1.5575
 3371TIP3   OH231603   3.477   0.672  15.272  0.1197  0.1589  0.1169
 3371TIP3    H131604   3.530   0.735  15.224 -0.4988  3.2846  3.1534
 3371TIP3    H231605   3.540   0.620  15.322  0.5476  1.5995  1.1447
 3372TIP3   OH231606   3.197   3.380   0.643  0.2146  0.4356 -0.2791
 3372TIP3    H131607   3.142   3.400   0.719  0.2458 -0.1056 -0.1148
 3372TIP3    H231608   3.273   3.334   0.679  0.8475  1.2903 -0.4904
 3373TIP3   OH231609   2.797   3.610   5.235  0.3290  0.2445 -0.2014
 3373TIP3    H131610   2.827   3.659   5.311 -0.4354 -1.0496  0.9606
 3373TIP3    H231611   2.862   3.631   5.167  0.7794  1.7657  0.6340
 3374TIP3   OH231612   3.334   1.124  13.795  0.9822 -0.2243 -0.2161
 3374TIP3    H131613   3.269   1.070  13.750 -0.5686 -0.8453  2.5168
 3374TIP3    H231614   3.295   1.211  13.798  1.3902 -0.0269 -0.6811
 3375TIP3   OH231615   4.267   4.217   3.566  0.3340 -0.4041  0.1461
 3375TIP3    H131616   4.194   4.212   3.628  0.5101  0.9815  0.5023
 3375TIP3    H231617   4.338   4.171   3.609 -0.3590 -1.9826 -0.3056
 3376TIP3   OH231618   5.094   2.473  11.426 -0.3377 -0.2550  0.7083
 3376TIP3    H131619   5.056   2.421  11.355  1.0204 -1.2985  0.6969
 3376TIP3    H231620   5.030   2.468  11.497 -1.3303  0.1122 -0.1500
 3377TIP3   OH231621   5.935   4.008   5.771 -0.5742 -0.3625  0.2309
 3377TIP3    H131622   5.888   4.054   5.701 -0.0987 -0.5241 -0.2010
 3377TIP3    H231623   6.021   3.989   5.733  0.6408  1.7666  1.6701
 3378TIP3   OH231624   0.767   2.149   1.037  0.0494  0.3416 -0.0094
 3378TIP3    H131625   0.681   2.143   1.080  1.2861  0.9044  2.7569
 3378TIP3    H231626   0.771   2.240   1.007  0.2313  0.7724  1.2416
 3379TIP3   OH231627   4.457   3.431   3.943 -0.2416  0.0470 -0.0765
 3379TIP3    H131628   4.534   3.447   3.890 -2.4238 -0.5045 -3.7656
 3379TIP3    H231629   4.444   3.336   3.939 -0.9475  0.0870  0.7570
 3380TIP3   OH231630   3.993   6.125  14.331 -0.1387  0.2422 -0.0119
 3380TIP3    H131631   4.075   6.087  14.362 -0.4761 -0.2890  0.2447
 3380TIP3    H231632   4.014   6.217  14.314  1.6621 -0.6734 -4.0716
 3381TIP3   OH231633   6.642   2.194   0.821 -0.1918 -0.1363 -0.6180
 3381TIP3    H131634   6.604   2.119   0.775 -1.8759  1.1936 -1.4908
 3381TIP3    H231635   6.698   2.236   0.756  1.5186 -1.1151  0.1552
 3382TIP3   OH231636   0.370   6.109   3.508 -0.2635  0.3042 -0.0778
 3382TIP3    H131637   0.361   6.065   3.592 -2.7516  0.6472 -0.0732
 3382TIP3    H231638   0.444   6.168   3.519  2.0965 -2.5465  0.4666
 3383TIP3   OH231639   3.877   3.149  16.140 -0.5732 -0.4813 -0.0737
 3383TIP3    H131640   3.802   3.127  16.196 -0.8223 -0.5498 -0.4331
 3383TIP3    H231641   3.952   3.107  16.183 -0.7136 -0.2779  0.3730
 3384TIP3   OH231642   4.800   2.443  17.147 -0.4486  0.4735  0.1845
 3384TIP3    H131643   4.866   2.406  17.088  0.5378  2.0037  0.2700
 3384TIP3    H231644   4.761   2.367  17.190  3.1243 -0.4811  2.1335
 3385TIP3   OH231645   6.441   3.145  13.033 -0.3588  0.5290  0.5496
 3385TIP3    H131646   6.408   3.233  13.018  0.1281  0.8329  1.1896
 3385TIP3    H231647   6.369   3.098  13.074 -0.9401  0.3388 -0.6424
 3386TIP3   OH231648   0.279   2.884  13.573 -0.3632  0.0849  0.4492
 3386TIP3    H131649   0.263   2.960  13.629 -1.3117 -0.9334  1.6305
 3386TIP3    H231650   0.270   2.809  13.632  2.0818 -0.9148 -0.3333
 3387TIP3   OH231651   2.062   5.234  11.868  0.4677  0.1029 -0.3973
 3387TIP3    H131652   2.095   5.154  11.908 -3.5537 -0.8035  1.6087
 3387TIP3    H231653   2.052   5.295  11.941 -1.5896  0.4841 -0.9427
 3388TIP3   OH231654   0.515   2.619   5.977 -0.5439  0.0910 -0.2292
 3388TIP3    H131655   0.476   2.704   5.999 -0.1173  0.1031  0.5116
 3388TIP3    H231656   0.582   2.606   6.044  0.0479 -0.3866 -0.9043
 3389TIP3   OH231657   6.121   0.269  11.500 -0.1997 -0.1185 -0.7722
 3389TIP3    H131658   6.186   0.292  11.433 -0.2393  2.7338  0.0173
 3389TIP3    H231659   6.160   0.299  11.582 -1.4175 -0.8202  0.0857
 3390TIP3   OH231660   3.027   3.147  10.614 -0.2959  0.1628  0.4783
 3390TIP3    H131661   2.969   3.188  10.678 -1.6303  0.8997 -1.1195
 3390TIP3    H231662   3.033   3.211  10.543 -0.0617 -1.2082 -0.7882
 3391TIP3   OH231663   2.643   5.350   2.997  0.0146 -0.1039 -0.0522
 3391TIP3    H131664   2.640   5.277   3.060 -1.0198  1.2945  1.6127
 3391TIP3    H231665   2.715   5.404   3.028 -0.9559  0.9654  0.3930
 3392TIP3   OH231666   5.017   3.892  12.679  1.1163 -0.7620 -0.4003
 3392TIP3    H131667   5.113   3.890  12.681  1.1287 -0.2699  1.0254
 3392TIP3    H231668   4.995   3.942  12.600  2.0502 -0.5141 -0.5162
 3393TIP3   OH231669   4.971   5.025  11.295 -0.1719  0.2838  0.1151
 3393TIP3    H131670   5.032   5.061  11.231  0.5226  1.0415  1.1745
 3393TIP3    H231671   5.026   4.973  11.353 -0.4070  1.5331  1.4927
 3394TIP3   OH231672   0.756   1.129   4.700 -0.2354 -0.2384 -0.7263
 3394TIP3    H131673   0.738   1.096   4.612  0.4055  0.9419 -1.3279
 3394TIP3    H231674   0.670   1.149   4.735 -0.4115  1.5399 -2.0273
 3395TIP3   OH231675   1.850   2.540  16.045  0.6848  0.3739  0.1079
 3395TIP3    H131676   1.844   2.517  16.138  0.9291 -0.1707 -0.0091
 3395TIP3    H231677   1.941   2.565  16.032  0.5971  0.6741  0.0637
 3396TIP3   OH231678   0.807   1.003   4.032  0.4066  0.3493  0.1313
 3396TIP3    H131679   0.818   0.938   4.101  2.2517 -0.1195 -0.5624
 3396TIP3    H231680   0.750   0.960   3.968  0.1328  0.1246  0.5176
 3397TIP3   OH231681   1.463   5.636  14.795 -0.0867 -0.0537  0.0005
 3397TIP3    H131682   1.516   5.562  14.823 -1.7543 -1.3306 -0.0231
 3397TIP3    H231683   1.405   5.654  14.869 -2.0875 -1.1220 -1.2219
 3398TIP3   OH231684   4.693   5.423   1.433 -0.2521 -0.2521  0.8493
 3398TIP3    H131685   4.701   5.333   1.402  0.0016 -0.3283  1.1239
 3398TIP3    H231686   4.672   5.474   1.355  0.4699 -0.4232  0.5340
 3399TIP3   OH231687   3.104   5.102  15.214  0.0463  0.5767 -0.2209
 3399TIP3    H131688   3.124   5.121  15.306  1.2893  0.2760 -0.4140
 3399TIP3    H231689   3.179   5.051  15.184 -1.5215 -1.5414 -0.7031
 3400TIP3   OH231690   4.890   1.755  13.252  0.5578  0.1613 -0.0729
 3400TIP3    H131691   4.900   1.675  13.305  0.2172  0.0857 -0.1216
 3400TIP3    H231692   4.893   1.826  13.316 -1.0136  0.0131  0.1961
 3401TIP3   OH231693   0.528   1.167   0.147 -0.2350 -0.0144  0.2559
 3401TIP3    H131694   0.606   1.197   0.193  0.0426 -0.1240 -0.1430
 3401TIP3    H231695   0.505   1.239   0.089 -0.0082 -0.2680 -0.1512
 3402TIP3   OH231696   2.935   0.908   5.628 -0.1372 -0.4103 -0.3558
 3402TIP3    H131697   3.020   0.879   5.664  0.1570  0.2376 -0.5129
 3402TIP3    H231698   2.958   0.980   5.570 -0.6927 -0.9365 -1.2537
 3403TIP3   OH231699   4.766   4.555  15.349  0.1762 -0.0364 -0.2215
 3403TIP3    H131700   4.689   4.504  15.375  0.8152 -1.3825 -0.8545
 3403TIP3    H231701   4.792   4.601  15.428 -0.6075 -0.4748  0.3048
 3404TIP3   OH231702   1.119   5.808  13.498  0.2482 -0.1262  0.1555
 3404TIP3    H131703   1.156   5.772  13.418 -0.7125  0.5680 -0.6153
 3404TIP3    H231704   1.081   5.732  13.543 -1.3237 -0.2012 -1.2223
 3405TIP3   OH231705   0.010   3.449   5.433  0.3752  0.3389 -0.5189
 3405TIP3    H131706   0.032   3.383   5.498  0.5037  0.3756 -0.5250
 3405TIP3    H231707  -0.025   3.522   5.484 -0.6357 -0.0868 -0.5802
 3406TIP3   OH231708   3.994   1.369   4.345 -0.0573 -0.1116  0.1324
 3406TIP3    H131709   3.988   1.334   4.256 -0.5163  2.1035 -0.7907
 3406TIP3    H231710   4.074   1.330   4.381  0.8575 -0.0918 -1.7443
 3407TIP3   OH231711   1.697   5.090  11.541 -0.3723 -0.1294  0.5594
 3407TIP3    H131712   1.700   5.119  11.633  3.0903 -0.0427  0.5799
 3407TIP3    H231713   1.653   5.005  11.544  1.6401 -1.2249  2.7671
 3408TIP3   OH231714   4.700   3.447  10.582  0.1428  0.3942 -0.1649
 3408TIP3    H131715   4.635   3.431  10.649  1.7092 -1.2428  1.0831
 3408TIP3    H231716   4.685   3.537  10.554 -4.4113 -0.6628 -2.0168
 3409TIP3   OH231717   1.897   5.738  11.971  0.3590 -0.4925  0.0303
 3409TIP3    H131718   1.877   5.831  11.981 -0.0848 -0.5878  0.0518
 3409TIP3    H231719   1.836   5.707  11.903  0.1951 -0.8640  0.3417
 3410TIP3   OH231720   2.864   0.203  15.084 -0.4777 -0.0276  0.1350
 3410TIP3    H131721   2.811   0.205  15.164  0.0518 -0.1275  0.4965
 3410TIP3    H231722   2.954   0.204  15.116 -0.2613 -0.6513 -0.4501
 3411TIP3   OH231723   3.253   2.632   3.968  0.6823  0.3829 -0.3026
 3411TIP3    H131724   3.244   2.536   3.971  2.0867  0.2320 -0.1521
 3411TIP3    H231725   3.205   2.663   4.044  1.4510 -0.3292  0.4989
 3412TIP3   OH231726   3.900   3.816  11.715  0.4125  0.0211  0.1674
 3412TIP3    H131727   3.899   3.823  11.811  3.1509 -1.2800  0.3941
 3412TIP3    H231728   3.951   3.892  11.687 -0.2700  0.3221 -0.2869
 3413TIP3   OH231729   6.026   5.787   4.530  0.3480  0.1444 -0.1692
 3413TIP3    H131730   6.054   5.868   4.487 -0.7604  1.5810  1.6423
 3413TIP3    H231731   6.023   5.722   4.460  0.3257  1.9003 -1.8894
 3414TIP3   OH231732   1.731   0.617   1.176  0.0824  0.0611 -0.2158
 3414TIP3    H131733   1.709   0.524   1.180  0.6321 -0.0547  0.3857
 3414TIP3    H231734   1.651   0.659   1.144 -1.0646 -0.3384  1.9141
 3415TIP3   OH231735   0.710   1.559  13.109  0.1591  0.2775 -0.1978
 3415TIP3    H131736   0.776   1.578  13.042  0.2708 -1.2271 -0.5570
 3415TIP3    H231737   0.630   1.542  13.059 -0.2646  1.1437  0.1803
 3416TIP3   OH231738   4.405   6.351  15.913  0.0460 -0.3679  0.0902
 3416TIP3    H131739   4.359   6.288  15.858 -0.5870  1.1089 -1.1429
 3416TIP3    H231740   4.336   6.390  15.967  0.4493 -0.7985  0.9282
 3417TIP3   OH231741   3.861   2.105   1.152 -0.1505 -0.0853 -0.3373
 3417TIP3    H131742   3.815   2.181   1.116 -0.8696 -0.8024 -0.9837
 3417TIP3    H231743   3.793   2.037   1.159  0.4292 -0.5988  0.4445
 3418TIP3   OH231744   6.369   2.807  13.996  0.1717 -0.4509 -0.0922
 3418TIP3    H131745   6.414   2.722  13.989 -0.3816 -0.6889 -0.9078
 3418TIP3    H231746   6.376   2.845  13.908 -0.1305  0.0706  0.1086
 3419TIP3   OH231747   3.799   4.971   4.670  0.2780 -0.1282 -0.6803
 3419TIP3    H131748   3.813   4.923   4.589 -1.1160 -2.3971  0.3300
 3419TIP3    H231749   3.734   4.919   4.718  0.4434  1.5633  1.5419
 3420TIP3   OH231750   5.903   4.674   0.176 -0.0679 -0.4878  0.3342
 3420TIP3    H131751   5.935   4.711   0.259  0.8160 -0.6419  0.0699
 3420TIP3    H231752   5.923   4.581   0.182 -0.9814 -0.6956  0.3829
 3421TIP3   OH231753   2.699   3.474   0.213  0.6128 -0.1829  0.6896
 3421TIP3    H131754   2.618   3.424   0.208 -0.8908  2.1759 -0.5699
 3421TIP3    H231755   2.710   3.511   0.125  0.7285  2.8910  1.8576
 3422TIP3   OH231756   6.509   3.785  14.029  0.0623 -0.2069 -0.1915
 3422TIP3    H131757   6.490   3.802  13.937  2.1707 -1.9965 -1.0553
 3422TIP3    H231758   6.470   3.700  14.048  2.4279 -1.4661 -0.5177
 3423TIP3   OH231759   0.815   6.424  12.058 -0.7147  0.1723  0.4637
 3423TIP3    H131760   0.888   6.480  12.033 -1.4161  0.9283  0.0331
 3423TIP3    H231761   0.855   6.345  12.094  0.2979  0.6653  0.4302
 3424TIP3   OH231762   6.085   5.411  14.166 -0.1490 -0.0968 -0.2169
 3424TIP3    H131763   6.177   5.385  14.177 -0.3785 -0.6271  0.5291
 3424TIP3    H231764   6.050   5.413  14.255 -0.3233  2.1710 -0.2837
 3425TIP3   OH231765   0.509   0.882  16.165  0.6522  0.1385 -0.3279
 3425TIP3    H131766   0.601   0.860  16.183  0.3195 -0.8081  0.2986
 3425TIP3    H231767   0.507   0.977  16.162  1.3250  0.2543  1.5590
 3426TIP3   OH231768   6.679   5.260  11.488  0.2191  0.4410  0.3152
 3426TIP3    H131769   6.633   5.336  11.525 -0.7111  0.1421 -0.1803
 3426TIP3    H231770   6.632   5.242  11.406  0.2866 -0.8003  0.5278
 3427TIP3   OH231771   0.924   4.828  12.212  0.0973 -0.2176  0.6486
 3427TIP3    H131772   1.012   4.863  12.197 -0.2733  0.7517  0.6781
 3427TIP3    H231773   0.876   4.899  12.253 -1.1754 -0.1601 -0.8380
 3428TIP3   OH231774   2.128   1.609  13.899  0.6721  0.8224  0.3916
 3428TIP3    H131775   2.088   1.541  13.844 -0.1364  3.3526 -2.4159
 3428TIP3    H231776   2.144   1.565  13.983 -4.4614 -1.5168  0.5550
 3429TIP3   OH231777   5.403   5.048  14.058  0.2639  0.1527  0.0114
 3429TIP3    H131778   5.389   5.062  13.965  1.0961  0.0758 -0.1331
 3429TIP3    H231779   5.487   5.003  14.063 -0.1489 -0.5525  0.7540
 3430TIP3   OH231780   2.870   2.759   5.455  0.1288  0.1862  0.2167
 3430TIP3    H131781   2.924   2.827   5.495 -0.6718  1.3452 -0.6230
 3430TIP3    H231782   2.881   2.772   5.361 -1.5392  0.4172  0.0210
 3431TIP3   OH231783   4.770   3.286  13.209 -0.5809  0.2849 -0.1445
 3431TIP3    H131784   4.818   3.210  13.240  0.7380  1.8835  2.0796
 3431TIP3    H231785   4.678   3.261  13.217 -0.1931 -0.8468  1.2349
 3432TIP3   OH231786   3.535   5.567  14.689 -0.2980 -0.4673  0.0575
 3432TIP3    H131787   3.559   5.489  14.739  1.7468 -0.2964 -0.5525
 3432TIP3    H231788   3.501   5.628  14.755  1.1835 -0.6988  1.0872
 3433TIP3   OH231789   5.350   0.424   3.387  0.1501  0.1494  0.2629
 3433TIP3    H131790   5.268   0.454   3.348  0.3873 -0.1273 -0.4499
 3433TIP3    H231791   5.377   0.350   3.333  0.7271  0.0608  0.6642
 3434TIP3   OH231792   0.931   1.845   0.249 -0.2016 -0.0327  0.0959
 3434TIP3    H131793   0.879   1.847   0.330 -0.4068 -1.4588  0.0217
 3434TIP3    H231794   1.006   1.902   0.267  0.3450 -1.1808  1.7322
 3435TIP3   OH231795   6.188   5.235  12.835 -0.0165  0.2427 -0.7260
 3435TIP3    H131796   6.258   5.182  12.796  0.1717  0.0951 -0.1959
 3435TIP3    H231797   6.184   5.207  12.926 -2.2116 -1.2609 -1.2267
 3436TIP3   OH231798   4.127   5.036   5.656  0.2354 -0.9315 -0.4589
 3436TIP3    H131799   4.093   5.004   5.739  0.7611 -0.5236 -0.0848
 3436TIP3    H231800   4.064   5.005   5.591 -1.1466  0.2585  0.2560
 3437TIP3   OH231801   1.057   0.973   2.383  0.5087  0.0422 -0.3759
 3437TIP3    H131802   1.109   0.900   2.416  1.1557  0.7058  0.1110
 3437TIP3    H231803   1.085   0.984   2.292 -1.1201 -1.6501 -1.1498
 3438TIP3   OH231804   2.831   0.283  11.231  0.7150  0.0012  0.1182
 3438TIP3    H131805   2.741   0.262  11.259  0.5959 -0.8736 -0.8364
 3438TIP3    H231806   2.854   0.361  11.281 -1.1694  1.1970 -0.7326
 3439TIP3   OH231807   4.819   1.000   3.536 -0.0313  0.4403 -0.2737
 3439TIP3    H131808   4.792   1.048   3.458 -1.4344 -2.9158 -2.0819
 3439TIP3    H231809   4.737   0.981   3.582  0.2524 -1.4153 -0.4574
 3440TIP3   OH231810   2.910   6.009  13.699  0.0073 -0.5350 -0.3775
 3440TIP3    H131811   2.970   6.070  13.657  0.7887 -1.2672 -0.3587
 3440TIP3    H231812   2.895   5.941  13.634 -0.7066 -0.4181 -0.3355
 3441TIP3   OH231813   1.696   2.516   5.367  0.1655  0.5205  0.4301
 3441TIP3    H131814   1.630   2.563   5.419 -0.5559  0.5499 -0.4963
 3441TIP3    H231815   1.675   2.423   5.380 -0.6526  0.5436 -0.5875
 3442TIP3   OH231816   2.781   1.699   4.074 -0.1038  0.0825 -1.0070
 3442TIP3    H131817   2.847   1.629   4.069  0.5332  0.6635 -0.8576
 3442TIP3    H231818   2.733   1.691   3.991  0.8060  0.2762 -1.5701
 3443TIP3   OH231819   6.124   4.806   4.144  0.2288 -0.1705 -0.2840
 3443TIP3    H131820   6.176   4.875   4.187  0.1724 -0.2872 -0.0231
 3443TIP3    H231821   6.065   4.853   4.085 -1.6961  0.2461  1.8292
 3444TIP3   OH231822   5.490   2.952  11.796  0.3608 -0.0219  0.1395
 3444TIP3    H131823   5.452   2.888  11.856 -0.2550  1.9451  1.9507
 3444TIP3    H231824   5.577   2.917  11.776 -0.0282 -1.4965  0.9070
 3445TIP3   OH231825   2.998   3.427   3.475 -0.2789 -0.5462 -0.3054
 3445TIP3    H131826   3.048   3.403   3.552  1.6161  0.3608 -1.1866
 3445TIP3    H231827   3.002   3.351   3.418 -2.1127 -1.4117  0.6173
 3446TIP3   OH231828   5.587   2.063  13.078 -0.6209  0.3706  0.3666
 3446TIP3    H131829   5.619   1.987  13.031 -0.5969  0.0026  0.9792
 3446TIP3    H231830   5.567   2.127  13.009  1.5558  0.6842 -0.0174
 3447TIP3   OH231831   5.320   4.479   0.520  0.4297  0.2716  0.1608
 3447TIP3    H131832   5.278   4.496   0.604 -1.9384  0.9953 -1.0844
 3447TIP3    H231833   5.269   4.409   0.480  0.2439  1.2657 -1.4732
 3448TIP3   OH231834   3.220   0.442   0.187 -0.1752  0.6430  0.6670
 3448TIP3    H131835   3.180   0.472   0.105 -1.6989 -0.7578  0.8332
 3448TIP3    H231836   3.313   0.466   0.179 -0.1907  0.1701 -1.6678
 3449TIP3   OH231837   3.060   2.522   1.258 -0.2326  0.1769  0.4944
 3449TIP3    H131838   3.037   2.523   1.350 -0.7536  0.6433  0.3650
 3449TIP3    H231839   3.059   2.614   1.232  0.7578  0.1251  0.2282
 3450TIP3   OH231840   2.058   2.294  14.333 -0.3391 -0.3995 -0.4197
 3450TIP3    H131841   2.017   2.355  14.272 -0.0826  1.1064  0.8431
 3450TIP3    H231842   1.997   2.290  14.407  1.4451  1.4942  1.2776
 3451TIP3   OH231843   2.060   0.868  13.945  0.3150 -0.7097 -0.3236
 3451TIP3    H131844   2.105   0.939  13.899  0.8602 -2.0142 -1.8888
 3451TIP3    H231845   1.992   0.840  13.885 -1.2351 -0.2027  1.1395
 3452TIP3   OH231846   1.479   5.955  13.643  0.0936 -0.0334  0.0008
 3452TIP3    H131847   1.528   6.033  13.618 -0.4584 -0.2030 -1.7271
 3452TIP3    H231848   1.485   5.897  13.567 -0.8121 -1.0253  0.6563
 3453TIP3   OH231849   1.229   0.852   1.992 -0.2100  0.2001 -0.3664
 3453TIP3    H131850   1.220   0.774   1.936  1.7289  0.8563 -1.7015
 3453TIP3    H231851   1.316   0.844   2.030 -0.6985  0.8442  0.9468
 3454TIP3   OH231852   1.880   5.821  11.160 -0.5921  0.1022 -0.4702
 3454TIP3    H131853   1.877   5.914  11.183 -0.1943  0.2751 -1.0943
 3454TIP3    H231854   1.934   5.781  11.228 -3.4527 -0.2931  1.7632
 3455TIP3   OH231855   5.982   4.479   5.368  0.3559  0.1226  0.0464
 3455TIP3    H131856   5.993   4.574   5.368 -1.3737  0.3553  0.6917
 3455TIP3    H231857   6.051   4.447   5.426  1.4459  0.8955 -0.7776
 3456TIP3   OH231858   2.591   2.366   3.291  0.4279  0.1851 -0.1742
 3456TIP3    H131859   2.548   2.347   3.207 -0.0660 -0.7368  0.2707
 3456TIP3    H231860   2.679   2.394   3.267  0.0371  0.7270 -1.0407
 3457TIP3   OH231861   6.585   5.189  15.122  0.0007  0.8081 -0.6409
 3457TIP3    H131862   6.548   5.118  15.070 -1.6328  1.0789  0.0560
 3457TIP3    H231863   6.587   5.264  15.063 -1.2087  0.9455 -0.5295
 3458TIP3   OH231864   5.741   2.049  12.701 -0.0975  0.2838 -0.3042
 3458TIP3    H131865   5.747   1.980  12.635 -0.5089  0.3342 -0.4027
 3458TIP3    H231866   5.647   2.053  12.721  0.1001 -0.2112  0.7956
 3459TIP3   OH231867   2.811   3.258  15.595  0.2388 -0.2359 -0.0228
 3459TIP3    H131868   2.807   3.307  15.677  0.4646  1.4012 -0.9553
 3459TIP3    H231869   2.787   3.322  15.527 -0.9898 -1.8073 -1.1521
 3460TIP3   OH231870   2.029   3.612   6.025 -0.4549  0.0466 -0.0994
 3460TIP3    H131871   2.104   3.667   6.048  0.4923 -1.2573  0.0854
 3460TIP3    H231872   1.993   3.585   6.110 -0.9475  0.4031 -0.1893
 3461TIP3   OH231873   1.573   3.313   1.233 -0.1583 -0.4659 -0.6246
 3461TIP3    H131874   1.485   3.326   1.268 -0.7306 -2.0988 -1.3248
 3461TIP3    H231875   1.631   3.323   1.308 -1.4368 -5.7888  1.5253
 3462TIP3   OH231876   4.118   1.903  14.068 -0.6064 -0.2756 -0.0520
 3462TIP3    H131877   4.196   1.937  14.024  0.0687  0.3251  1.5334
 3462TIP3    H231878   4.101   1.966  14.138 -2.2076 -0.6949 -0.0368
 3463TIP3   OH231879   3.658   3.540   3.220  0.4121  0.0822 -0.2091
 3463TIP3    H131880   3.651   3.539   3.315  0.4565  0.2791 -0.2025
 3463TIP3    H231881   3.569   3.526   3.188  0.1743  1.2969 -0.1362
 3464TIP3   OH231882   6.807   0.312  11.806  0.1420  0.3363 -0.0194
 3464TIP3    H131883   6.882   0.348  11.853  0.8326  1.4822 -1.8851
 3464TIP3    H231884   6.846   0.259  11.736 -0.8516 -1.3418  0.6209
 3465TIP3   OH231885   0.101   0.783  12.591 -0.3603 -0.1475 -0.1287
 3465TIP3    H131886   0.082   0.855  12.651  1.4808  0.9671 -0.8088
 3465TIP3    H231887   0.017   0.737  12.582 -2.0025  2.7419 -0.7918
 3466TIP3   OH231888   3.550   2.065   1.454 -0.2054  0.2392 -0.7521
 3466TIP3    H131889   3.575   2.026   1.370 -2.1226  1.0846 -1.7742
 3466TIP3    H231890   3.456   2.046   1.462  0.0873 -0.5628  1.6427
 3467TIP3   OH231891   0.640   0.028   6.094  0.1852 -0.0462 -0.3950
 3467TIP3    H131892   0.561   0.055   6.047  0.4050  0.6878 -0.3537
 3467TIP3    H231893   0.628  -0.066   6.108 -1.0305  0.1815  0.2684
 3468TIP3   OH231894   2.303   1.844  13.439 -0.6040  0.3597 -0.6107
 3468TIP3    H131895   2.379   1.858  13.382 -0.2062  0.1044 -0.1577
 3468TIP3    H231896   2.329   1.884  13.522 -1.9661  2.5972 -1.1619
 3469TIP3   OH231897   5.479   6.601  15.533 -0.2111 -0.4339  0.0951
 3469TIP3    H131898   5.485   6.692  15.562 -0.3330  0.1434 -1.6030
 3469TIP3    H231899   5.489   6.550  15.613 -0.4830  1.0722  1.1334
 3470TIP3   OH231900   4.163   0.857  12.018 -0.2090  0.2041 -0.3258
 3470TIP3    H131901   4.122   0.871  11.933 -0.8233 -1.0058 -0.2688
 3470TIP3    H231902   4.138   0.933  12.070 -2.4788 -0.4700 -0.3013
 3471TIP3   OH231903   4.009   4.917   5.866  0.3073  0.6790  0.0091
 3471TIP3    H131904   4.012   4.932   5.960 -0.1572  2.7305 -0.2492
 3471TIP3    H231905   3.916   4.916   5.844  0.4166  0.4042 -0.4526
 3472TIP3   OH231906   5.360   3.992  15.397  0.6437  0.7688 -0.2592
 3472TIP3    H131907   5.269   3.977  15.422  0.8638 -0.7673 -0.2744
 3472TIP3    H231908   5.362   4.082  15.364 -0.4493  1.5097  1.5827
 3473TIP3   OH231909   0.372   2.786  10.508 -0.5509 -0.4276  0.0528
 3473TIP3    H131910   0.324   2.818  10.585 -0.0793 -0.4021  0.3377
 3473TIP3    H231911   0.416   2.864  10.473 -0.8814 -0.4107 -0.3307
 3474TIP3   OH231912   0.192   4.623  15.638 -0.1681 -0.0115  0.0467
 3474TIP3    H131913   0.143   4.545  15.664 -1.1830  0.6847  0.2663
 3474TIP3    H231914   0.253   4.638  15.711 -0.5668 -0.1033  0.4025
 3475TIP3   OH231915   4.395   2.210   1.920  0.2699 -0.1159 -0.7189
 3475TIP3    H131916   4.463   2.155   1.960 -1.3520 -0.5416  1.6832
 3475TIP3    H231917   4.430   2.233   1.834  3.1693 -0.8008  0.1696
 3476TIP3   OH231918   5.466   6.093  15.723  1.1092  0.0548  0.0537
 3476TIP3    H131919   5.533   6.045  15.771  0.9664  1.6608  2.0156
 3476TIP3    H231920   5.423   6.027  15.669  1.6715 -1.7843  1.7333
 3477TIP3   OH231921   0.183   5.645  16.892 -0.3445  0.0813 -0.3256
 3477TIP3    H131922   0.124   5.689  16.832 -1.8645 -1.4825 -0.0495
 3477TIP3    H231923   0.182   5.699  16.971  2.6007  2.8276 -1.9251
 3478TIP3   OH231924   0.670   1.641   4.762 -0.4396  0.0619 -0.4229
 3478TIP3    H131925   0.637   1.695   4.834 -1.8558  1.3494 -1.9471
 3478TIP3    H231926   0.611   1.660   4.689 -1.2932 -3.8689 -0.9808
 3479TIP3   OH231927   4.549   0.987   3.974 -0.2270 -0.0377 -0.4043
 3479TIP3    H131928   4.595   0.921   4.026  0.4202 -0.3054 -1.2949
 3479TIP3    H231929   4.567   1.069   4.020  1.5870 -0.0638 -0.9788
 3480TIP3   OH231930   3.765   0.333  11.704 -0.4495 -0.1700 -0.0547
 3480TIP3    H131931   3.678   0.364  11.678 -0.8828 -1.0082  0.3612
 3480TIP3    H231932   3.766   0.241  11.678 -0.1424 -0.4898  1.0616
 3481TIP3   OH231933   2.940   5.430   2.847 -0.1804  0.6567  0.5104
 3481TIP3    H131934   2.958   5.421   2.753 -2.7664  1.3178 -0.1347
 3481TIP3    H231935   2.945   5.341   2.882  0.8724  0.4131 -0.2201
 3482TIP3   OH231936   2.938   2.284   3.074 -0.2757  0.3536  0.0013
 3482TIP3    H131937   2.975   2.203   3.110 -0.4699  0.2667  0.0106
 3482TIP3    H231938   2.977   2.354   3.126 -0.4734  0.2353  0.3097
 3483TIP3   OH231939   5.589   5.566   5.178  0.2863 -0.0794  0.0499
 3483TIP3    H131940   5.667   5.594   5.130  0.2402 -0.4311 -0.2289
 3483TIP3    H231941   5.527   5.540   5.111 -0.7184  1.7850  0.1758
 3484TIP3   OH231942   3.465   4.802   1.677 -0.4009  0.1313 -0.0936
 3484TIP3    H131943   3.467   4.718   1.722  2.4018 -0.4399 -1.0947
 3484TIP3    H231944   3.501   4.783   1.590 -0.1765  2.2676 -0.5128
 3485TIP3   OH231945   0.712   2.476   2.631 -0.1729 -0.0152  0.2169
 3485TIP3    H131946   0.689   2.384   2.617 -1.5563  0.4894 -1.1584
 3485TIP3    H231947   0.747   2.505   2.547 -0.4398  0.8878  0.4029
 3486TIP3   OH231948   4.848   2.114   4.287 -0.2353 -0.4812  1.1230
 3486TIP3    H131949   4.796   2.135   4.364 -0.9414  0.7338  0.3450
 3486TIP3    H231950   4.786   2.117   4.214  0.3733 -1.8224  0.5101
 3487TIP3   OH231951   6.827   5.256   2.648 -0.7048 -0.0793 -0.3058
 3487TIP3    H131952   6.758   5.285   2.708 -2.2071 -1.2697 -1.3746
 3487TIP3    H231953   6.861   5.336   2.610 -0.7194  0.6004  1.0594
 3488TIP3   OH231954   0.603   5.475  16.641  0.3198 -0.5715  0.6521
 3488TIP3    H131955   0.535   5.412  16.617  1.0215 -1.0697 -0.0964
 3488TIP3    H231956   0.562   5.532  16.706 -1.3869  0.2474 -1.0640
 3489TIP3   OH231957   4.358   0.957   0.972 -0.3112 -0.1140  0.0225
 3489TIP3    H131958   4.357   1.012   0.894  1.7524  0.7536  0.5419
 3489TIP3    H231959   4.265   0.945   0.994 -0.8775  1.4606 -1.2717
 3490TIP3   OH231960   6.458   6.597  16.847 -0.1999 -0.6771 -0.0883
 3490TIP3    H131961   6.436   6.667  16.908  0.0361 -0.2281 -0.5091
 3490TIP3    H231962   6.532   6.552  16.888  0.2442 -0.1029 -0.2372
 3491TIP3   OH231963   3.759   1.337   5.747  0.1536  0.6158  0.7292
 3491TIP3    H131964   3.726   1.425   5.727 -1.8967  0.1020  1.5590
 3491TIP3    H231965   3.769   1.295   5.662 -4.0536 -0.0446  0.3665
 3492TIP3   OH231966   5.721   1.328   1.149  0.4763  0.4730  0.0011
 3492TIP3    H131967   5.705   1.422   1.164 -0.3141  0.0941  1.6930
 3492TIP3    H231968   5.809   1.313   1.181 -0.2392  0.2052  1.9529
 3493TIP3   OH231969   4.837   3.298   1.163 -0.0702 -0.2361 -0.1213
 3493TIP3    H131970   4.927   3.290   1.194 -0.2312  0.7515  0.6603
 3493TIP3    H231971   4.842   3.358   1.089 -0.1013 -0.0483  0.0273
 3494TIP3   OH231972   4.161   2.622  12.273  0.0603  0.0875 -0.4750
 3494TIP3    H131973   4.186   2.532  12.292  1.6593  0.6402  0.3130
 3494TIP3    H231974   4.079   2.636  12.320  0.4035 -0.6246  0.3533
 3495TIP3   OH231975   3.062   0.898   2.930 -0.5246  0.5986  0.2331
 3495TIP3    H131976   3.100   0.910   3.016  0.8854 -1.0130 -0.1096
 3495TIP3    H231977   2.970   0.878   2.946  0.0708 -1.4011  1.5265
 3496TIP3   OH231978   6.788   4.603   1.587  0.1142 -0.3071  0.1933
 3496TIP3    H131979   6.727   4.553   1.533 -0.8022 -0.1294  1.0385
 3496TIP3    H231980   6.855   4.634   1.526 -1.0182  0.0754 -0.8820
 3497TIP3   OH231981   5.811   1.637  12.296  0.5811 -0.3987 -0.1369
 3497TIP3    H131982   5.879   1.583  12.257  2.5180  1.6746  0.1503
 3497TIP3    H231983   5.747   1.574  12.330  0.3445 -2.3646 -3.7109
 3498TIP3   OH231984   6.532   3.759  15.035 -0.5012 -0.1530 -0.0042
 3498TIP3    H131985   6.606   3.703  15.014  1.4517  3.1967 -3.2485
 3498TIP3    H231986   6.466   3.736  14.969 -0.1731  0.4606 -0.5596
 3499TIP3   OH231987   3.480   1.003   1.619 -0.5964  0.3505 -0.4521
 3499TIP3    H131988   3.385   1.001   1.631 -0.3216  0.1859  2.3788
 3499TIP3    H231989   3.494   1.072   1.554 -2.5768  1.5511  0.2891
 3500TIP3   OH231990   1.620   4.504  10.773 -0.3437 -0.1151 -0.7489
 3500TIP3    H131991   1.646   4.500  10.681 -3.3550  0.2834 -1.7518
 3500TIP3    H231992   1.657   4.425  10.812  2.9998  0.8466 -1.6220
 3501TIP3   OH231993   1.094   4.887   4.318  0.0529 -0.7624 -0.6013
 3501TIP3    H131994   1.012   4.838   4.319  0.0833 -0.8862 -2.0627
 3501TIP3    H231995   1.161   4.821   4.304  0.4241 -0.6513  0.5265
 3502TIP3   OH231996   5.133   6.162   3.894 -0.1311 -0.1000 -0.2886
 3502TIP3    H131997   5.157   6.182   3.804 -0.7157 -1.1732 -0.7067
 3502TIP3    H231998   5.085   6.079   3.888 -2.8048  1.2520  0.6429
 3503TIP3   OH231999   1.014   5.347  16.595 -0.4312  0.0972  0.1112
 3503TIP3    H132000   0.942   5.327  16.535 -0.2541  1.2759 -0.5352
 3503TIP3    H232001   0.972   5.366  16.678 -0.8084  0.0238 -0.0609
 3504TIP3   OH232002   4.223   6.676   1.918  0.3374 -0.8139 -0.2337
 3504TIP3    H132003   4.214   6.769   1.937 -0.3535 -1.0767  0.8104
 3504TIP3    H232004   4.165   6.660   1.843  3.2695  0.2829 -2.9693
 3505TIP3   OH232005   6.346   2.833  15.005  0.4315  0.0970  0.2320
 3505TIP3    H132006   6.305   2.771  15.065  0.0058  0.7244  0.5990
 3505TIP3    H232007   6.308   2.810  14.919  2.1649 -1.7889 -0.1142
 3506TIP3   OH232008   6.741   6.505  12.626  0.1913  0.1288 -0.3019
 3506TIP3    H132009   6.693   6.585  12.648 -0.0565 -0.4037  1.2355
 3506TIP3    H232010   6.755   6.510  12.531 -2.0938  0.7391 -0.6583
 3507TIP3   OH232011   2.944   2.927  12.826 -0.1932 -0.1570  0.2472
 3507TIP3    H132012   3.014   2.991  12.838 -0.1085 -0.0754 -0.6785
 3507TIP3    H232013   2.986   2.852  12.784 -0.8316  0.2621 -1.1941
 3508TIP3   OH232014   2.027   6.726  14.512 -0.2529  0.4431  0.2812
 3508TIP3    H132015   1.947   6.744  14.562 -0.5808  0.9883 -0.4359
 3508TIP3    H232016   1.999   6.664  14.444 -0.0558  0.6178  0.0432
 3509TIP3   OH232017   2.862   4.361  16.513  0.0432  0.1589  0.3652
 3509TIP3    H132018   2.844   4.436  16.457 -0.1922 -0.0492  0.1570
 3509TIP3    H232019   2.953   4.372  16.540  0.2310  0.1484 -0.2421
 3510TIP3   OH232020   1.614   2.793  11.200 -0.3300  0.1243  0.0453
 3510TIP3    H132021   1.674   2.726  11.168  0.3075 -0.0076  1.4400
 3510TIP3    H232022   1.668   2.851  11.254 -1.4854 -0.2547  1.7245
 3511TIP3   OH232023   3.931   1.693  12.476 -0.2483 -0.1528 -0.4191
 3511TIP3    H132024   3.956   1.601  12.486 -0.8829 -0.1578  1.5591
 3511TIP3    H232025   3.844   1.690  12.438 -0.1349 -0.3547 -0.6663
 3512TIP3   OH232026   0.972   5.133   1.633  0.4229  0.0612 -0.0246
 3512TIP3    H132027   0.971   5.110   1.540  1.7848  0.6942 -0.2303
 3512TIP3    H232028   0.942   5.224   1.636 -0.2526 -0.1671  0.2326
 3513TIP3   OH232029   4.976   3.329   5.150  0.3347 -0.1647 -0.1718
 3513TIP3    H132030   4.950   3.395   5.215  1.1362  1.1935 -1.1772
 3513TIP3    H232031   4.907   3.330   5.085 -0.0316 -0.8938  0.1948
 3514TIP3   OH232032   6.403   4.320   3.857  0.1072  0.8977  0.0368
 3514TIP3    H132033   6.427   4.295   3.767  0.7214 -2.2552  0.9502
 3514TIP3    H232034   6.355   4.245   3.890  0.0034  1.9382  2.4012
 3515TIP3   OH232035   1.888   1.006  11.367  0.6064 -0.1608  0.2678
 3515TIP3    H132036   1.933   0.928  11.333  2.4557  0.5750  0.8547
 3515TIP3    H232037   1.895   1.070  11.296  1.7373  0.3806  0.8308
 3516TIP3   OH232038   2.046   5.452   2.114 -0.4557  0.1181  0.0956
 3516TIP3    H132039   2.128   5.415   2.147 -0.6297 -0.4584 -0.1177
 3516TIP3    H232040   2.058   5.547   2.125 -0.0876  0.0013  0.8277
 3517TIP3   OH232041   0.432   4.176   1.421  0.0320  0.2918 -0.2493
 3517TIP3    H132042   0.503   4.207   1.365 -0.4260  0.9555 -0.4801
 3517TIP3    H232043   0.429   4.239   1.492  0.4159 -0.3831  0.3725
 3518TIP3   OH232044   6.396   3.897  14.467 -0.3343  0.5428  0.0812
 3518TIP3    H132045   6.365   3.925  14.381 -1.5519 -1.3215 -0.1479
 3518TIP3    H232046   6.386   3.974  14.523  0.1847  1.6871 -1.3492
 3519TIP3   OH232047   4.058   5.855   4.112 -0.5062  0.7763 -0.2031
 3519TIP3    H132048   4.013   5.815   4.186  0.4921  1.4057  0.7754
 3519TIP3    H232049   4.092   5.781   4.062 -1.2652  0.3444 -0.0854
 3520TIP3   OH232050   5.763   3.862   3.211  0.2814  0.3590 -0.6534
 3520TIP3    H132051   5.707   3.938   3.201 -1.0198 -0.4281  0.3339
 3520TIP3    H232052   5.764   3.845   3.305  1.2391 -0.3517 -0.7731
 3521TIP3   OH232053   6.293   4.064  12.467  0.2819  0.4138  0.0403
 3521TIP3    H132054   6.314   4.037  12.556  1.9438  1.4632  0.0071
 3521TIP3    H232055   6.212   4.113  12.475 -1.9541 -2.9760  0.3354
 3522TIP3   OH232056   6.792   5.458  12.919  0.3524 -0.4048 -0.4663
 3522TIP3    H132057   6.734   5.417  12.983  0.1398  0.0794 -0.3456
 3522TIP3    H232058   6.734   5.509  12.863  0.7338  0.8843  0.2543
 3523TIP3   OH232059   4.848   1.269   4.306 -0.5472  0.3104 -0.5032
 3523TIP3    H132060   4.759   1.244   4.329 -0.9446  0.0140 -2.2466
 3523TIP3    H232061   4.840   1.356   4.267 -0.0526  0.3221 -0.5906
 3524TIP3   OH232062   4.624   3.133  14.969  0.7442  0.2143  0.3817
 3524TIP3    H132063   4.670   3.115  14.887  1.7036 -0.6858  1.1003
 3524TIP3    H232064   4.579   3.051  14.989  1.5046  0.0339  1.3813
 3525TIP3   OH232065   0.224   1.674   3.468 -0.2254  0.0454  0.5354
 3525TIP3    H132066   0.263   1.620   3.400 -0.0997 -0.1316  0.7472
 3525TIP3    H232067   0.142   1.630   3.490  0.0461 -0.2534  0.9563
 3526TIP3   OH232068   1.352   1.051   3.378 -0.5374  0.2009  0.2277
 3526TIP3    H132069   1.356   1.054   3.282 -1.0207  0.2826  0.2057
 3526TIP3    H232070   1.329   1.140   3.404  0.5822  0.4238  0.4845
 3527TIP3   OH232071   2.159   2.293  13.307  0.6711 -0.0328 -0.5390
 3527TIP3    H132072   2.064   2.287  13.301  0.6063  0.6817 -0.2177
 3527TIP3    H232073   2.177   2.313  13.399  1.1296 -0.0876 -0.6127
 3528TIP3   OH232074   5.401   5.822   5.171  0.2718  0.0811 -0.2983
 3528TIP3    H132075   5.342   5.747   5.169 -1.7991  1.6303 -1.3845
 3528TIP3    H232076   5.486   5.786   5.199 -0.9777 -2.3694  0.6072
 3529TIP3   OH232077   2.031   2.596   4.813 -0.3818  0.1864 -0.0230
 3529TIP3    H132078   2.100   2.531   4.801  0.8200  1.3756  0.2643
 3529TIP3    H232079   2.046   2.660   4.743 -1.5644  0.1654 -0.3171
 3530TIP3   OH232080   1.221   2.827  13.687 -0.2666  0.5392  0.4601
 3530TIP3    H132081   1.246   2.736  13.700 -0.1541  0.3508 -0.8804
 3530TIP3    H232082   1.133   2.823  13.651 -0.1058  0.9348  0.0101
 3531TIP3   OH232083   1.378   0.139  10.998 -1.0568 -0.0253 -0.2854
 3531TIP3    H132084   1.294   0.133  11.044 -1.1332 -0.3117 -0.4588
 3531TIP3    H232085   1.358   0.113  10.909 -0.3847 -2.1979  0.1458
 3532TIP3   OH232086   1.352   6.583  12.135 -0.4659 -0.1426  0.6610
 3532TIP3    H132087   1.404   6.660  12.112  0.5227 -0.3472  2.0845
 3532TIP3    H232088   1.411   6.528  12.186 -1.3745 -1.5258  0.2765
 3533TIP3   OH232089   5.377   5.391  11.484 -0.1688 -0.3127 -0.2790
 3533TIP3    H132090   5.361   5.454  11.414 -1.6237  1.3526  1.4484
 3533TIP3    H232091   5.424   5.441  11.551 -1.9092 -0.8248  1.4013
 3534TIP3   OH232092   0.542   0.439  12.192  1.0103  0.3680 -0.4774
 3534TIP3    H132093   0.588   0.503  12.137  2.1751  0.9100  1.0532
 3534TIP3    H232094   0.512   0.489  12.268 -1.0858 -0.2410 -0.8380
 3535TIP3   OH232095   2.960   1.492   4.100 -0.2436  0.0140 -0.2179
 3535TIP3    H132096   2.962   1.499   4.195  1.5995  1.5336 -0.3036
 3535TIP3    H232097   2.955   1.397   4.083 -2.9698 -0.2094  1.3038
 3536TIP3   OH232098   0.459   3.348   0.620  0.2348  0.0101 -0.0010
 3536TIP3    H132099   0.417   3.321   0.702 -2.9316  1.1505 -1.0993
 3536TIP3    H232100   0.403   3.418   0.587  2.3340  0.7046 -2.3780
 3537TIP3   OH232101   5.636   0.612   3.127  0.1836 -0.1976  0.0495
 3537TIP3    H132102   5.632   0.521   3.099  3.4182 -1.1185  2.0673
 3537TIP3    H232103   5.658   0.660   3.047  0.8496 -1.5287 -0.6010
 3538TIP3   OH232104   5.181   5.728   1.035 -0.7057 -0.1174  0.4552
 3538TIP3    H132105   5.092   5.753   1.060  0.0745  0.0410  3.4668
 3538TIP3    H232106   5.209   5.665   1.102  0.7990 -1.7360 -1.5266
 3539TIP3   OH232107   0.282   3.698  10.850  0.2327 -0.5430 -0.4143
 3539TIP3    H132108   0.241   3.618  10.883 -0.2044 -0.2654 -0.2783
 3539TIP3    H232109   0.294   3.682  10.757 -1.9932  0.1057 -0.8749
 3540TIP3   OH232110   0.710   3.904  14.138  0.9937 -0.2085  0.7556
 3540TIP3    H132111   0.718   3.823  14.089  0.3197 -0.4838  1.0963
 3540TIP3    H232112   0.723   3.878  14.229 -0.1544 -0.0936  0.9657
 3541TIP3   OH232113   5.589   5.245   3.867  0.3733  0.0792  0.3100
 3541TIP3    H132114   5.538   5.225   3.946  0.5623  1.7573  0.9026
 3541TIP3    H232115   5.566   5.176   3.805 -1.3971 -0.0969  1.1123
 3542TIP3   OH232116   2.754   2.971   2.359  0.3267 -0.2425  0.1474
 3542TIP3    H132117   2.777   2.914   2.432  1.0440  0.2667  0.3366
 3542TIP3    H232118   2.715   2.913   2.294  2.0144 -1.1573 -0.1061
 3543TIP3   OH232119   0.623   1.010  15.846  0.6494  0.3667 -0.4622
 3543TIP3    H132120   0.675   0.946  15.895 -0.4558 -0.4615 -0.3095
 3543TIP3    H232121   0.592   1.072  15.912 -1.2903 -1.0554  0.0731
 3544TIP3   OH232122   1.583   6.632  14.349 -0.0181  0.4079 -0.2935
 3544TIP3    H132123   1.552   6.555  14.301 -0.6864 -0.5597  1.5947
 3544TIP3    H232124   1.657   6.664  14.297 -1.4760  0.2492 -2.6598
 3545TIP3   OH232125   1.452   2.861  11.723  0.2054  0.0531  0.0052
 3545TIP3    H132126   1.476   2.784  11.775 -0.4413  0.0256  0.2716
 3545TIP3    H232127   1.511   2.858  11.648  0.6058 -0.3569  0.3264
 3546TIP3   OH232128   5.067   6.597   5.947 -0.2702 -0.2160  0.3560
 3546TIP3    H132129   4.986   6.623   5.990 -1.0155 -2.4549  0.4144
 3546TIP3    H232130   5.116   6.550   6.015  1.5365  1.8105  0.5852
 3547TIP3   OH232131   5.375   0.180   0.136 -0.3206 -0.6347  0.0191
 3547TIP3    H132132   5.360   0.087   0.120 -0.8470 -0.4920 -0.3599
 3547TIP3    H232133   5.322   0.201   0.213 -1.0589 -0.4210 -0.5330
 3548TIP3   OH232134   6.136   2.299   0.934 -0.4706  0.2136  0.2096
 3548TIP3    H132135   6.230   2.296   0.954  0.0085  1.0943 -1.7149
 3548TIP3    H232136   6.113   2.392   0.941 -0.8364  0.2119 -0.7945
 3549TIP3   OH232137   6.742   6.047  14.494  0.5696  0.0852 -0.6671
 3549TIP3    H132138   6.828   6.077  14.465  1.4908 -1.8001 -0.0493
 3549TIP3    H232139   6.746   6.050  14.589 -0.6884  1.5910 -0.6281
 3550TIP3   OH232140   3.953   6.424   3.449  0.2042 -0.1932  0.7410
 3550TIP3    H132141   4.037   6.417   3.403 -0.6333 -1.1771 -0.6748
 3550TIP3    H232142   3.949   6.345   3.503 -0.8417 -1.3971 -1.0115
 3551TIP3   OH232143   3.786   5.245   1.848  0.4598  0.5960  0.4345
 3551TIP3    H132144   3.825   5.196   1.775 -0.8915 -0.3833  0.3438
 3551TIP3    H232145   3.706   5.197   1.870  0.7537  0.9519  2.4810
 3552TIP3   OH232146   4.034   2.974   3.462  0.4407 -0.1257 -0.0424
 3552TIP3    H132147   3.958   2.953   3.408  0.9149 -0.6182 -0.5302
 3552TIP3    H232148   4.028   2.915   3.537 -0.1332  0.4512  0.3780
 3553TIP3   OH232149   6.759   6.160   4.753  0.0640  0.1939  0.4310
 3553TIP3    H132150   6.714   6.151   4.837  0.5177 -0.5992  0.5966
 3553TIP3    H232151   6.823   6.089   4.752  2.5015  2.2328  0.9188
 3554TIP3   OH232152   5.917   5.788   3.201 -0.1832  0.2112 -0.1557
 3554TIP3    H132153   5.860   5.796   3.277 -0.5734 -0.8812 -0.3041
 3554TIP3    H232154   5.869   5.830   3.130 -1.0151 -1.0420 -0.3677
 3555TIP3   OH232155   4.934   5.903   1.082 -0.5244  0.0688 -0.1340
 3555TIP3    H132156   4.921   5.918   0.988  1.9175 -2.4580 -1.0131
 3555TIP3    H232157   4.998   5.969   1.108 -0.2172 -0.0357 -0.5955
 3556TIP3   OH232158   6.267   2.071   1.550  0.3405 -0.5971  0.2432
 3556TIP3    H132159   6.228   2.059   1.464  0.5780  0.4778 -0.0341
 3556TIP3    H232160   6.279   1.982   1.584 -3.0670 -1.0205  0.7036
 3557TIP3   OH232161   5.442   4.301   4.064 -0.4208  0.0208 -0.3292
 3557TIP3    H132162   5.396   4.364   4.008  0.1761 -0.2997 -1.2020
 3557TIP3    H232163   5.466   4.351   4.142 -0.0941  0.8445 -0.9437
 3558TIP3   OH232164   1.561   4.213   0.400 -0.1094  0.0684 -0.2202
 3558TIP3    H132165   1.503   4.142   0.371 -0.8100  0.6271 -0.2243
 3558TIP3    H232166   1.514   4.252   0.474  1.0841 -0.5702  0.9090
 3559TIP3   OH232167   5.118   4.556  16.708 -0.1698 -0.8722  0.4272
 3559TIP3    H132168   5.107   4.467  16.673  0.8915 -0.8923  0.1326
 3559TIP3    H232169   5.057   4.609  16.657 -0.0844 -1.2597 -0.0896
 3560TIP3   OH232170   0.632   2.952   4.395 -0.2111  0.3093 -1.0446
 3560TIP3    H132171   0.640   2.906   4.478  2.0935  0.3640 -1.1841
 3560TIP3    H232172   0.575   3.026   4.414 -1.0043 -0.5473  0.0752
 3561TIP3   OH232173   5.766   5.101   5.403  0.5901 -0.4243 -0.4556
 3561TIP3    H132174   5.683   5.149   5.393  1.0855  0.5497  0.0046
 3561TIP3    H232175   5.784   5.104   5.497  0.6572 -1.4816 -0.4326
 3562TIP3   OH232176   1.499   1.501   3.449 -0.1052 -0.1795 -0.1758
 3562TIP3    H132177   1.501   1.584   3.497 -3.6370  0.5438 -0.9375
 3562TIP3    H232178   1.554   1.442   3.500  3.2120  2.7294 -0.0032
 3563TIP3   OH232179   1.732   4.628  12.647  0.6527  0.4480  0.4469
 3563TIP3    H132180   1.767   4.588  12.568 -0.6003 -1.7969  0.9475
 3563TIP3    H232181   1.792   4.601  12.717  0.6085  0.6812  0.5789
 3564TIP3   OH232182   0.005   6.130  16.783 -0.5872 -0.8233  0.1183
 3564TIP3    H132183  -0.068   6.096  16.835 -1.2727  0.6469  0.1900
 3564TIP3    H232184  -0.030   6.137  16.694 -0.3168 -0.7686  0.0158
 3565TIP3   OH232185   2.423   2.882  12.953  0.7180 -0.0133 -0.5057
 3565TIP3    H132186   2.441   2.953  12.891 -1.7231  0.3564 -0.8961
 3565TIP3    H232187   2.413   2.927  13.037  2.3303 -0.3227 -0.1088
 3566TIP3   OH232188   1.870   5.929   5.727 -0.1314 -0.0473  0.8563
 3566TIP3    H132189   1.927   5.978   5.668 -2.4597  0.4355 -1.1558
 3566TIP3    H232190   1.825   5.997   5.778  0.3098 -0.3712  1.6955
 3567TIP3   OH232191   1.072   3.764  14.384  0.4081  0.5939  0.3541
 3567TIP3    H132192   0.989   3.810  14.396  0.3502  0.6156 -0.1130
 3567TIP3    H232193   1.090   3.772  14.291  0.0263 -0.9591  0.1262
 3568TIP3   OH232194   4.967   4.538   0.393 -0.8951 -0.3125 -0.4964
 3568TIP3    H132195   4.996   4.588   0.317 -0.6622  0.4880  0.1056
 3568TIP3    H232196   4.972   4.600   0.466 -2.2661 -0.7189 -0.0332
 3569TIP3   OH232197   1.164   3.875  14.113  0.0248 -0.1587  0.1994
 3569TIP3    H132198   1.113   3.953  14.136 -0.3050 -0.8015  1.7809
 3569TIP3    H232199   1.255   3.904  14.118 -0.1129  0.7462 -1.6889
 3570TIP3   OH232200   6.634   4.152   4.959  0.2329  0.4188  0.0031
 3570TIP3    H132201   6.582   4.078   4.927 -0.3957  1.1362 -0.6954
 3570TIP3    H232202   6.569   4.210   5.000  0.9856 -0.3915  2.5150
 3571TIP3   OH232203   6.635   0.747  14.088 -0.3008 -0.0262  0.2848
 3571TIP3    H132204   6.640   0.652  14.093  1.5292  0.0260  0.0432
 3571TIP3    H232205   6.670   0.777  14.172 -1.5323  0.4588  0.6571
 3572TIP3   OH232206   3.298   1.837   2.469 -0.4683  0.4824  0.2370
 3572TIP3    H132207   3.304   1.905   2.535  0.8111 -0.5134  1.2023
 3572TIP3    H232208   3.356   1.767   2.501  0.3732  0.0543 -2.0310
 3573TIP3   OH232209   4.289   3.400   0.789  0.0068  0.1628 -0.1817
 3573TIP3    H132210   4.219   3.438   0.842 -0.4771  1.3802 -1.6144
 3573TIP3    H232211   4.244   3.346   0.724  0.4468  0.2660 -0.5799
 3574TIP3   OH232212   2.180   0.697   1.920  0.5230  0.9486  0.1785
 3574TIP3    H132213   2.274   0.712   1.932  0.7335 -0.6253  0.7732
 3574TIP3    H232214   2.138   0.755   1.984  1.1287  1.1180  0.4311
 3575TIP3   OH232215   6.400   6.428   0.613 -0.2273  0.3789 -0.0271
 3575TIP3    H132216   6.432   6.392   0.696  0.6955 -0.3020 -0.6636
 3575TIP3    H232217   6.475   6.476   0.577 -0.6018  0.6153 -0.4992
 3576TIP3   OH232218   3.939   6.315  15.266 -0.2974 -0.5031  0.3116
 3576TIP3    H132219   3.950   6.252  15.194 -1.6392  1.4496 -1.7565
 3576TIP3    H232220   4.026   6.353  15.279 -0.2775  0.0695 -1.2849
 3577TIP3   OH232221   2.053   6.078   4.746  0.6588  0.2810  0.0092
 3577TIP3    H132222   1.967   6.072   4.705 -0.9549  1.8520  2.8610
 3577TIP3    H232223   2.059   6.001   4.803  0.3989  0.9594  0.9890
 3578TIP3   OH232224   0.578   6.811  11.579 -0.6609 -0.2174 -0.6956
 3578TIP3    H132225   0.646   6.843  11.638 -0.6208  0.6873 -1.2010
 3578TIP3    H232226   0.556   6.724  11.612  0.1559 -0.1906 -0.0350
 3579TIP3   OH232227   2.114   0.639  13.279  0.5354  0.1705 -0.0334
 3579TIP3    H132228   2.034   0.687  13.258 -0.8108 -2.4252 -1.2376
 3579TIP3    H232229   2.094   0.595  13.362  1.3042  0.6254  0.4107
 3580TIP3   OH232230   6.763   3.342  13.838  0.3596  0.1407 -0.0694
 3580TIP3    H132231   6.681   3.377  13.874  0.5120 -0.5339  0.9920
 3580TIP3    H232232   6.735   3.267  13.785  0.1695  0.8517 -0.9802
 3581TIP3   OH232233   3.238   1.751   0.642 -0.5947  0.0365  0.4608
 3581TIP3    H132234   3.234   1.657   0.654 -0.1652  0.1218  1.3652
 3581TIP3    H232235   3.330   1.774   0.659 -0.7388  0.6413  0.4623
 3582TIP3   OH232236   6.427   3.394   2.043  0.2430  0.7281 -0.1258
 3582TIP3    H132237   6.512   3.355   2.028 -0.0746  0.0558 -0.2021
 3582TIP3    H232238   6.413   3.450   1.966 -0.2844 -0.7740 -1.1608
 3583TIP3   OH232239   1.028   4.992   0.659 -0.1317 -0.0059  0.1487
 3583TIP3    H132240   1.054   4.947   0.579 -0.1782  1.0801 -0.4924
 3583TIP3    H232241   1.079   4.949   0.728  2.7379  1.4071 -0.9251
 3584TIP3   OH232242   2.844   2.490  14.166 -0.4401  0.4199 -0.0027
 3584TIP3    H132243   2.938   2.479  14.179 -0.0867  1.3297 -1.6535
 3584TIP3    H232244   2.833   2.505  14.073 -2.3019 -0.2596  0.0503
 3585TIP3   OH232245   0.458   1.075   4.283 -0.0123 -0.0944 -0.1100
 3585TIP3    H132246   0.457   0.996   4.229  1.2348  1.1104 -2.0022
 3585TIP3    H232247   0.460   1.147   4.221 -0.1467  1.4305  1.5671
 3586TIP3   OH232248   5.170   2.928   2.428  0.4121 -0.1016 -0.3185
 3586TIP3    H132249   5.156   2.871   2.353  1.0418  0.8650 -1.2050
 3586TIP3    H232250   5.191   2.868   2.500  3.4543 -0.9802 -1.7500
 3587TIP3   OH232251   0.001   6.120  15.429 -0.1078  0.3107 -0.2944
 3587TIP3    H132252   0.031   6.193  15.484  0.5687 -0.7614  0.7957
 3587TIP3    H232253   0.081   6.075  15.402 -0.5607 -0.5892 -0.1599
 3588TIP3   OH232254   5.461   1.454  11.159 -0.1473  0.0714  0.3033
 3588TIP3    H132255   5.435   1.543  11.182  0.8222  0.1903  0.9799
 3588TIP3    H232256   5.515   1.463  11.080  0.4327  0.1518  0.7035
 3589TIP3   OH232257   4.119   0.757  11.273  0.2642  0.0492 -0.1013
 3589TIP3    H132258   4.072   0.840  11.278  0.6849  0.2396  1.0981
 3589TIP3    H232259   4.127   0.739  11.180 -0.1790  1.1545 -0.3660
 3590TIP3   OH232260   2.202   6.031   0.562  0.2091 -0.0925 -1.1468
 3590TIP3    H132261   2.284   6.018   0.611 -0.5914 -0.6531  0.0782
 3590TIP3    H232262   2.135   6.042   0.630 -0.5883  1.3707 -2.1320
 3591TIP3   OH232263   5.941   2.892   4.870 -0.4169  0.0904  0.6949
 3591TIP3    H132264   5.937   2.940   4.787  1.1785  0.7072  0.9383
 3591TIP3    H232265   6.034   2.895   4.895 -0.1808 -3.2465  0.6774
 3592TIP3   OH232266   3.406   3.091   2.932 -0.4530 -0.8367  0.6215
 3592TIP3    H132267   3.451   3.077   3.016 -0.6848 -0.4694  0.8100
 3592TIP3    H232268   3.449   3.031   2.872  0.3118 -0.4816  0.7900
 3593TIP3   OH232269   6.061   2.639  17.062  0.1434  0.2608 -0.2937
 3593TIP3    H132270   6.015   2.559  17.089  1.4077 -0.5761 -0.5530
 3593TIP3    H232271   6.067   2.691  17.142  2.0159 -1.2777  0.6510
 3594TIP3   OH232272   3.654   0.974   3.839 -0.6738  0.0137 -0.6284
 3594TIP3    H132273   3.730   1.022   3.805  0.7276  0.2145  2.4529
 3594TIP3    H232274   3.582   1.037   3.834 -0.2068  0.4758 -1.8828
 3595TIP3   OH232275   0.716   5.233  15.674  0.1238 -0.9247 -0.4559
 3595TIP3    H132276   0.761   5.161  15.629  1.5016 -0.5322  0.2187
 3595TIP3    H232277   0.786   5.276  15.724 -1.1006 -0.5305  0.9669
 3596TIP3   OH232278   4.500   1.496  15.810 -0.3965 -0.0658 -0.1137
 3596TIP3    H132279   4.447   1.531  15.881 -0.8518  0.5195 -0.7238
 3596TIP3    H232280   4.441   1.438  15.762 -0.6860  1.0461 -1.1435
 3597TIP3   OH232281   2.055   2.599   0.027 -0.8107  0.4180 -0.4034
 3597TIP3    H132282   1.978   2.580  -0.026  0.0294  0.0243 -1.5176
 3597TIP3    H232283   2.111   2.521   0.017 -0.7351  0.2254  1.2706
 3598TIP3   OH232284   2.674   5.552   5.975  0.2269  0.0438 -0.2530
 3598TIP3    H132285   2.589   5.551   5.931  0.9364 -1.1153 -1.7027
 3598TIP3    H232286   2.732   5.502   5.917  2.3944  2.3649 -0.2882
 3599TIP3   OH232287   6.005   4.399   0.177 -0.3372  0.4609  0.5124
 3599TIP3    H132288   6.066   4.356   0.236  0.1893 -1.3342 -1.2221
 3599TIP3    H232289   6.008   4.347   0.097  0.0619  3.5346 -1.6734
 3600TIP3   OH232290   6.361   6.265  12.137 -0.5110  0.1883 -0.8096
 3600TIP3    H132291   6.347   6.235  12.047 -0.1154 -1.3919 -0.3604
 3600TIP3    H232292   6.376   6.185  12.188  1.6239  1.1749  0.2623
 3601TIP3   OH232293   2.417   6.642   3.736 -0.1281  0.7929  0.1511
 3601TIP3    H132294   2.410   6.733   3.706  1.8430  0.8395 -0.3213
 3601TIP3    H232295   2.456   6.595   3.662 -0.4450 -0.2958  0.6516
 3602TIP3   OH232296   2.784   5.152   5.955  0.2546 -0.1647  0.1615
 3602TIP3    H132297   2.858   5.177   6.011 -0.4235 -1.8867  1.9325
 3602TIP3    H232298   2.706   5.169   6.008 -0.5335 -0.2621 -0.9187
 3603TIP3   OH232299   2.137   0.291   3.319  0.1659 -0.0433  0.1846
 3603TIP3    H132300   2.073   0.357   3.346  0.5552  0.4060  0.0228
 3603TIP3    H232301   2.221   0.328   3.345  0.5262  0.2633 -1.3474
 3604TIP3   OH232302   3.700   2.968   3.373  0.0434  0.0204  0.1829
 3604TIP3    H132303   3.705   3.058   3.343  0.3551 -0.2375 -0.5628
 3604TIP3    H232304   3.732   2.916   3.299  0.1662 -0.6783  0.7148
 3605TIP3   OH232305   2.278   0.725   4.191  0.1063  0.1493  0.1575
 3605TIP3    H132306   2.202   0.745   4.137  1.3246  0.2007 -1.6212
 3605TIP3    H232307   2.330   0.805   4.192 -0.4730  0.5492  2.4857
 3606TIP3   OH232308   0.889   1.579   1.105 -0.4959  0.5194 -0.1696
 3606TIP3    H132309   0.938   1.620   1.034  0.4866 -2.0379 -1.1166
 3606TIP3    H232310   0.951   1.576   1.178  0.8777 -2.4598 -1.2792
 3607TIP3   OH232311   6.547   2.088  11.681  0.1945  0.0156  0.6966
 3607TIP3    H132312   6.503   2.007  11.705  0.9180 -0.0123  2.0292
 3607TIP3    H232313   6.480   2.156  11.692 -0.4467 -0.3998 -0.5485
 3608TIP3   OH232314   1.637   3.496  16.440  0.0380  0.1976  0.7576
 3608TIP3    H132315   1.675   3.425  16.389  0.3196  0.8537  0.0377
 3608TIP3    H232316   1.702   3.515  16.507 -0.0248 -0.1913  0.9343
 3609TIP3   OH232317   0.485   4.368  15.262  1.1192 -0.3847  0.0130
 3609TIP3    H132318   0.454   4.406  15.345 -0.4828  1.1104 -1.1929
 3609TIP3    H232319   0.404   4.350  15.213  2.0312 -1.3507 -1.1893
 3610TIP3   OH232320   5.908   4.398   3.021 -0.4280 -0.8373  0.3304
 3610TIP3    H132321   5.883   4.363   3.106 -0.6479 -0.5688  0.3769
 3610TIP3    H232322   5.924   4.491   3.037  2.6042 -1.3290  0.7461
 3611TIP3   OH232323   6.310   0.430   0.242  0.1198  0.0047 -0.1548
 3611TIP3    H132324   6.394   0.461   0.208  0.6027 -0.1349  0.8663
 3611TIP3    H232325   6.260   0.510   0.260  0.2804  0.1122 -0.1824
 3612TIP3   OH232326   0.255   3.172  10.502 -0.4336  0.3085 -0.0841
 3612TIP3    H132327   0.173   3.206  10.539 -0.2785  0.6521 -0.0548
 3612TIP3    H232328   0.323   3.227  10.540  0.1683 -2.0599  2.5711
 3613TIP3   OH232329   2.503   4.529  15.496  0.4032  0.1107  0.0005
 3613TIP3    H132330   2.540   4.606  15.454 -0.5403 -0.5396 -2.1402
 3613TIP3    H232331   2.412   4.527  15.467  0.0655 -1.1031  1.0626
 3614TIP3   OH232332   5.640   3.586  11.884  0.1435 -0.1561 -0.1607
 3614TIP3    H132333   5.719   3.637  11.903 -0.1140  0.4520 -0.6793
 3614TIP3    H232334   5.633   3.524  11.956  0.8953  0.0321  0.0772
 3615TIP3   OH232335   2.061   0.956   3.732  0.1432 -0.3200  0.1141
 3615TIP3    H132336   2.011   0.890   3.684 -0.6240  0.6228 -0.4101
 3615TIP3    H232337   2.003   1.032   3.737  1.6369  0.9643 -0.8703
 3616TIP3   OH232338   2.862   1.527   0.401  0.0843 -0.0436  0.1512
 3616TIP3    H132339   2.917   1.573   0.338  0.8134 -0.2065  0.6602
 3616TIP3    H232340   2.804   1.473   0.347  0.0275  0.5681 -0.4076
 3617TIP3   OH232341   5.430   5.844  16.219 -0.0159 -0.7048 -1.0544
 3617TIP3    H132342   5.342   5.828  16.253  0.3026 -0.3508 -0.0387
 3617TIP3    H232343   5.418   5.852  16.124 -1.4539  1.6231 -0.7486
 3618TIP3   OH232344   6.037   2.906   1.832 -0.3548 -0.6059 -0.0683
 3618TIP3    H132345   6.038   3.001   1.838  3.8303 -0.5399  1.1892
 3618TIP3    H232346   6.113   2.885   1.777 -1.3291 -3.2359 -0.5434
 3619TIP3   OH232347   4.948   1.032   1.880  0.7326  0.1288  0.6236
 3619TIP3    H132348   4.958   1.100   1.947  2.8342 -0.4244  0.9650
 3619TIP3    H232349   4.854   1.028   1.863  0.3448  1.6352  2.1333
 3620TIP3   OH232350   4.915   3.715  13.978  0.7302 -0.2897  0.0413
 3620TIP3    H132351   4.924   3.806  13.948 -0.6571  0.3465  1.4030
 3620TIP3    H232352   4.822   3.695  13.966  1.1661 -1.8237 -0.9718
 3621TIP3   OH232353   5.635   0.052   0.527  0.0387  0.0982 -0.0320
 3621TIP3    H132354   5.650   0.048   0.432 -2.3812  1.0138 -0.5494
 3621TIP3    H232355   5.678  -0.025   0.562  3.0904  0.9712 -1.5061
 3622TIP3   OH232356   2.696   3.944   5.418  0.0565  0.2589  0.2731
 3622TIP3    H132357   2.752   3.867   5.430 -0.1997  0.0777  0.3008
 3622TIP3    H232358   2.757   4.018   5.421  0.4182  0.0093 -0.6528
 3623TIP3   OH232359   5.910   6.778   3.467  0.0188 -0.7015 -0.3321
 3623TIP3    H132360   5.851   6.795   3.540  0.3030 -0.8198 -0.0718
 3623TIP3    H232361   5.974   6.848   3.471  1.2771 -1.8667  0.8315
 3624TIP3   OH232362   6.303   2.192   2.626 -0.3601 -0.9168 -0.8686
 3624TIP3    H132363   6.381   2.243   2.646  0.3372 -1.5095 -1.9571
 3624TIP3    H232364   6.230   2.252   2.643  0.0131 -1.4376  3.7194
 3625TIP3   OH232365   6.138   2.628  11.140 -0.1827 -0.6111 -0.2709
 3625TIP3    H132366   6.080   2.701  11.161 -1.2316 -0.7396 -2.4496
 3625TIP3    H232367   6.090   2.550  11.168 -0.5994 -0.6467 -1.0516
 3626TIP3   OH232368   6.347   4.495  12.031  0.1711 -0.0521  0.1634
 3626TIP3    H132369   6.369   4.404  12.046  0.7016  0.2030  0.9793
 3626TIP3    H232370   6.419   4.545  12.070 -0.4685  0.7227  0.3997
 3627TIP3   OH232371   3.006   3.412  14.239 -0.1344 -0.3815  0.5544
 3627TIP3    H132372   3.004   3.321  14.209  0.0391  0.0448 -0.8023
 3627TIP3    H232373   2.994   3.406  14.334  2.5574 -2.0238  0.9041
 3628TIP3   OH232374   0.811   4.450  14.721 -0.1977  0.0619 -0.0218
 3628TIP3    H132375   0.763   4.371  14.696  0.9375 -0.2023 -1.5117
 3628TIP3    H232376   0.893   4.445  14.671  0.3401  1.6832  0.6311
 3629TIP3   OH232377   0.702   0.205  15.447 -0.2240  0.5567  0.0459
 3629TIP3    H132378   0.612   0.206  15.480 -1.3118  3.5202 -2.5011
 3629TIP3    H232379   0.751   0.255  15.513 -0.4498 -0.7476  1.2601
 3630TIP3   OH232380   3.677   4.226  15.765 -0.8240  0.4611 -0.0599
 3630TIP3    H132381   3.622   4.251  15.691 -1.2559  0.3486  0.2191
 3630TIP3    H232382   3.618   4.178  15.824 -0.9024  1.8869  1.0937
 3631TIP3   OH232383   6.332   5.743  14.065 -0.0848 -0.4118  0.0460
 3631TIP3    H132384   6.283   5.667  14.035 -0.3048 -0.3373  0.2152
 3631TIP3    H232385   6.415   5.738  14.018 -0.0154 -0.8696  0.2135
 3632TIP3   OH232386   5.133   6.000   1.450 -0.3665 -0.8858 -0.7424
 3632TIP3    H132387   5.195   5.932   1.424  2.4585  0.8666  0.8170
 3632TIP3    H232388   5.113   5.981   1.542  0.4879  0.3490 -0.2789
 3633TIP3   OH232389   2.370   0.234  16.090  0.9338  0.3385 -0.1170
 3633TIP3    H132390   2.345   0.299  16.156  0.1311  0.5104 -0.5725
 3633TIP3    H232391   2.425   0.172  16.136  0.6870  0.6634  0.6244
 3634TIP3   OH232392   1.599   0.162  14.630 -0.0590 -0.3852 -0.2774
 3634TIP3    H132393   1.597   0.114  14.713 -2.0558 -0.0028 -0.0432
 3634TIP3    H232394   1.620   0.095  14.565  1.8831 -0.6235  0.5330
 3635TIP3   OH232395   1.982   3.027   5.608  0.1412  0.1173 -0.3201
 3635TIP3    H132396   2.062   3.027   5.556 -1.2500 -1.7838 -2.6199
 3635TIP3    H232397   2.005   2.981   5.688  1.2169 -0.9189 -1.2008
 3636TIP3   OH232398   0.758   4.714   6.609  0.8758 -0.3915 -0.6160
 3636TIP3    H132399   0.721   4.746   6.527  1.1124  0.3442 -0.4466
 3636TIP3    H232400   0.719   4.628   6.621  0.9434 -0.5722 -1.5707
 3637TIP3   OH232401   4.829   6.541  16.293 -0.3431 -0.3713 -0.3120
 3637TIP3    H132402   4.823   6.607  16.224 -2.6199 -0.2090 -0.0513
 3637TIP3    H232403   4.754   6.560  16.350  2.1833  0.4313  3.0869
 3638TIP3   OH232404   3.436   1.462  13.733 -0.2509  0.0094  0.4599
 3638TIP3    H132405   3.495   1.446  13.659  0.4688 -0.6052  1.1470
 3638TIP3    H232406   3.434   1.379  13.780 -2.6067 -0.3424 -0.1657
 3639TIP3   OH232407   0.957   5.862   2.911 -0.0569  0.1244  0.2501
 3639TIP3    H132408   1.010   5.908   2.976  0.6800  0.1781 -0.3844
 3639TIP3    H232409   0.870   5.901   2.921  0.0806  0.2383  1.0930
 3640TIP3   OH232410   0.840   3.944  12.538 -0.2603  0.1319  0.5315
 3640TIP3    H132411   0.780   3.875  12.511  0.7134 -0.4707 -0.1587
 3640TIP3    H232412   0.844   3.937  12.633 -2.5959  1.3176  0.7905
 3641TIP3   OH232413   0.847   3.767   1.611  0.1418 -0.4240 -0.1789
 3641TIP3    H132414   0.893   3.819   1.677  0.3224  0.6918 -1.1550
 3641TIP3    H232415   0.902   3.773   1.533 -0.5312 -0.9529 -0.7023
 3642TIP3   OH232416   0.178   2.943   1.029 -0.2150 -0.2390 -0.1110
 3642TIP3    H132417   0.151   2.886   1.100  0.3463 -0.2411  0.1043
 3642TIP3    H232418   0.208   2.884   0.960  2.2225 -0.2085  0.8434
 3643TIP3   OH232419   1.615   2.467  15.393 -0.3738  0.0486  0.1685
 3643TIP3    H132420   1.571   2.509  15.467 -2.7820 -1.2449 -0.4349
 3643TIP3    H232421   1.673   2.402  15.433 -0.4345  0.4647  0.9411
 3644TIP3   OH232422   2.451   4.631  12.586  0.5559 -0.4961  0.0218
 3644TIP3    H132423   2.457   4.607  12.678  1.8281 -1.4383 -0.2854
 3644TIP3    H232424   2.430   4.550  12.540  1.0565 -0.2660 -0.6352
 3645TIP3   OH232425   6.102   4.200  12.812 -0.1066 -0.0487  0.0380
 3645TIP3    H132426   6.150   4.274  12.850  0.5543  0.1857 -1.2060
 3645TIP3    H232427   6.168   4.152  12.763 -0.8237 -0.6568 -0.3469
 3646TIP3   OH232428   5.744   2.355   3.400  0.1809  0.3958 -0.0876
 3646TIP3    H132429   5.666   2.338   3.452 -1.7558 -0.6587 -3.0645
 3646TIP3    H232430   5.811   2.298   3.439 -1.2559 -0.6189  1.0281
 3647TIP3   OH232431   4.436   0.611   5.815  0.6246 -0.2366  0.3914
 3647TIP3    H132432   4.418   0.613   5.721  1.3181 -0.6566  0.2416
 3647TIP3    H232433   4.484   0.530   5.828 -2.6384 -2.1506  1.7325
 3648TIP3   OH232434   6.320   1.957   1.054 -0.0264 -0.1985 -0.1092
 3648TIP3    H132435   6.295   1.967   0.962 -3.3703 -0.8686  0.5909
 3648TIP3    H232436   6.313   2.045   1.090 -0.4154 -0.2139 -0.1423
 3649TIP3   OH232437   2.157   1.202   1.128 -0.1295  0.8457  0.0111
 3649TIP3    H132438   2.212   1.123   1.137 -0.5912  0.7132  2.0882
 3649TIP3    H232439   2.068   1.168   1.123 -0.3971  1.2228  1.7174
 3650TIP3   OH232440   1.960   4.165  13.600  0.3393  0.1312  0.0032
 3650TIP3    H132441   2.049   4.184  13.571 -0.1889  0.6110 -1.3778
 3650TIP3    H232442   1.915   4.250  13.595 -0.5829 -0.3848 -0.8006
 3651TIP3   OH232443   4.538   1.466   5.835  0.7229  0.0639  0.4872
 3651TIP3    H132444   4.613   1.521   5.814 -0.5425  2.8707  2.6978
 3651TIP3    H232445   4.570   1.409   5.905  1.0582  0.6169  0.7936
 3652TIP3   OH232446   5.148   2.394   5.717 -0.0459  0.4813 -0.2128
 3652TIP3    H132447   5.133   2.479   5.674 -0.1017  0.0229 -1.1161
 3652TIP3    H232448   5.127   2.329   5.650 -1.6510 -0.2945  0.9806
 3653TIP3   OH232449   6.771   2.950  12.210  0.5453 -0.3312 -0.9995
 3653TIP3    H132450   6.718   2.986  12.139 -0.5647 -1.0309 -0.5439
 3653TIP3    H232451   6.737   2.992  12.289 -0.3919 -1.8968 -0.5264
 3654TIP3   OH232452   1.625   2.207   2.931 -0.2768  0.3897 -0.1896
 3654TIP3    H132453   1.564   2.281   2.936 -2.0773 -1.0346 -0.0191
 3654TIP3    H232454   1.630   2.175   3.021 -1.3918 -1.0970 -0.6192
 3655TIP3   OH232455   3.956   1.280   1.743 -0.5069  0.1249 -0.0112
 3655TIP3    H132456   4.010   1.329   1.806 -0.0287  3.0759 -2.4595
 3655TIP3    H232457   3.870   1.321   1.749 -0.6764 -0.1290 -0.6678
 3656TIP3   OH232458   2.660   4.359  11.004 -0.2167 -0.5134  0.6492
 3656TIP3    H132459   2.587   4.374  10.943  0.0687 -0.6320  0.2725
 3656TIP3    H232460   2.685   4.267  10.989  2.4090  0.4823 -1.9226
 3657TIP3   OH232461   4.477   2.493   5.342  0.1264 -0.4317  0.1396
 3657TIP3    H132462   4.571   2.479   5.357  0.2342  0.7439  0.6497
 3657TIP3    H232463   4.451   2.555   5.409 -0.4421  1.2704 -1.5462
 3658TIP3   OH232464   3.026   5.235   0.867  0.1707 -0.3614 -0.1578
 3658TIP3    H132465   3.012   5.213   0.775 -2.1632 -1.5470  0.4319
 3658TIP3    H232466   3.090   5.171   0.898 -0.2127 -0.9520 -0.5761
 3659TIP3   OH232467   3.387   4.258   3.991  0.0608 -0.4029 -0.6907
 3659TIP3    H132468   3.294   4.244   4.004  0.0424 -0.1879 -0.5756
 3659TIP3    H232469   3.406   4.340   4.037  0.5619 -1.0928  0.3772
 3660TIP3   OH232470   6.625   3.842   2.297 -0.2600 -0.3311  0.0039
 3660TIP3    H132471   6.629   3.827   2.392  1.1844 -1.3343 -0.1828
 3660TIP3    H232472   6.672   3.924   2.283 -1.2103  0.2623  0.2271
 3661TIP3   OH232473   0.405   4.668   3.954 -0.0274 -0.0945 -0.4866
 3661TIP3    H132474   0.330   4.725   3.973 -1.3944 -1.7816 -0.5950
 3661TIP3    H232475   0.371   4.579   3.964  1.8514 -0.9213 -1.0090
 3662TIP3   OH232476   0.834   4.588   4.795  0.2625  0.3967 -0.2268
 3662TIP3    H132477   0.826   4.498   4.763 -2.1368  0.2373  0.6098
 3662TIP3    H232478   0.793   4.586   4.882  2.5374  1.7714  0.9659
 3663TIP3   OH232479   4.017   0.358  12.077 -0.2261  0.0805 -0.0493
 3663TIP3    H132480   3.976   0.438  12.108  0.1758  0.3044 -0.0846
 3663TIP3    H232481   4.061   0.322  12.154  0.3124  0.3478 -0.2279
 3664TIP3   OH232482   5.420   3.714  16.656  0.0758  0.0346  0.1314
 3664TIP3    H132483   5.400   3.785  16.594 -1.2224 -0.8444 -0.4929
 3664TIP3    H232484   5.511   3.690  16.636  0.5585  1.5186  0.3721
 3665TIP3   OH232485   0.374   4.412   5.540  0.3432  0.0580  0.0310
 3665TIP3    H132486   0.376   4.342   5.605  0.5847 -0.1687 -0.2181
 3665TIP3    H232487   0.464   4.417   5.508  0.2106  0.1278 -0.3312
 3666TIP3   OH232488   4.971   3.689   2.403 -0.0175  0.5378  0.2484
 3666TIP3    H132489   5.028   3.726   2.337 -0.1697  0.9080  0.3219
 3666TIP3    H232490   4.908   3.759   2.422 -0.6338  0.0592  0.0016
 3667TIP3   OH232491   1.833   6.603   5.682  0.1428  0.0213 -0.0422
 3667TIP3    H132492   1.857   6.515   5.653  0.2035  0.3992 -1.1965
 3667TIP3    H232493   1.859   6.606   5.774  1.0166 -0.8497 -0.2432
 3668TIP3   OH232494   3.226   4.710  15.623  0.0148 -0.2514 -0.1697
 3668TIP3    H132495   3.196   4.795  15.655 -0.1217 -0.8403  1.3377
 3668TIP3    H232496   3.276   4.731  15.544 -0.0244  1.2322  0.1639
 3669TIP3   OH232497   5.817   6.051  13.194  0.2341  0.2765 -0.2779
 3669TIP3    H132498   5.781   6.003  13.120  1.2913  1.5744 -1.7139
 3669TIP3    H232499   5.836   5.984  13.259 -0.2854 -0.9738 -1.3651
 3670TIP3   OH232500   1.570   5.924  15.976  0.5979  0.5112 -0.8574
 3670TIP3    H132501   1.579   5.891  15.887 -1.7540  2.4614 -1.9398
 3670TIP3    H232502   1.507   5.996  15.969  0.7199  1.0892  2.3124
 3671TIP3   OH232503   6.202   4.315  15.496  0.3909 -0.1616  0.4315
 3671TIP3    H132504   6.249   4.399  15.498  1.0298 -0.5138  0.4004
 3671TIP3    H232505   6.205   4.288  15.405 -1.1537  0.5115  0.1534
 3672TIP3   OH232506   0.634   4.957   1.780  0.2285  0.3356 -0.0466
 3672TIP3    H132507   0.643   4.870   1.741 -3.1334  0.1359 -0.6282
 3672TIP3    H232508   0.652   5.018   1.708  3.2727  0.2583  0.5243
 3673TIP3   OH232509   0.550   3.480   1.939 -0.0338 -0.1794  0.0002
 3673TIP3    H132510   0.636   3.518   1.958 -0.0480 -0.2991  0.3099
 3673TIP3    H232511   0.549   3.398   1.988 -1.6209  1.3621  2.8385
 3674TIP3   OH232512   0.541   4.926   0.687  0.4303  0.3800  0.3614
 3674TIP3    H132513   0.461   4.889   0.724  0.5085  0.5817  0.7396
 3674TIP3    H232514   0.608   4.910   0.754  0.7853 -0.1075 -0.1039
 3675TIP3   OH232515   4.411   2.333  11.883 -0.0006 -0.1501 -0.5776
 3675TIP3    H132516   4.317   2.321  11.869 -0.5603  0.7644  1.9106
 3675TIP3    H232517   4.423   2.325  11.977  2.7347 -1.9168 -0.9646
 3676TIP3   OH232518   4.581   3.426   4.779  0.1292  0.0430 -0.2079
 3676TIP3    H132519   4.573   3.517   4.752  1.0445  0.8031  1.8860
 3676TIP3    H232520   4.656   3.393   4.730 -1.3384 -0.2151 -2.4122
 3677TIP3   OH232521   0.832   4.547  14.249  0.5742 -0.0387 -0.2182
 3677TIP3    H132522   0.869   4.471  14.294 -0.3173 -0.8762 -0.8608
 3677TIP3    H232523   0.908   4.589  14.208  1.6448  1.5604  3.1021
 3678TIP3   OH232524   4.104   1.618  13.972 -0.0592  0.2028 -0.0740
 3678TIP3    H132525   4.094   1.696  14.026 -2.9714  0.9450 -1.4562
 3678TIP3    H232526   4.158   1.645  13.899  0.8478  0.2375  0.5965
 3679TIP3   OH232527   0.091   4.625  16.284  0.1618  0.1083  0.6967
 3679TIP3    H132528   0.073   4.539  16.245 -0.6319  0.9405 -0.8560
 3679TIP3    H232529   0.029   4.632  16.356  0.0678 -0.5303  0.6857
 3680TIP3   OH232530   6.573   0.415   2.177  0.8564 -0.1655  0.1709
 3680TIP3    H132531   6.522   0.335   2.190  0.2881  0.1854  0.1509
 3680TIP3    H232532   6.567   0.461   2.261  0.8852  0.0203  0.0713
 3681TIP3   OH232533   4.157   4.952   0.771  0.1288 -0.5451  0.4025
 3681TIP3    H132534   4.063   4.941   0.760  0.2130 -1.7258  0.6980
 3681TIP3    H232535   4.166   5.018   0.840 -0.4497  0.7022 -0.6898
 3682TIP3   OH232536   3.089   5.593  11.938 -0.1825  0.6804 -0.0848
 3682TIP3    H132537   3.107   5.686  11.936  2.1073  0.2855  0.0362
 3682TIP3    H232538   3.175   5.551  11.933 -1.1884 -1.4400 -1.2191
 3683TIP3   OH232539   3.752   3.803   4.111 -0.2074  0.0951  0.4089
 3683TIP3    H132540   3.801   3.734   4.156 -0.7909 -0.1920  0.6175
 3683TIP3    H232541   3.661   3.788   4.137 -0.6687 -0.5302 -1.4560
 3684TIP3   OH232542   4.393   2.393   3.279 -0.1568  0.3892 -0.2489
 3684TIP3    H132543   4.481   2.361   3.260  0.0808  1.2904 -0.7169
 3684TIP3    H232544   4.336   2.345   3.218  0.0365 -0.0028 -0.1224
 3685TIP3   OH232545   1.862   5.959   4.614  0.2869  0.4722  0.1487
 3685TIP3    H132546   1.868   5.869   4.583  0.6448  0.9848 -1.3232
 3685TIP3    H232547   1.769   5.982   4.604  0.5473  0.9208 -1.4397
 3686TIP3   OH232548   2.002   6.329   5.663  0.2588 -0.2106  0.2711
 3686TIP3    H132549   1.982   6.273   5.737  0.0046  0.4171  0.6889
 3686TIP3    H232550   1.946   6.297   5.592 -0.2451 -0.1630  0.6495
 3687TIP3   OH232551   5.569   5.305   2.190  0.4033  0.0779  0.4275
 3687TIP3    H132552   5.476   5.320   2.203  0.6893  1.6560  0.8696
 3687TIP3    H232553   5.574   5.222   2.142 -1.3041  0.7549 -1.0407
 3688TIP3   OH232554   0.889   4.163   4.675 -0.0851  0.1470 -0.0578
 3688TIP3    H132555   0.828   4.231   4.649  0.3953  1.0275  1.0308
 3688TIP3    H232556   0.968   4.210   4.702 -0.1821 -0.7265  1.9457
 3689TIP3   OH232557   0.379   5.501  11.690 -0.0948 -0.3351 -0.3609
 3689TIP3    H132558   0.426   5.490  11.608  0.7860 -0.0036  0.0893
 3689TIP3    H232559   0.375   5.413  11.728  1.8187 -0.1156  0.4703
 3690TIP3   OH232560   1.370   2.718  14.769 -0.2238  0.0689 -0.9616
 3690TIP3    H132561   1.304   2.783  14.744  0.0615 -0.1911 -2.4664
 3690TIP3    H232562   1.322   2.636  14.774 -0.5456  0.3298  0.7496
 3691TIP3   OH232563   4.270   2.946   3.263 -0.2310  0.2260  0.4783
 3691TIP3    H132564   4.264   2.925   3.356 -0.1332 -2.3604 -0.0094
 3691TIP3    H232565   4.363   2.935   3.243 -0.2393  0.8494  0.0799
 3692TIP3   OH232566   1.482   1.251  14.039  0.0459  0.3401  1.0155
 3692TIP3    H132567   1.570   1.226  14.010 -0.8859 -0.7631 -1.0849
 3692TIP3    H232568   1.440   1.168  14.061 -1.1580  0.6195 -0.1431
 3693TIP3   OH232569   0.263   4.372  13.544  0.0283 -0.1383 -0.2456
 3693TIP3    H132570   0.302   4.448  13.588  1.7073 -0.5131 -1.0288
 3693TIP3    H232571   0.272   4.391  13.451 -2.7994  0.2995 -0.5313
 3694TIP3   OH232572   4.209   2.208  12.150 -0.6184 -0.6913  0.0900
 3694TIP3    H132573   4.135   2.163  12.109 -0.8476 -0.2208 -0.0304
 3694TIP3    H232574   4.274   2.140  12.166  0.7384 -0.5431 -3.7202
 3695TIP3   OH232575   3.322   6.477   4.357  0.2114  0.5117  0.1525
 3695TIP3    H132576   3.314   6.487   4.262 -0.0136 -0.3935  0.0670
 3695TIP3    H232577   3.389   6.410   4.369 -1.8968 -1.7022  0.5021
 3696TIP3   OH232578   5.153   2.029   5.830 -0.0649 -0.1822 -0.6605
 3696TIP3    H132579   5.067   2.065   5.810 -0.6209 -1.2041 -0.1301
 3696TIP3    H232580   5.153   2.015   5.925  0.4823 -0.6992 -0.7257
 3697TIP3   OH232581   6.243   2.561  14.300  0.3956  0.3394  0.4122
 3697TIP3    H132582   6.253   2.501  14.375  0.1560 -0.5101 -0.2241
 3697TIP3    H232583   6.151   2.556  14.277  0.2953  1.2562  0.5819
 3698TIP3   OH232584   6.365   3.237  12.146 -0.2998  0.1973 -0.5150
 3698TIP3    H132585   6.301   3.307  12.135  0.0338  0.5002 -0.5426
 3698TIP3    H232586   6.352   3.207  12.236 -1.6888 -0.9585 -1.0505
 3699TIP3   OH232587   2.120   6.059  12.747  0.0755  0.6993 -0.0701
 3699TIP3    H132588   2.193   6.087  12.801  1.1475  0.1425 -1.1906
 3699TIP3    H232589   2.151   6.066  12.657 -0.9787 -0.2606 -0.5492
 3700TIP3   OH232590   0.586   0.873   0.791  0.1628  0.6250 -0.0093
 3700TIP3    H132591   0.668   0.918   0.813 -0.2101  1.9330 -1.1419
 3700TIP3    H232592   0.534   0.939   0.746 -0.8322 -0.6722 -0.8364
 3701TIP3   OH232593   1.113   1.606  13.612 -0.6560 -0.0687 -0.6629
 3701TIP3    H132594   1.095   1.659  13.535 -1.1892 -1.2159 -1.3511
 3701TIP3    H232595   1.041   1.628  13.673  0.6970  2.1317  0.2670
 3702TIP3   OH232596   3.703   2.151   4.570 -0.2458 -0.0255  0.2657
 3702TIP3    H132597   3.755   2.139   4.491  2.1497  0.0373  1.7217
 3702TIP3    H232598   3.614   2.130   4.543  0.4372  0.1456 -2.4579
 3703TIP3   OH232599   3.560   0.030   6.043 -0.9531  0.1770  0.0782
 3703TIP3    H132600   3.521   0.114   6.065 -0.7887  0.4426 -0.6253
 3703TIP3    H232601   3.511  -0.034   6.096 -1.3335  0.6653  0.3236
 3704TIP3   OH232602   6.351   3.798  11.477 -0.4738 -0.2932 -0.5424
 3704TIP3    H132603   6.440   3.763  11.479  0.2426  1.3106  3.0434
 3704TIP3    H232604   6.295   3.722  11.493  0.7501 -0.6546  2.8314
 3705TIP3   OH232605   5.673   1.526  16.773  1.0208  0.3638  1.0407
 3705TIP3    H132606   5.607   1.571  16.720  2.8465  1.5958 -0.3467
 3705TIP3    H232607   5.635   1.521  16.860 -0.9846  0.8064  0.2404
 3706TIP3   OH232608   6.554   3.198  11.186 -0.5520  0.2235  0.2827
 3706TIP3    H132609   6.499   3.129  11.222  0.2933 -1.0726 -0.8173
 3706TIP3    H232610   6.592   3.241  11.263 -1.0392 -0.5715  0.9909
 3707TIP3   OH232611   5.665   5.146  16.672  0.3839  0.2549  0.5440
 3707TIP3    H132612   5.645   5.239  16.659 -1.1041 -0.4468 -3.4611
 3707TIP3    H232613   5.617   5.123  16.752  0.1498  2.7043  1.2077
 3708TIP3   OH232614   4.093   2.200   4.119  0.0875  0.2722  0.5008
 3708TIP3    H132615   4.102   2.216   4.025 -1.2467  0.3474  0.3682
 3708TIP3    H232616   4.001   2.220   4.138  0.0839 -0.7094  1.6306
 3709TIP3   OH232617   6.471   3.181   5.997  0.9007 -0.1925  0.1075
 3709TIP3    H132618   6.440   3.211   6.083 -1.4416  1.3544 -1.1627
 3709TIP3    H232619   6.556   3.222   5.987  1.3664 -0.6638  1.7927
 3710TIP3   OH232620   1.125   2.570   1.856 -0.0992  0.0760 -0.0132
 3710TIP3    H132621   1.055   2.613   1.904  0.4386 -0.6490  1.4717
 3710TIP3    H232622   1.195   2.559   1.920 -0.2627 -3.1321 -0.1927
 3711TIP3   OH232623   5.122   1.758  15.273  0.1943  0.4756 -0.0388
 3711TIP3    H132624   5.141   1.812  15.196 -0.1711 -1.8419 -1.8632
 3711TIP3    H232625   5.053   1.699  15.244 -0.4673 -0.0085  2.3367
 3712TIP3   OH232626   2.888   6.333   4.770  0.1773  0.0534  0.2335
 3712TIP3    H132627   2.953   6.285   4.821  0.2928 -1.0802 -0.9313
 3712TIP3    H232628   2.910   6.313   4.679 -1.1090  0.5862 -0.2079
 3713TIP3   OH232629   2.672   0.349  10.663 -0.4502 -0.0257  0.0993
 3713TIP3    H132630   2.590   0.330  10.617 -1.4143 -1.7085  2.3410
 3713TIP3    H232631   2.672   0.444  10.673 -1.2623  0.1657 -1.4100
 3714TIP3   OH232632   2.961   4.693  11.943 -0.0737 -0.8942 -0.5751
 3714TIP3    H132633   3.021   4.690  12.018  2.3712 -1.1575 -2.3986
 3714TIP3    H232634   2.914   4.776  11.953  0.7034 -0.5889  0.8600
 3715TIP3   OH232635   4.350   5.668   2.219  0.0373 -0.2102  0.1242
 3715TIP3    H132636   4.294   5.679   2.296  0.7762  0.2482  0.6114
 3715TIP3    H232637   4.408   5.595   2.241 -0.8033 -1.1328 -0.6500
 3716TIP3   OH232638   5.260   1.322  16.054 -0.4347  0.2842 -0.1452
 3716TIP3    H132639   5.224   1.236  16.075  1.5365  0.3026  4.4593
 3716TIP3    H232640   5.338   1.304  16.002 -0.6765 -0.5869 -0.2128
 3717TIP3   OH232641   6.530   6.580   0.854  0.0841 -0.2049 -0.0897
 3717TIP3    H132642   6.576   6.638   0.915 -0.7578  0.3979 -0.0123
 3717TIP3    H232643   6.593   6.565   0.784  1.5295 -1.8727  1.4575
 3718TIP3   OH232644   6.606   6.376  15.582 -0.4782 -0.0529 -0.7165
 3718TIP3    H132645   6.539   6.334  15.636 -0.0408 -1.6809 -1.3652
 3718TIP3    H232646   6.688   6.364  15.630 -0.5856  1.9289  0.0713
 3719TIP3   OH232647   3.429   0.324   0.823 -0.1484 -0.3683 -0.0882
 3719TIP3    H132648   3.386   0.299   0.741  2.1401  0.5466 -1.6635
 3719TIP3    H232649   3.357   0.347   0.881 -1.8641 -1.0791 -1.8085
 3720TIP3   OH232650   0.347   5.558   1.490 -0.2105 -0.4158  0.2891
 3720TIP3    H132651   0.255   5.569   1.465 -0.4303  0.9586  1.5746
 3720TIP3    H232652   0.388   5.642   1.471  0.8605 -1.0819 -0.4794
 3721TIP3   OH232653   4.594   6.544  16.387 -1.0022 -0.3738  0.9265
 3721TIP3    H132654   4.568   6.632  16.414 -1.1933 -0.0389 -0.2785
 3721TIP3    H232655   4.512   6.495  16.385 -0.9218 -0.5336  1.4100
 3722TIP3   OH232656   1.986   5.581   5.033 -0.0614  0.0819  0.2832
 3722TIP3    H132657   1.992   5.522   4.958  0.1029  0.7302 -0.2114
 3722TIP3    H232658   1.953   5.525   5.104  0.0648 -0.5995 -0.1876
 3723TIP3   OH232659   1.092   3.686   2.469  0.0823 -0.1765 -0.5230
 3723TIP3    H132660   1.015   3.707   2.521  0.6883  1.2037 -0.1313
 3723TIP3    H232661   1.127   3.606   2.509 -0.4378 -0.1069  0.0853
 3724TIP3   OH232662   2.166   3.125  17.182 -0.8529  0.1786  0.2657
 3724TIP3    H132663   2.225   3.062  17.140 -0.4284  0.3345  0.6227
 3724TIP3    H232664   2.149   3.087  17.269  1.3269  1.6891  1.4332
 3725TIP3   OH232665   6.725   1.762  15.606  0.2451 -0.3292 -0.1520
 3725TIP3    H132666   6.713   1.717  15.523  0.4131 -1.1292  0.2486
 3725TIP3    H232667   6.636   1.779  15.638  0.1545 -1.5815  0.3226
 3726TIP3   OH232668   0.575   5.858   2.788  0.1069 -0.0788 -0.6198
 3726TIP3    H132669   0.602   5.938   2.834  0.4279 -0.9588  0.7706
 3726TIP3    H232670   0.500   5.885   2.735  0.5902  1.2740 -0.6588
 3727TIP3   OH232671   2.981   0.752   3.903 -0.2085  0.6833  0.1295
 3727TIP3    H132672   3.068   0.731   3.869 -0.0358 -0.5322  1.2313
 3727TIP3    H232673   2.993   0.834   3.950  0.9028 -0.5239  2.1045
 3728TIP3   OH232674   1.342   3.178  17.201 -0.1338 -0.1043 -0.1605
 3728TIP3    H132675   1.254   3.177  17.163 -0.7195  0.9769  1.1121
 3728TIP3    H232676   1.335   3.123  17.280  0.7533 -1.2901 -0.8620
 3729TIP3   OH232677   6.651   5.253  12.094 -0.1186 -0.4960  0.3219
 3729TIP3    H132678   6.694   5.225  12.013  2.0313  2.0941  0.4387
 3729TIP3    H232679   6.607   5.335  12.071  0.5822  0.3208  1.7555
 3730TIP3   OH232680   3.902   3.144   1.485 -0.6889 -0.0262 -0.1985
 3730TIP3    H132681   3.947   3.168   1.405  0.0798 -0.5086  0.0828
 3730TIP3    H232682   3.891   3.227   1.532 -0.1681  0.1113 -0.3124
 3731TIP3   OH232683   2.458   4.406   0.003  0.2382 -0.0774 -0.7268
 3731TIP3    H132684   2.480   4.481   0.058  0.1792 -1.4639  1.2909
 3731TIP3    H232685   2.542   4.374  -0.029  0.3856 -0.0078 -0.4131
 3732TIP3   OH232686   2.417   1.886   2.092  0.0102 -0.1611  0.1527
 3732TIP3    H132687   2.402   1.874   2.186 -1.5917 -1.5433 -0.2448
 3732TIP3    H232688   2.347   1.943   2.063  0.5577  0.3428 -0.2063
 3733TIP3   OH232689   1.726   6.315  14.166 -0.0710 -0.2459 -0.2613
 3733TIP3    H132690   1.754   6.239  14.216  0.2648  0.1275  0.1289
 3733TIP3    H232691   1.633   6.323  14.186 -0.2429 -0.9010 -0.7725
 3734TIP3   OH232692   6.565   3.202  16.092 -0.4042 -0.0572  0.0074
 3734TIP3    H132693   6.477   3.219  16.058 -0.3115 -1.9515 -1.3027
 3734TIP3    H232694   6.553   3.133  16.157  0.2529 -1.4602 -1.3038
 3735TIP3   OH232695   2.346   4.935  14.750 -0.2686 -0.2780 -0.2835
 3735TIP3    H132696   2.435   4.957  14.722  0.4291 -3.5556 -1.0814
 3735TIP3    H232697   2.290   4.986  14.693  1.0608  1.4724 -0.1169
 3736TIP3   OH232698   4.366   1.078  14.677 -0.0685 -0.1001  0.0266
 3736TIP3    H132699   4.431   1.127  14.729  0.0013  1.0084 -1.0566
 3736TIP3    H232700   4.282   1.103  14.715  0.0587 -0.5375  0.6124
 3737TIP3   OH232701   1.814   4.635  13.812  0.0989 -0.0666  0.3961
 3737TIP3    H132702   1.751   4.652  13.882  0.7669  1.2234  0.7156
 3737TIP3    H232703   1.761   4.635  13.732 -0.3475  0.8082  0.6759
 3738TIP3   OH232704   6.494   2.410  14.203 -0.7087  0.2917  0.7192
 3738TIP3    H132705   6.431   2.481  14.213 -1.8584 -0.8827  2.1885
 3738TIP3    H232706   6.465   2.343  14.264  0.4750 -1.3686 -0.4503
 3739TIP3   OH232707   6.651   3.313   5.701  0.3180 -0.0245  0.1330
 3739TIP3    H132708   6.563   3.326   5.737  0.2737  0.3831 -0.1220
 3739TIP3    H232709   6.637   3.303   5.607  0.8775  4.5880 -0.6830
 3740TIP3   OH232710   1.894   6.653  11.805 -0.3984  0.6568  0.1560
 3740TIP3    H132711   1.974   6.603  11.817  0.3058  1.1613 -1.9874
 3740TIP3    H232712   1.859   6.623  11.721 -1.6769  1.4910  0.3508
 3741TIP3   OH232713   5.451   2.576  14.549  0.3810  0.1449 -0.0054
 3741TIP3    H132714   5.494   2.514  14.607  2.4150  0.9529 -0.5442
 3741TIP3    H232715   5.503   2.574  14.469 -2.3025 -0.8794 -1.8304
 3742TIP3   OH232716   3.470   0.335   3.715  0.1670  0.1014  0.2589
 3742TIP3    H132717   3.409   0.287   3.771  2.1005 -1.6963  0.9829
 3742TIP3    H232718   3.433   0.423   3.707 -2.5121 -0.9218  0.5604
 3743TIP3   OH232719   0.504   6.728  16.072 -0.1168 -0.1186 -0.3059
 3743TIP3    H132720   0.415   6.757  16.089  0.9414  4.0921 -0.9171
 3743TIP3    H232721   0.538   6.701  16.157 -0.9334  1.7024  0.6485
 3744TIP3   OH232722   2.135   0.461  14.281  0.2735  0.7750  0.6869
 3744TIP3    H132723   2.178   0.384  14.244  0.6281  0.1636  2.2766
 3744TIP3    H232724   2.080   0.494  14.210 -0.5939 -1.4769  0.2286
 3745TIP3   OH232725   5.526   2.446  12.956 -0.0159 -0.5456  0.4530
 3745TIP3    H132726   5.466   2.398  12.898  0.4289 -2.2709  1.3431
 3745TIP3    H232727   5.610   2.401  12.945  0.7706  0.8894  0.3556
 3746TIP3   OH232728   1.878   0.071  14.289 -0.0845 -0.1780  0.2133
 3746TIP3    H132729   1.846   0.161  14.285  0.4218 -0.0519 -1.4729
 3746TIP3    H232730   1.939   0.071  14.363  1.2009  1.3049 -0.7947
 3747TIP3   OH232731   3.177   6.376  11.647 -0.3033 -0.1649 -0.3056
 3747TIP3    H132732   3.155   6.468  11.664  2.8362  1.4859 -3.7944
 3747TIP3    H232733   3.272   6.371  11.661 -0.2926 -2.7186 -0.8590
 3748TIP3   OH232734   4.523   1.430  12.949 -0.1625  0.3658 -0.1594
 3748TIP3    H132735   4.616   1.411  12.952 -0.2920 -0.3729 -0.5303
 3748TIP3    H232736   4.508   1.490  13.022  0.7947  1.4054 -0.8004
 3749TIP3   OH232737   1.393   6.597   1.361 -0.2623  0.8820 -0.1557
 3749TIP3    H132738   1.309   6.620   1.400 -0.2760 -0.6722  0.8406
 3749TIP3    H232739   1.417   6.515   1.404  0.5447 -0.0540 -2.2345
 3750TIP3   OH232740   0.751   5.809   0.197 -0.4364  0.1866  0.5442
 3750TIP3    H132741   0.776   5.896   0.168 -0.8258  0.0459 -0.2693
 3750TIP3    H232742   0.829   5.775   0.242 -1.1692  1.9541  3.3559
 3751TIP3   OH232743   0.496   2.079   1.794 -0.4135 -0.5160  0.0363
 3751TIP3    H132744   0.477   2.003   1.739  0.0503 -0.2935 -0.4340
 3751TIP3    H232745   0.584   2.107   1.768 -0.6936  0.3595 -0.0153
 3752TIP3   OH232746   5.000   0.226  16.743 -0.3315 -0.6675 -0.2375
 3752TIP3    H132747   4.914   0.188  16.729 -0.4979 -0.2242 -0.4497
 3752TIP3    H232748   5.046   0.215  16.660 -1.0065  1.1629 -0.9156
 3753TIP3   OH232749   5.474   6.220  17.001  0.6388  0.3378 -0.1801
 3753TIP3    H132750   5.502   6.288  16.939  1.5354  1.2731  1.1866
 3753TIP3    H232751   5.481   6.262  17.087 -2.4101 -0.2885  0.4801
 3754TIP3   OH232752   0.590   2.276   5.918  0.1518  0.5295 -0.0729
 3754TIP3    H132753   0.568   2.251   5.828 -3.1851 -2.9925  1.4302
 3754TIP3    H232754   0.652   2.209   5.947 -2.1079 -1.0541  1.4055
 3755TIP3   OH232755   6.118   3.637   2.087 -0.2175  0.1617  0.2899
 3755TIP3    H132756   6.051   3.614   2.022 -0.4102 -1.7129  1.1006
 3755TIP3    H232757   6.201   3.633   2.039 -0.4266 -0.4562 -0.0283
 3756TIP3   OH232758   3.378   2.068  13.707  0.2503 -1.0008 -0.2840
 3756TIP3    H132759   3.381   2.147  13.761 -1.0240 -0.4432 -0.9848
 3756TIP3    H232760   3.457   2.073  13.653 -1.1699  1.3219 -2.3464
 3757TIP3   OH232761   0.250   4.487   2.388 -0.2227  0.0703  0.2145
 3757TIP3    H132762   0.196   4.561   2.414 -0.8076 -0.9975  2.3129
 3757TIP3    H232763   0.190   4.428   2.343  0.3640  1.0269 -1.9854
 3758TIP3   OH232764   5.534   2.595  13.189  0.5819 -0.0026  0.0929
 3758TIP3    H132765   5.490   2.540  13.124 -1.3071  0.5313  0.8423
 3758TIP3    H232766   5.627   2.577  13.177  0.1005 -2.7616 -0.2187
 3759TIP3   OH232767   2.666   6.210   2.109 -0.7579  0.3306  0.0003
 3759TIP3    H132768   2.680   6.175   2.020 -0.6771 -0.8282  0.4440
 3759TIP3    H232769   2.674   6.305   2.099  0.1931  0.1672 -1.0745
 3760TIP3   OH232770   2.844   4.456   2.180  0.3701  0.4061  0.5209
 3760TIP3    H132771   2.801   4.528   2.135  1.5188  0.9327  0.2359
 3760TIP3    H232772   2.863   4.392   2.111  2.9194  1.5920  0.0073
 3761TIP3   OH232773   0.885   2.649   5.297 -0.1291  0.1565  0.1664
 3761TIP3    H132774   0.793   2.670   5.278  0.0643 -0.8703 -2.3164
 3761TIP3    H232775   0.883   2.600   5.379 -1.6821  0.8606  0.5814
 3762TIP3   OH232776   0.561   1.409  14.458  0.1127  0.6489 -0.7060
 3762TIP3    H132777   0.580   1.361  14.539 -0.1993  0.2951 -0.8451
 3762TIP3    H232778   0.475   1.379  14.431  0.0039  1.1326 -0.9091
 3763TIP3   OH232779   0.103   6.809  14.343 -0.2214 -0.0919 -0.4811
 3763TIP3    H132780   0.170   6.750  14.309 -0.2549 -0.5743  0.2643
 3763TIP3    H232781   0.059   6.843  14.265  1.5029  1.0014 -1.0397
 3764TIP3   OH232782   0.293   2.226  15.916  0.7704 -0.4944  0.1642
 3764TIP3    H132783   0.226   2.160  15.899  2.1227 -2.0030  0.4883
 3764TIP3    H232784   0.371   2.193  15.872  1.7381  0.3974  1.1662
 3765TIP3   OH232785   1.260   0.049   5.702  0.3975 -0.3639 -0.1616
 3765TIP3    H132786   1.319   0.048   5.627 -0.3298  0.1040 -0.7548
 3765TIP3    H232787   1.173   0.036   5.665  0.0678 -0.5164  0.6414
 3766TIP3   OH232788   3.090   1.960  17.060 -0.5270 -0.4495  0.1961
 3766TIP3    H132789   3.044   1.993  17.137 -0.5466 -0.2826  0.1131
 3766TIP3    H232790   3.024   1.909  17.012 -0.4042 -0.8949  0.5026
 3767TIP3   OH232791   0.890   0.579  10.835  0.7533 -0.1557 -0.5875
 3767TIP3    H132792   0.835   0.539  10.768  0.3958 -0.2384 -0.2496
 3767TIP3    H232793   0.900   0.670  10.807 -1.2523  0.4142  0.3826
 3768TIP3   OH232794   2.024   2.435   0.347 -0.0225 -0.2719 -0.1476
 3768TIP3    H132795   2.074   2.481   0.414  0.4409 -0.3237 -0.4521
 3768TIP3    H232796   2.040   2.484   0.267  0.4742 -0.9475 -0.4749
 3769TIP3   OH232797   2.749   4.550   0.143 -0.0530 -0.1608  0.0139
 3769TIP3    H132798   2.701   4.468   0.141 -0.4692  0.0354  1.0198
 3769TIP3    H232799   2.790   4.557   0.057 -0.5490 -1.0932 -0.3072
 3770TIP3   OH232800   2.563   2.669  17.121 -0.1952 -0.2455 -0.1180
 3770TIP3    H132801   2.529   2.689  17.033 -0.9115 -1.5851 -0.1814
 3770TIP3    H232802   2.573   2.573  17.121  2.9732 -0.0342  0.1478
 3771TIP3   OH232803   3.681   6.581   0.176  0.1121  0.1270  0.5930
 3771TIP3    H132804   3.672   6.489   0.153 -1.0798  0.7075 -1.6181
 3771TIP3    H232805   3.597   6.604   0.216  0.0019  0.4709  0.1769
 3772TIP3   OH232806   2.005   5.256   0.650  0.1263 -0.2137 -0.3714
 3772TIP3    H132807   2.003   5.160   0.652 -0.0859 -0.2507 -1.6226
 3772TIP3    H232808   2.021   5.277   0.558  1.1359  0.9424  0.0518
 3773TIP3   OH232809   4.780   5.439   4.019  0.0354  0.0289 -0.0513
 3773TIP3    H132810   4.686   5.439   4.039 -0.1651  1.5014 -0.8651
 3773TIP3    H232811   4.799   5.530   3.995  1.5661 -0.3635 -0.4074
 3774TIP3   OH232812   1.339   1.274   6.616  0.4173 -0.0858  0.4066
 3774TIP3    H132813   1.307   1.243   6.701 -1.3275 -0.4758 -0.3476
 3774TIP3    H232814   1.434   1.278   6.627  0.1664  1.9830  3.0700
 3775TIP3   OH232815   1.252   6.035   2.148 -0.4671  0.5488  0.1216
 3775TIP3    H132816   1.289   5.986   2.220 -1.3529  1.1418  1.0087
 3775TIP3    H232817   1.197   5.972   2.102 -0.1679  0.2544  0.1653
 3776TIP3   OH232818   5.613   1.543   2.507  0.1234 -0.0219  0.0922
 3776TIP3    H132819   5.587   1.475   2.569  1.6016  0.1281  0.9377
 3776TIP3    H232820   5.702   1.567   2.534 -0.6697  2.8828  0.3595
 3777TIP3   OH232821   2.648   5.307  16.279  0.0579 -0.0723  0.1977
 3777TIP3    H132822   2.716   5.372  16.297 -0.5962  0.7774 -0.3524
 3777TIP3    H232823   2.576   5.357  16.241 -0.7889 -0.9939  0.5417
 3778TIP3   OH232824   4.270   5.553  11.716 -0.5617 -0.0813  0.2231
 3778TIP3    H132825   4.260   5.548  11.621  1.5538 -1.5537  0.0252
 3778TIP3    H232826   4.261   5.647  11.736  0.8460  0.5159 -1.6776
 3779TIP3   OH232827   2.705   3.130  11.096 -0.0677  0.2781 -0.3965
 3779TIP3    H132828   2.759   3.200  11.060 -0.3328  0.4696 -0.4279
 3779TIP3    H232829   2.673   3.164  11.179  1.3306 -0.5434  0.4987
 3780TIP3   OH232830   5.056   1.056   6.134  0.2777  0.2369 -0.3313
 3780TIP3    H132831   5.055   1.016   6.221 -0.5618  0.2965 -0.3118
 3780TIP3    H232832   5.149   1.072   6.117  0.4788 -0.0763  0.4127
 3781TIP3   OH232833   4.925   2.289  16.930 -0.0269  0.3053  0.1732
 3781TIP3    H132834   4.857   2.314  16.868 -0.6626 -1.8876 -0.1006
 3781TIP3    H232835   4.969   2.215  16.889  0.2709 -0.4795  1.8104
 3782TIP3   OH232836   5.325   6.155  11.099  0.0107  1.2729  0.5686
 3782TIP3    H132837   5.268   6.087  11.064  1.4436  1.1558 -1.7737
 3782TIP3    H232838   5.340   6.214  11.025 -0.4682  3.6941  2.2975
 3783TIP3   OH232839   5.850   4.515   4.210  0.3408 -0.5927  0.0514
 3783TIP3    H132840   5.816   4.603   4.220  1.2174 -0.0137 -1.6446
 3783TIP3    H232841   5.842   4.476   4.297 -1.6095  0.5684  0.4378
 3784TIP3   OH232842   1.392   0.519  12.472  0.2690 -0.0851  0.4392
 3784TIP3    H132843   1.373   0.496  12.381  1.5923 -0.8583  0.3319
 3784TIP3    H232844   1.328   0.471  12.523 -1.2105  1.2072 -0.0996
 3785TIP3   OH232845   0.769   2.159   0.414  0.4387  0.2001 -0.6438
 3785TIP3    H132846   0.823   2.186   0.340 -1.2377 -0.4988 -2.2160
 3785TIP3    H232847   0.731   2.075   0.386  0.8106 -0.7978  1.6011
 3786TIP3   OH232848   2.925   5.684   5.917  0.1491 -0.3972 -0.1180
 3786TIP3    H132849   2.835   5.706   5.942  0.1859 -0.8054  0.3928
 3786TIP3    H232850   2.979   5.728   5.983  0.3725  0.4893 -0.8686
 3787TIP3   OH232851   2.442   2.539   3.967  0.6813  0.5520 -1.0931
 3787TIP3    H132852   2.459   2.445   3.964 -2.5889 -0.1873 -0.5472
 3787TIP3    H232853   2.390   2.557   3.889 -0.2617  1.4879 -0.2992
 3788TIP3   OH232854   2.607   0.601   2.969 -0.0849  0.1251  0.3236
 3788TIP3    H132855   2.614   0.576   2.877  0.2760 -0.1971  0.4366
 3788TIP3    H232856   2.520   0.571   2.996 -0.3436  0.5636 -0.0139
 3789TIP3   OH232857   4.032   1.365  12.785  0.2863 -0.1294  0.7024
 3789TIP3    H132858   3.973   1.364  12.710 -0.1960  1.0197  1.0433
 3789TIP3    H232859   4.119   1.380  12.747 -0.1730  2.3561  0.4404
 3790TIP3   OH232860   1.392   1.931  13.808  0.0797 -0.4162 -0.1595
 3790TIP3    H132861   1.419   2.022  13.801  2.1729 -1.0367 -0.8673
 3790TIP3    H232862   1.388   1.914  13.902 -2.5843  0.9489  0.0822
 3791TIP3   OH232863   2.502   5.357   1.816 -0.0528  0.5807  0.0002
 3791TIP3    H132864   2.524   5.321   1.902  2.0516  0.8993 -0.3665
 3791TIP3    H232865   2.584   5.357   1.768 -1.4951 -1.5471 -2.7814
 3792TIP3   OH232866   4.003   1.090  14.281 -0.0861  0.1209 -0.2042
 3792TIP3    H132867   3.978   1.134  14.200 -2.4300  0.4084  0.5949
 3792TIP3    H232868   3.972   1.000  14.269  1.7464 -0.5095 -0.5324
 3793TIP3   OH232869   0.831   6.161   5.810  1.2262 -0.1266  0.0990
 3793TIP3    H132870   0.826   6.210   5.728  1.0047 -0.3066  0.0025
 3793TIP3    H232871   0.755   6.191   5.860  0.2385 -1.4267 -0.5567
 3794TIP3   OH232872   3.781   4.349  13.108 -0.1192 -0.1616  0.6567
 3794TIP3    H132873   3.712   4.288  13.133 -0.8885 -0.7827 -2.5432
 3794TIP3    H232874   3.854   4.294  13.079  0.4297  0.4674  0.7928
 3795TIP3   OH232875   4.659   5.918   5.139  0.5836  0.0786 -0.5563
 3795TIP3    H132876   4.611   5.869   5.072  0.1188  0.8891 -0.8322
 3795TIP3    H232877   4.649   5.866   5.219  0.6776 -0.6192 -0.9970
 3796TIP3   OH232878   1.763   0.915   0.049  0.5993  0.3570 -0.1789
 3796TIP3    H132879   1.718   0.999   0.035  2.1737  1.0969 -1.1642
 3796TIP3    H232880   1.824   0.933   0.121  0.7017 -0.0290 -0.1700
 3797TIP3   OH232881   1.028   1.286  11.285 -0.1717 -0.2405  0.1077
 3797TIP3    H132882   1.079   1.232  11.346 -0.5620 -0.4323  0.2696
 3797TIP3    H232883   1.079   1.367  11.276 -0.2678 -0.0821  0.9341
 3798TIP3   OH232884   3.147   6.503   1.296 -0.1599 -0.0981 -1.2129
 3798TIP3    H132885   3.134   6.513   1.391 -0.2395 -1.2125 -1.0865
 3798TIP3    H232886   3.119   6.413   1.278 -1.1267  0.4176 -2.4705
 3799TIP3   OH232887   3.988   4.859  14.956  0.6371  0.2407  0.2223
 3799TIP3    H132888   4.077   4.860  14.991  0.1501  0.5687  1.5237
 3799TIP3    H232889   3.977   4.772  14.920  0.7767 -0.5766  2.0371
 3800TIP3   OH232890   2.662   1.457   4.309  0.3970  0.2302 -0.2565
 3800TIP3    H132891   2.614   1.390   4.358  0.7232 -0.2874 -0.6349
 3800TIP3    H232892   2.661   1.426   4.218 -0.5315  1.3605 -0.6697
 3801TIP3   OH232893   5.497   2.636   3.358  0.1693 -0.9974  0.0025
 3801TIP3    H132894   5.463   2.579   3.289 -0.1741 -0.4094 -0.3262
 3801TIP3    H232895   5.436   2.710   3.359 -0.3630 -1.4267  1.5534
 3802TIP3   OH232896   4.404   2.312   6.296  0.2848  0.0310 -0.2645
 3802TIP3    H132897   4.391   2.398   6.256  0.8769 -1.2198 -3.4815
 3802TIP3    H232898   4.499   2.301   6.298  0.2888  0.1186  1.8364
 3803TIP3   OH232899   2.956   0.405   1.696 -0.3629  0.2797 -0.1666
 3803TIP3    H132900   2.863   0.383   1.698 -0.2731 -0.4749 -2.1518
 3803TIP3    H232901   2.958   0.501   1.706 -1.6115  0.6709 -2.7536
 3804TIP3   OH232902   3.528   4.500   5.762  0.3496  0.2464  0.3036
 3804TIP3    H132903   3.488   4.577   5.803 -2.4206  0.0495 -1.7698
 3804TIP3    H232904   3.455   4.446   5.734  2.1998 -2.3912  0.2042
 3805TIP3   OH232905   5.919   6.420   5.459  0.0289 -0.0789 -0.0406
 3805TIP3    H132906   5.900   6.440   5.367  0.3758  0.1759 -0.0595
 3805TIP3    H232907   6.011   6.446   5.470  0.6404 -1.9782 -0.1796
 3806TIP3   OH232908   4.408   4.538   4.264  0.0601 -0.0917  0.2244
 3806TIP3    H132909   4.344   4.531   4.193 -1.1102  0.9932  1.1376
 3806TIP3    H232910   4.469   4.606   4.235 -0.7131  0.7154  0.4582
 3807TIP3   OH232911   3.394   5.018  16.636 -0.4946 -0.0315  0.7147
 3807TIP3    H132912   3.476   5.049  16.597 -0.7453 -0.6598 -0.3613
 3807TIP3    H232913   3.352   4.968  16.566 -1.7383  0.1712  1.2917
 3808TIP3   OH232914   4.728   6.255  12.772 -0.1759  0.2060 -0.4490
 3808TIP3    H132915   4.759   6.314  12.841 -1.9511 -0.3674  0.9268
 3808TIP3    H232916   4.637   6.281  12.757 -0.0780 -0.2310 -2.0245
 3809TIP3   OH232917   2.168   3.547  11.464 -0.0488 -0.0014  0.4213
 3809TIP3    H132918   2.171   3.580  11.554  0.5008  0.3021  0.2974
 3809TIP3    H232919   2.256   3.564  11.430  1.1584 -3.8373  1.1371
 3810TIP3   OH232920   1.959   3.799   2.220  0.0741  0.4524 -0.4848
 3810TIP3    H132921   1.888   3.739   2.198  0.8733 -0.1781 -1.3993
 3810TIP3    H232922   1.999   3.821   2.136 -0.1516  2.2423 -0.1840
 3811TIP3   OH232923   6.763   5.805  16.552 -0.1967 -0.0318 -0.5824
 3811TIP3    H132924   6.814   5.752  16.490  2.0091  0.2059  0.8879
 3811TIP3    H232925   6.802   5.893  16.544 -1.4207  0.5360 -0.4575
 3812TIP3   OH232926   5.317   4.105   5.550  0.3500  0.5540 -0.1783
 3812TIP3    H132927   5.229   4.074   5.527  1.3521 -1.5794 -1.5058
 3812TIP3    H232928   5.313   4.118   5.645 -0.8540 -1.5671  0.1351
 3813TIP3   OH232929   0.808   3.842   3.016  0.6265 -0.2585 -0.2820
 3813TIP3    H132930   0.776   3.874   2.931 -0.0490 -1.7235 -0.6168
 3813TIP3    H232931   0.750   3.884   3.080  1.2619  1.0065 -0.5112
 3814TIP3   OH232932   2.946   5.084   4.889 -0.1119 -0.4001  0.0803
 3814TIP3    H132933   2.902   5.045   4.964  0.2368 -0.9796 -0.0099
 3814TIP3    H232934   3.032   5.109   4.922 -0.3552  0.3742  0.1562
 3815TIP3   OH232935   1.514   0.980   1.533  0.1852  0.0789 -0.1916
 3815TIP3    H132936   1.486   0.890   1.548 -1.0162  0.5070  0.3661
 3815TIP3    H232937   1.434   1.025   1.504  0.2498  1.3813  1.4550
 3816TIP3   OH232938   1.294   3.823  12.120  0.5126 -0.4179 -0.2648
 3816TIP3    H132939   1.246   3.807  12.039  0.1630 -1.2943  0.1060
 3816TIP3    H232940   1.297   3.738  12.164 -0.8780  0.3928  1.5089
 3817TIP3   OH232941   0.293   3.775  13.725 -0.2096  0.2645  0.5570
 3817TIP3    H132942   0.293   3.819  13.810 -1.0638 -0.4887  0.9550
 3817TIP3    H232943   0.210   3.729  13.721 -0.3943  0.6751 -0.9053
 3818TIP3   OH232944   4.798   4.468   2.646 -0.0111  0.3697  0.0508
 3818TIP3    H132945   4.855   4.545   2.648 -1.1075  1.1995  0.3671
 3818TIP3    H232946   4.714   4.500   2.680 -0.7194 -0.7772 -0.5711
 3819TIP3   OH232947   6.131   3.958  11.405  0.3149 -0.6980 -0.0407
 3819TIP3    H132948   6.185   4.005  11.342 -1.1969 -0.6853 -1.3771
 3819TIP3    H232949   6.194   3.908  11.458  2.0262  2.7418  1.4715
 3820TIP3   OH232950   6.276   1.250   1.348  0.7267 -0.4028 -0.4182
 3820TIP3    H132951   6.254   1.319   1.411 -0.3215 -0.2180 -0.9606
 3820TIP3    H232952   6.255   1.288   1.263  1.0893 -1.0393 -0.7984
 3821TIP3   OH232953   4.500   4.656  12.207  0.0181  0.2368 -0.1893
 3821TIP3    H132954   4.490   4.561  12.203  1.2236  0.1158 -0.7687
 3821TIP3    H232955   4.485   4.685  12.117  0.5281  0.4888 -0.1996
 3822TIP3   OH232956   1.039   2.129  13.474 -0.6969  0.0930 -0.0858
 3822TIP3    H132957   1.058   2.088  13.559  0.2739  0.2899 -0.1907
 3822TIP3    H232958   1.118   2.112  13.422 -0.7720  1.0495 -0.5240
 3823TIP3   OH232959   0.557   4.667   2.728 -0.0495 -0.4066 -0.4919
 3823TIP3    H132960   0.600   4.691   2.646  0.5203 -0.4166 -0.2085
 3823TIP3    H232961   0.469   4.641   2.703 -0.7207  1.9868 -0.8243
 3824TIP3   OH232962   4.153   2.745   2.126  0.4658 -0.4405  0.3277
 3824TIP3    H132963   4.058   2.749   2.134  0.5976  1.3292  1.3554
 3824TIP3    H232964   4.168   2.734   2.032 -0.7422 -0.4947  0.1219
 3825TIP3   OH232965   5.008   1.195  13.106  0.4134 -0.1646 -0.5559
 3825TIP3    H132966   4.973   1.107  13.091 -1.6202  0.1875  1.6758
 3825TIP3    H232967   5.098   1.180  13.135 -0.0026 -1.5615  0.0841
 3826TIP3   OH232968   2.490   2.414  13.426  0.4020  0.2583  0.6071
 3826TIP3    H132969   2.515   2.490  13.374 -0.3772 -0.5122 -0.9547
 3826TIP3    H232970   2.396   2.423  13.440  0.3199 -0.3423  0.5023
 3827TIP3   OH232971   0.004   2.210  10.725 -0.2295 -0.0215 -0.1976
 3827TIP3    H132972  -0.056   2.277  10.694  0.9358  1.0329 -0.2344
 3827TIP3    H232973   0.049   2.250  10.800  1.4810 -0.2170 -1.0742
 3828TIP3   OH232974   6.355   2.073  12.541  0.1383  0.2081  0.1092
 3828TIP3    H132975   6.308   1.993  12.519 -0.5366  0.4424  0.6352
 3828TIP3    H232976   6.403   2.097  12.462  1.1749 -1.2685  0.2608
 3829TIP3   OH232977   0.218   4.643   5.628 -0.1517  0.2015  0.1483
 3829TIP3    H132978   0.196   4.591   5.706 -0.1682  0.0740  0.0592
 3829TIP3    H232979   0.280   4.589   5.580  0.6639  0.7240  0.5860
 3830TIP3   OH232980   4.766   4.445   5.950  0.2708 -0.3823  0.1148
 3830TIP3    H132981   4.701   4.435   6.020 -0.4260 -1.2535 -0.6346
 3830TIP3    H232982   4.842   4.483   5.993 -0.0817 -1.0736  1.3862
 3831TIP3   OH232983   0.193   1.960  15.208 -0.3325  0.0454  0.2101
 3831TIP3    H132984   0.132   2.030  15.187  0.1074  0.0629 -1.0945
 3831TIP3    H232985   0.272   2.005  15.238  0.1500  0.1592 -1.1633
 3832TIP3   OH232986   2.675   4.143  14.582  0.3124  0.2809  0.5014
 3832TIP3    H132987   2.630   4.190  14.652 -2.0190  1.8729 -1.9002
 3832TIP3    H232988   2.759   4.189  14.573 -0.0536  1.1177  1.1739
 3833TIP3   OH232989   2.695   6.041  13.859 -0.4462 -0.2636 -0.2784
 3833TIP3    H132990   2.676   6.102  13.787 -1.5547 -0.1252  0.1068
 3833TIP3    H232991   2.778   6.001  13.835 -0.4327  0.3207 -1.2754
 3834TIP3   OH232992   3.211   1.044  11.344 -0.0006  0.1629  0.2663
 3834TIP3    H132993   3.149   0.974  11.362  0.4973 -0.4613 -0.3712
 3834TIP3    H232994   3.198   1.107  11.415 -1.8804  0.4209 -0.2510
 3835TIP3   OH232995   2.718   0.994   4.518 -0.1571  0.5539  0.0689
 3835TIP3    H132996   2.797   0.945   4.496 -2.0577 -1.9389 -1.6579
 3835TIP3    H232997   2.712   0.988   4.613  0.7390 -0.8271  0.0661
 3836TIP3   OH232998   5.901   4.473   6.002  0.2129  0.5538  0.2156
 3836TIP3    H132999   5.978   4.446   5.951  0.7741  1.4099  0.5771
 3836TIP3    H233000   5.885   4.563   5.975 -1.5776 -0.0462 -0.9218
 3837TIP3   OH233001   4.212   6.264   4.067 -0.4149 -0.1205  0.0641
 3837TIP3    H133002   4.241   6.241   4.156  0.9633  0.3478 -0.2279
 3837TIP3    H233003   4.211   6.181   4.020  0.5758 -0.1536  0.0734
 3838TIP3   OH233004   1.434   6.360   2.149  0.2412 -0.0190  0.1884
 3838TIP3    H133005   1.340   6.368   2.163 -0.0061  0.6755 -1.6386
 3838TIP3    H233006   1.467   6.450   2.159  0.3493  0.1386 -1.4423
 3839TIP3   OH233007   5.931   4.599  13.017  0.2014 -0.0627  0.1333
 3839TIP3    H133008   5.995   4.627  13.082  0.0641  0.1412  0.1791
 3839TIP3    H233009   5.902   4.680  12.975  1.4997 -0.3055 -1.3142
 3840TIP3   OH233010   3.304   2.211  14.805 -0.0039  0.2025  0.4582
 3840TIP3    H133011   3.301   2.267  14.883 -1.9061  2.0237 -0.8289
 3840TIP3    H233012   3.212   2.195  14.783  0.4805 -2.4148 -0.0057
 3841TIP3   OH233013   4.173   4.854   0.507  0.3355  1.3913 -0.2957
 3841TIP3    H133014   4.261   4.818   0.501 -0.0354  0.5610 -1.1913
 3841TIP3    H233015   4.158   4.868   0.600  0.3422 -1.3267  0.1996
 3842TIP3   OH233016   0.685   4.709   1.709  0.1527 -0.1116  0.1361
 3842TIP3    H133017   0.760   4.659   1.744 -1.1524 -1.4671  1.1151
 3842TIP3    H233018   0.609   4.671   1.752 -1.1763  0.8704 -1.2455
 3843TIP3   OH233019   5.292   5.249   5.876  0.1429 -0.1256  0.1485
 3843TIP3    H133020   5.372   5.204   5.903 -1.2464 -2.2620  0.9192
 3843TIP3    H233021   5.237   5.251   5.954 -0.9918  0.3085 -0.6271
 3844TIP3   OH233022   1.192   1.121   5.312  0.1284 -0.7870 -0.3613
 3844TIP3    H133023   1.207   1.208   5.348  2.3004 -1.0128 -0.5887
 3844TIP3    H233024   1.145   1.137   5.230  0.1811  0.1418 -0.2211
 3845TIP3   OH233025   4.999   2.149   4.839 -0.0811 -0.1931  0.6810
 3845TIP3    H133026   4.994   2.054   4.848 -0.9027 -0.3197 -0.8425
 3845TIP3    H233027   4.937   2.182   4.905 -0.2610 -0.7434  0.7914
 3846TIP3   OH233028   0.159   2.035  11.656  1.0039  0.5942  0.0812
 3846TIP3    H133029   0.122   2.121  11.676  2.0475  0.9431  0.6255
 3846TIP3    H233030   0.115   2.007  11.576 -0.9819  0.6202  1.1016
 3847TIP3   OH233031   1.165   6.547  17.090 -0.1318 -0.1602  0.3884
 3847TIP3    H133032   1.198   6.607  17.157 -1.0423  0.9871 -0.1693
 3847TIP3    H233033   1.123   6.477  17.140  1.8558 -0.9466  1.0757
 3848TIP3   OH233034   6.390   4.136  15.840  0.6385 -0.8540  0.2587
 3848TIP3    H133035   6.302   4.162  15.812  0.7862  0.5264  0.9725
 3848TIP3    H233036   6.448   4.179  15.777  0.8884  0.6952  1.4750
 3849TIP3   OH233037   2.817   3.786   0.897 -0.2572 -0.1979 -0.2134
 3849TIP3    H133038   2.908   3.816   0.898 -0.2843 -0.1156  0.0182
 3849TIP3    H233039   2.766   3.866   0.908 -0.3557 -0.2531 -0.2686
 3850TIP3   OH233040   6.738   6.542  11.670  0.5740 -0.0727  0.7991
 3850TIP3    H133041   6.686   6.622  11.679  1.4529  0.4383  1.5058
 3850TIP3    H233042   6.722   6.513  11.580 -0.7773  0.1600  0.9343
 3851TIP3   OH233043   3.571   4.357  14.344 -0.2243  0.0971 -0.7790
 3851TIP3    H133044   3.500   4.293  14.353  0.3574 -0.4676 -0.0514
 3851TIP3    H233045   3.569   4.382  14.252 -0.8053 -0.5693 -0.9580
 3852TIP3   OH233046   4.077   0.441  15.319 -0.0182 -0.3749 -0.2741
 3852TIP3    H133047   4.037   0.455  15.405  1.3618  3.7653 -0.0465
 3852TIP3    H233048   4.127   0.360  15.328 -0.0438 -0.1693  2.8053
 3853TIP3   OH233049   1.338   6.614   3.681  0.7782  0.2830  0.0153
 3853TIP3    H133050   1.371   6.528   3.708  0.9177  0.1572 -0.5527
 3853TIP3    H233051   1.387   6.636   3.603 -0.4110  0.1265 -0.8051
 3854TIP3   OH233052   1.591   0.538   0.847  0.4849 -0.0777 -0.7697
 3854TIP3    H133053   1.610   0.449   0.816 -1.1338 -0.2937 -1.2143
 3854TIP3    H233054   1.525   0.571   0.786  0.3402  1.0624 -0.0164
 3855TIP3   OH233055   3.484   4.208   4.854  0.0255  0.2399 -0.1144
 3855TIP3    H133056   3.505   4.240   4.766  1.3563 -0.4645 -0.0883
 3855TIP3    H233057   3.511   4.278   4.913  3.0439 -0.8519 -0.0464
 3856TIP3   OH233058   0.481   5.821  14.444  0.0674 -0.2193  0.2759
 3856TIP3    H133059   0.403   5.766  14.433  1.7810 -3.0932  1.3942
 3856TIP3    H233060   0.479   5.845  14.536  0.7178 -0.7193  0.4267
 3857TIP3   OH233061   6.658   3.576  14.648 -0.1985 -0.4071  0.0010
 3857TIP3    H133062   6.651   3.511  14.579 -0.0208 -0.0764 -0.3319
 3857TIP3    H233063   6.706   3.532  14.718  1.7517  0.0009 -1.0218
 3858TIP3   OH233064   5.821   6.010   2.037 -0.1676  0.7278  0.6356
 3858TIP3    H133065   5.820   6.021   2.132 -0.2574 -1.2731  0.9130
 3858TIP3    H233066   5.749   5.950   2.019  0.5237  0.2134 -0.5628
 3859TIP3   OH233067   2.792   0.090   3.976  0.7627  0.7497 -0.2486
 3859TIP3    H133068   2.775   0.047   3.893  1.7982  0.2949 -0.2418
 3859TIP3    H233069   2.861   0.153   3.957  0.2519  1.4073  0.0421
 3860TIP3   OH233070   3.597   5.368  10.598 -0.0150 -0.0867 -0.2283
 3860TIP3    H133071   3.517   5.417  10.579 -0.5372 -0.7016  0.3310
 3860TIP3    H233072   3.587   5.340  10.689  0.3674 -1.0440 -0.4696
 3861TIP3   OH233073   3.483   2.597  13.113  0.9514  0.9757  0.1146
 3861TIP3    H133074   3.520   2.511  13.135 -1.9484 -0.4506 -0.0593
 3861TIP3    H233075   3.525   2.622  13.031  0.6642 -1.1176 -0.7209
 3862TIP3   OH233076   0.725   6.471   0.857  0.3781 -0.1008  0.2836
 3862TIP3    H133077   0.765   6.385   0.842 -2.1594 -0.9298 -2.8179
 3862TIP3    H233078   0.636   6.452   0.884  0.3725  1.6404  1.7006
 3863TIP3   OH233079   3.033   1.337  15.626 -0.2395 -0.0143 -0.2242
 3863TIP3    H133080   3.020   1.431  15.611  3.1269  0.5079 -0.8441
 3863TIP3    H233081   3.006   1.296  15.544  0.2932  0.6966 -0.7749
 3864TIP3   OH233082   5.309   3.993   1.263 -0.0114 -0.5064  0.9815
 3864TIP3    H133083   5.296   3.985   1.169  0.3119 -0.2315  0.9108
 3864TIP3    H233084   5.337   3.905   1.290 -0.8600 -0.7888  0.9530
 3865TIP3   OH233085   6.583   4.370  16.875  0.1152 -0.1397 -0.2937
 3865TIP3    H133086   6.622   4.331  16.953 -0.9001 -1.1862 -0.2777
 3865TIP3    H233087   6.512   4.426  16.909  0.1986  0.0488 -0.4275
 3866TIP3   OH233088   2.393   5.935  13.751 -0.3590 -0.1370 -0.3390
 3866TIP3    H133089   2.411   5.842  13.768 -0.5461  0.0841  1.2029
 3866TIP3    H233090   2.347   5.965  13.830 -0.2076  1.2961 -0.7759
 3867TIP3   OH233091   2.532   6.032   5.795 -0.6159 -0.5436 -0.1998
 3867TIP3    H133092   2.584   6.037   5.715  0.3303  0.0039  0.4438
 3867TIP3    H233093   2.589   5.988   5.858 -0.3771  1.3089  0.9322
 3868TIP3   OH233094   6.137   4.474   3.763 -0.5895 -0.5691  0.7543
 3868TIP3    H133095   6.050   4.435   3.757 -0.0532 -2.0784  2.1561
 3868TIP3    H233096   6.141   4.513   3.850 -0.2936  0.6403  0.2203
 3869TIP3   OH233097   4.970   2.390   6.159  0.2121 -0.2661  0.7869
 3869TIP3    H133098   4.935   2.345   6.237  0.0955 -0.1390  0.8082
 3869TIP3    H233099   5.055   2.350   6.145 -0.3974 -1.3612  0.0801
 3870TIP3   OH233100   2.074   5.212  11.191 -0.1401 -0.0203 -0.1412
 3870TIP3    H133101   2.044   5.249  11.274  0.8804  0.8059 -0.1102
 3870TIP3    H233102   2.163   5.245  11.181  1.0274 -2.8574  0.0725
 3871TIP3   OH233103   0.127   2.528  12.544  0.1767 -0.7800  0.3056
 3871TIP3    H133104   0.213   2.487  12.557  1.0767  1.0220  0.4044
 3871TIP3    H233105   0.075   2.501  12.619  1.0010 -1.0697  0.7829
 3872TIP3   OH233106   1.513   6.485   2.525 -0.4173 -0.3957  0.2742
 3872TIP3    H133107   1.485   6.394   2.523  0.4019 -0.6531 -1.6130
 3872TIP3    H233108   1.608   6.480   2.533 -0.3047  0.2485 -0.5108
 3873TIP3   OH233109   4.263   5.092   3.690 -0.3662  0.2384 -0.3414
 3873TIP3    H133110   4.334   5.100   3.753  0.6697  0.6766 -1.5167
 3873TIP3    H233111   4.201   5.161   3.716 -0.4309 -0.2056  0.7473
 3874TIP3   OH233112   1.469   5.738   1.893  0.6883 -0.1798  0.3405
 3874TIP3    H133113   1.544   5.680   1.903  0.8301  0.0589  0.6490
 3874TIP3    H233114   1.502   5.813   1.844  0.7543  0.1202  0.8378
 3875TIP3   OH233115   2.467   0.890  16.817 -1.0445 -0.1509  0.2824
 3875TIP3    H133116   2.557   0.856  16.819 -0.1859  1.9179 -0.4239
 3875TIP3    H233117   2.449   0.902  16.724 -1.0627  1.8440  0.5096
 3876TIP3   OH233118   3.864   5.299   2.169 -0.0827 -0.2597  0.4698
 3876TIP3    H133119   3.827   5.218   2.134  0.9789 -1.0797  1.1559
 3876TIP3    H233120   3.793   5.363   2.163 -0.5964 -0.9268 -1.1305
 3877TIP3   OH233121   5.589   0.984  15.974 -0.4056 -0.3408 -0.6491
 3877TIP3    H133122   5.675   0.959  15.938 -0.3860 -0.3600 -0.5888
 3877TIP3    H233123   5.556   0.905  16.015  1.0075  0.4133  2.2635
 3878TIP3   OH233124   6.753   3.398  17.220  0.5939 -0.4007 -0.0878
 3878TIP3    H133125   6.764   3.397  17.125  0.1012 -0.7420 -0.1445
 3878TIP3    H233126   6.750   3.306  17.244  0.6103 -0.3130  0.2483
 3879TIP3   OH233127   2.305   2.175   5.438 -0.3442 -0.3376 -0.1352
 3879TIP3    H133128   2.312   2.091   5.393  2.2367 -0.4285  0.2820
 3879TIP3    H233129   2.393   2.191   5.472 -1.3817  1.2940  2.0490
 3880TIP3   OH233130   3.112   5.069  15.500 -0.0465 -0.0323 -0.1541
 3880TIP3    H133131   3.166   5.091  15.576 -1.1141  0.9350  0.3596
 3880TIP3    H233132   3.056   4.997  15.529 -2.9194  2.5082  1.2758
 3881TIP3   OH233133   2.317   1.217   0.651 -0.2243 -0.2811  0.0209
 3881TIP3    H133134   2.351   1.282   0.712 -0.1722 -0.5545  0.2851
 3881TIP3    H233135   2.231   1.193   0.688 -0.4346 -0.0444 -0.3100
 3882TIP3   OH233136   4.010   4.251  12.992 -0.5399  0.2554  0.0466
 3882TIP3    H133137   4.009   4.303  12.912 -1.0526 -2.1839 -1.6370
 3882TIP3    H233138   4.099   4.216  12.998 -0.1781  1.2964  1.1993
 3883TIP3   OH233139   5.548   1.842  14.616  0.1948 -0.0788  0.3047
 3883TIP3    H133140   5.545   1.885  14.702  1.5258  1.9825 -0.5996
 3883TIP3    H233141   5.498   1.899  14.559  0.8555 -0.4389 -0.6603
 3884TIP3   OH233142   5.769   3.885   3.506  0.3124 -0.0036  0.2361
 3884TIP3    H133143   5.769   3.972   3.545  3.1978 -0.3678  1.3034
 3884TIP3    H233144   5.854   3.848   3.530 -0.4325 -2.7705 -0.9780
 3885TIP3   OH233145   3.078   5.145   3.300  0.3207 -0.1599 -0.0323
 3885TIP3    H133146   3.094   5.229   3.343  0.6914  0.5150 -1.4566
 3885TIP3    H233147   3.098   5.080   3.367  1.2186  0.8527  0.7121
 3886TIP3   OH233148   5.871   4.658  11.339 -0.0126 -0.2997  0.3578
 3886TIP3    H133149   5.914   4.697  11.415  0.2176 -0.7700  0.4721
 3886TIP3    H233150   5.886   4.564  11.348  2.6717 -0.2097 -1.8382
 3887TIP3   OH233151   5.687   2.349  11.338  0.5177 -0.7033  0.2342
 3887TIP3    H133152   5.756   2.392  11.388  0.0517  0.9923 -0.5002
 3887TIP3    H233153   5.724   2.340  11.250 -0.5485  1.2673 -0.4666
 3888TIP3   OH233154   0.643   2.011  16.158  0.4808 -0.2458 -0.2820
 3888TIP3    H133155   0.602   2.048  16.237  1.1895  0.5238 -0.2682
 3888TIP3    H233156   0.660   1.920  16.181 -0.3926 -0.3392  0.0342
 3889TIP3   OH233157   1.677   1.635   3.882 -0.5785 -0.7044  0.0034
 3889TIP3    H133158   1.722   1.702   3.831  0.7940 -2.0255 -0.6055
 3889TIP3    H233159   1.665   1.674   3.968 -2.2716  1.3088 -1.0615
 3890TIP3   OH233160   5.701   6.382   2.204  0.1895 -0.2185  0.4072
 3890TIP3    H133161   5.783   6.373   2.253  0.1902 -1.8933  0.1315
 3890TIP3    H233162   5.632   6.376   2.271  0.2432  1.5778  0.6940
 3891TIP3   OH233163   4.791   4.558   5.705  0.0218 -0.5413 -0.1562
 3891TIP3    H133164   4.702   4.546   5.674 -0.6498 -0.9565  1.8229
 3891TIP3    H233165   4.803   4.492   5.773  0.3949  2.0443  2.4887
 3892TIP3   OH233166   1.141   5.068   6.671 -0.6417 -0.1627 -0.2728
 3892TIP3    H133167   1.178   5.116   6.745  0.8307  0.3707 -1.3231
 3892TIP3    H233168   1.053   5.043   6.701 -0.8953  1.8633  0.8744
 3893TIP3   OH233169   3.134   4.689  12.167 -0.0530 -0.0683 -0.3006
 3893TIP3    H133170   3.177   4.765  12.207 -0.4707 -0.3781  0.7933
 3893TIP3    H233171   3.063   4.667  12.228 -0.0717 -1.2080 -0.7074
 3894TIP3   OH233172   6.117   6.538   6.137  0.2411 -0.1810 -0.4607
 3894TIP3    H133173   6.187   6.474   6.148  0.8444  0.3128 -1.3321
 3894TIP3    H233174   6.132   6.603   6.205 -0.6951 -1.2159  0.7837
 3895TIP3   OH233175   6.235   5.358   1.588 -0.0577  0.3680 -0.1783
 3895TIP3    H133176   6.227   5.453   1.578  1.9284  0.4720 -1.3260
 3895TIP3    H233177   6.150   5.323   1.563 -0.4631  1.7867 -0.8111
 3896TIP3   OH233178   1.307   6.370   5.541  0.0382 -0.1843  0.5844
 3896TIP3    H133179   1.289   6.327   5.458  1.1970  1.1955 -0.4376
 3896TIP3    H233180   1.245   6.443   5.544  0.1570 -0.0912  0.8291
 3897TIP3   OH233181   0.028   2.853   3.064  0.5985  0.2425  0.3367
 3897TIP3    H133182   0.039   2.913   3.137 -0.7572  0.1016  0.6678
 3897TIP3    H233183   0.113   2.810   3.055  1.5125  1.9845  0.2691
 3898TIP3   OH233184   6.768   0.529  13.196 -0.1244 -0.1807  0.5917
 3898TIP3    H133185   6.846   0.487  13.233 -0.2674 -0.7391  0.2878
 3898TIP3    H233186   6.695   0.480  13.234 -0.2870 -0.4066  0.0165
 3899TIP3   OH233187   6.120   1.449   0.256  0.3244 -0.3323 -0.1798
 3899TIP3    H133188   6.069   1.524   0.225  0.5115  0.4887  1.4062
 3899TIP3    H233189   6.097   1.378   0.196 -1.8849  0.2901 -0.1388
 3900TIP3   OH233190   4.190   2.484  15.614  0.1355 -0.2771  0.1259
 3900TIP3    H133191   4.275   2.440  15.613 -0.7219 -2.0237 -0.9042
 3900TIP3    H233192   4.146   2.449  15.691  0.4561  0.9293  0.8871
 3901TIP3   OH233193   1.663   6.765   0.289  0.2167  0.3384  0.2297
 3901TIP3    H133194   1.602   6.704   0.329  1.2423 -0.1916  1.0294
 3901TIP3    H233195   1.746   6.718   0.288  0.8319  1.4012  0.0546
 3902TIP3   OH233196   5.986   0.496  13.524 -0.3146 -1.0857 -0.1225
 3902TIP3    H133197   5.943   0.443  13.457  1.2008 -0.3290 -1.7601
 3902TIP3    H233198   6.076   0.466  13.525 -0.3838 -1.3617  1.9261
 3903TIP3   OH233199   5.480   3.978  11.031  0.1701 -0.5761  0.2572
 3903TIP3    H133200   5.539   4.041  10.990  0.3134 -1.4710 -0.9922
 3903TIP3    H233201   5.401   3.981  10.976 -0.7532  0.1836  1.5645
 3904TIP3   OH233202   0.048   3.597  12.666  0.0788 -0.2572  0.5080
 3904TIP3    H133203  -0.006   3.668  12.632  1.8662  0.3846 -1.1500
 3904TIP3    H233204  -0.015   3.526  12.682 -1.4341  0.9100  0.0390
 3905TIP3   OH233205   1.009   2.489   1.463 -0.5785 -0.1252 -0.2408
 3905TIP3    H133206   0.997   2.440   1.381  0.4141 -1.9631  0.6545
 3905TIP3    H233207   0.929   2.472   1.513 -1.3763  1.3507 -0.9551
 3906TIP3   OH233208   5.527   2.266  16.562 -0.6802  0.0105  0.3731
 3906TIP3    H133209   5.517   2.252  16.468 -1.5383 -0.5118  0.5307
 3906TIP3    H233210   5.607   2.219  16.585 -0.0907  0.7135 -0.2060
 3907TIP3   OH233211   3.036   6.668   3.838  0.1364 -0.4184 -0.2014
 3907TIP3    H133212   3.024   6.574   3.853 -0.7123  0.0380  2.4176
 3907TIP3    H233213   2.962   6.693   3.782  0.1088 -1.1966 -0.5275
 3908TIP3   OH233214   4.092   5.361  12.169  0.4173  0.0487 -0.0923
 3908TIP3    H133215   4.091   5.373  12.074 -0.6387  0.9762  0.0170
 3908TIP3    H233216   4.184   5.349  12.191  0.6408 -0.5038 -1.2622
 3909TIP3   OH233217   0.950   4.284   2.576  0.3092  0.1182 -0.6009
 3909TIP3    H133218   1.038   4.272   2.541  0.2957  0.3738 -0.7253
 3909TIP3    H233219   0.952   4.372   2.615  0.5058 -0.3743  0.5598
 3910TIP3   OH233220   1.643   5.405   3.168 -0.4377  0.2249 -0.1728
 3910TIP3    H133221   1.708   5.476   3.168  1.2342 -1.2614  0.1418
 3910TIP3    H233222   1.638   5.379   3.076  0.1824 -0.3395 -0.0487
 3911TIP3   OH233223   1.503   3.307  16.839 -0.5526 -0.5870 -0.2484
 3911TIP3    H133224   1.558   3.305  16.917 -0.5103  0.1216 -0.2541
 3911TIP3    H233225   1.494   3.400  16.818 -1.4888 -0.7112 -0.4337
 3912TIP3   OH233226   0.584   5.266  11.433  0.3887  0.3693  0.3130
 3912TIP3    H133227   0.505   5.213  11.445  0.7259 -0.1666  0.1872
 3912TIP3    H233228   0.552   5.356  11.429 -0.2778  0.1086 -0.3620
 3913TIP3   OH233229   3.718   6.284   1.529 -0.4770 -0.1251  0.0508
 3913TIP3    H133230   3.703   6.199   1.488  0.6612 -0.5518  0.4648
 3913TIP3    H233231   3.685   6.348   1.466  0.9861 -0.7594 -1.4356
 3914TIP3   OH233232   5.721   1.346  16.421  0.3309 -0.3314  0.4941
 3914TIP3    H133233   5.811   1.377  16.435  0.4128 -0.3239 -0.0452
 3914TIP3    H233234   5.684   1.340  16.509  0.6097  0.4079  0.6612
 3915TIP3   OH233235   5.516   1.512   0.060  0.0093 -0.5093 -0.4448
 3915TIP3    H133236   5.477   1.434   0.097 -0.4354 -0.1495 -0.1512
 3915TIP3    H233237   5.541   1.565   0.136  0.0217 -0.2275 -0.6425
 3916TIP3   OH233238   3.402   5.289   1.382  0.4875  0.4766  0.1382
 3916TIP3    H133239   3.494   5.284   1.359  0.1962  0.8710 -1.1986
 3916TIP3    H233240   3.366   5.205   1.355  0.5109  0.1895  0.9743
 3917TIP3   OH233241   1.672   1.675  12.089  0.2046 -0.3030 -0.2623
 3917TIP3    H133242   1.760   1.651  12.058 -0.1321 -0.6553 -0.9671
 3917TIP3    H233243   1.675   1.659  12.183  0.0566 -3.0664 -0.6462
 3918TIP3   OH233244   1.457   0.054  14.384 -0.7487 -0.3865 -0.4944
 3918TIP3    H133245   1.506   0.059  14.302  0.6659 -0.4765  0.3120
 3918TIP3    H233246   1.465  -0.038  14.411 -2.2062 -0.6287 -0.8319
 3919TIP3   OH233247   0.353   4.847  12.451 -0.0440  0.0031  0.4345
 3919TIP3    H133248   0.284   4.884  12.506  1.6305  1.2817  1.8236
 3919TIP3    H233249   0.337   4.884  12.364 -1.5095 -0.3394  0.5354
 3920TIP3   OH233250   3.611   6.343  13.626 -0.0178  0.3664  0.4072
 3920TIP3    H133251   3.570   6.270  13.580 -0.6412  0.1650  1.2735
 3920TIP3    H233252   3.688   6.364  13.573 -1.4083  1.0053 -1.4757
 3921TIP3   OH233253   4.768   0.927   5.288  0.4173  0.3509  0.4540
 3921TIP3    H133254   4.772   0.916   5.383  1.3595  0.4788  0.4440
 3921TIP3    H233255   4.693   0.984   5.273  1.0488  1.4244  1.2384
 3922TIP3   OH233256   4.572   4.060   2.628 -0.5605  0.6637  0.0549
 3922TIP3    H133257   4.582   4.002   2.704 -2.1549  0.6156  0.2581
 3922TIP3    H233258   4.544   4.143   2.665  0.1792  1.1134 -0.3721
 3923TIP3   OH233259   2.714   0.602   1.482  0.3437  0.5444 -0.1360
 3923TIP3    H133260   2.626   0.610   1.445  0.1753  2.3638  0.6026
 3923TIP3    H233261   2.707   0.530   1.544  0.0206 -0.9337 -1.7805
 3924TIP3   OH233262   3.913   5.947   5.180  0.9232  0.3708 -0.0872
 3924TIP3    H133263   3.880   6.026   5.137  1.9846  0.3157 -1.0429
 3924TIP3    H233264   3.837   5.912   5.227  0.1700  1.3713 -0.5241
 3925TIP3   OH233265   4.568   6.218  13.771 -0.4147  0.4181  0.2053
 3925TIP3    H133266   4.628   6.153  13.806  0.4241  1.8064  1.4531
 3925TIP3    H233267   4.617   6.260  13.700 -0.7312  0.1120 -0.2008
 3926TIP3   OH233268   4.847   0.920   2.251 -0.3184  0.2836 -0.1205
 3926TIP3    H133269   4.802   0.842   2.219  0.6646 -0.2352 -0.3066
 3926TIP3    H233270   4.792   0.993   2.224 -1.5316 -0.3680  0.5330
 3927TIP3   OH233271   6.724   4.874   3.389  0.3552 -0.4157  0.4091
 3927TIP3    H133272   6.809   4.837   3.412  0.0206 -1.0988  0.5535
 3927TIP3    H233273   6.660   4.814   3.426 -0.2397 -2.1774 -3.1254
 3928TIP3   OH233274   6.299   6.759   3.300 -0.0799  0.2736 -0.4436
 3928TIP3    H133275   6.385   6.718   3.292  0.5791  1.5698 -0.2116
 3928TIP3    H233276   6.265   6.728   3.384 -0.0232 -0.5471 -0.7132
 3929TIP3   OH233277   5.035   2.276   1.812  0.8068  0.7934  0.0959
 3929TIP3    H133278   5.010   2.225   1.890 -1.6765  2.0017  0.1795
 3929TIP3    H233279   5.082   2.351   1.847  0.4972  0.8662  0.3644
 3930TIP3   OH233280   2.788   4.584  12.966 -0.5062 -0.2030  0.7741
 3930TIP3    H133281   2.699   4.586  13.001 -0.5380  2.1285  0.6957
 3930TIP3    H233282   2.779   4.616  12.877  0.0175 -3.1098 -0.4244
 3931TIP3   OH233283   5.881   6.139  10.712 -0.3112  0.4040 -0.1561
 3931TIP3    H133284   5.924   6.198  10.650 -1.4475  1.6694  0.2024
 3931TIP3    H233285   5.848   6.067  10.659 -0.3965  0.9652 -0.8808
 3932TIP3   OH233286   0.985   5.548  13.681  0.2407 -0.2684 -0.2148
 3932TIP3    H133287   0.937   5.484  13.628  0.4310  0.3049 -1.1051
 3932TIP3    H233288   1.077   5.523  13.671  0.2488 -0.4126  0.2011
 3933TIP3   OH233289   4.580   0.966   6.131  0.0305  0.5975  0.2042
 3933TIP3    H133290   4.581   1.012   6.047 -0.2040  0.1964 -0.0191
 3933TIP3    H233291   4.548   0.878   6.110 -0.9697  0.7832  0.8512
 3934TIP3   OH233292   5.317   2.281   3.653 -0.5547  0.2203  0.4438
 3934TIP3    H133293   5.299   2.187   3.647 -1.2196  0.3725 -0.1365
 3934TIP3    H233294   5.333   2.297   3.745 -1.7465 -0.2443  0.7527
 3935TIP3   OH233295   3.454   3.279   3.751 -0.2057  0.3806  0.0936
 3935TIP3    H133296   3.407   3.199   3.729  0.6602 -0.3762  0.8942
 3935TIP3    H233297   3.545   3.251   3.764  0.2711  1.6224 -0.3680
 3936TIP3   OH233298   5.134   5.472   0.572  0.3397  0.2157  0.5834
 3936TIP3    H133299   5.136   5.544   0.635 -1.4706  1.6022 -0.8270
 3936TIP3    H233300   5.124   5.394   0.625 -1.2787  1.3457  2.0351
 3937TIP3   OH233301   1.445   3.244  13.159  0.3114 -0.6940  0.5639
 3937TIP3    H133302   1.498   3.165  13.153  1.5309  0.1298  0.0138
 3937TIP3    H233303   1.368   3.218  13.211  1.7561 -1.6638  2.3297
 3938TIP3   OH233304   0.774   3.467  16.955  0.2570  0.0031  0.1563
 3938TIP3    H133305   0.732   3.529  16.894 -0.4534 -0.4222  0.1951
 3938TIP3    H233306   0.865   3.496  16.960  0.6483 -0.6005 -1.9903
 3939TIP3   OH233307   5.870   2.836  16.883  0.3768  0.0780  0.0398
 3939TIP3    H133308   5.933   2.882  16.827 -0.0412  1.7425  0.8590
 3939TIP3    H233309   5.796   2.897  16.890 -0.1584 -0.6803  1.2656
 3940TIP3   OH233310   3.830   5.352  13.002  0.0038  0.2244 -0.0306
 3940TIP3    H133311   3.755   5.385  12.953 -0.4244 -1.3119 -0.4703
 3940TIP3    H233312   3.791   5.293  13.067  0.7790 -0.0893  0.1531
 3941TIP3   OH233313   0.365   5.533   2.625 -0.3239 -0.2559 -0.1175
 3941TIP3    H133314   0.420   5.539   2.547 -1.9949 -1.6799 -1.4864
 3941TIP3    H233315   0.365   5.622   2.660  2.2134 -0.0439 -0.4437
 3942TIP3   OH233316   1.467   0.757   5.591  0.4690 -0.5642 -0.0187
 3942TIP3    H133317   1.390   0.716   5.551  0.2162 -0.3318  0.2278
 3942TIP3    H233318   1.496   0.695   5.657  0.0740 -0.3424  0.3687
 3943TIP3   OH233319   5.660   2.951   4.342 -0.2186 -0.2234 -0.1031
 3943TIP3    H133320   5.622   2.880   4.290 -2.5054  1.7408 -1.3015
 3943TIP3    H233321   5.725   2.992   4.284  0.8711 -1.0576  0.4762
 3944TIP3   OH233322   6.048   1.889  12.482  0.2226  0.6086 -0.2624
 3944TIP3    H133323   6.083   1.801  12.496  0.3199  0.3053 -2.0892
 3944TIP3    H233324   6.045   1.928  12.569  1.3785 -0.7494  0.4314
 3945TIP3   OH233325   3.230   5.930  17.185 -0.3447  0.3277  0.3190
 3945TIP3    H133326   3.218   5.928  17.090  0.8872  0.8713  0.1285
 3945TIP3    H233327   3.210   6.020  17.210 -1.9791 -0.1234  0.8042
 3946TIP3   OH233328   0.420   4.671   0.833 -0.1687  0.5211 -0.4497
 3946TIP3    H133329   0.434   4.706   0.921  0.8370  2.2242 -1.2416
 3946TIP3    H233330   0.495   4.702   0.783  0.1231 -1.7819 -1.5578
 3947TIP3   OH233331   2.739   3.080   5.389 -0.2847 -0.0101 -0.3469
 3947TIP3    H133332   2.708   3.160   5.346  0.1014  0.3294 -0.0157
 3947TIP3    H233333   2.761   3.109   5.478 -3.2414 -1.1264  0.8685
 3948TIP3   OH233334   0.319   5.806   2.745  0.1945  0.6491  0.0791
 3948TIP3    H133335   0.334   5.799   2.840  1.2867 -0.1578 -0.1340
 3948TIP3    H233336   0.229   5.777   2.733  0.2471  0.1532  0.8050
 3949TIP3   OH233337   3.898   3.883  12.271 -0.1757  0.0774 -0.8531
 3949TIP3    H133338   3.836   3.821  12.310  0.3177 -0.0823 -0.3100
 3949TIP3    H233339   3.950   3.914  12.345 -1.6025  2.5670 -0.7936
 3950TIP3   OH233340   2.100   4.084   1.505  0.2214 -0.4322 -0.2222
 3950TIP3    H133341   2.024   4.028   1.488  1.3530 -2.1043  0.0178
 3950TIP3    H233342   2.086   4.118   1.593 -0.6438 -0.0497 -0.4962
 3951TIP3   OH233343   0.260   5.826   1.657  0.0640 -0.3369 -0.1650
 3951TIP3    H133344   0.232   5.748   1.609  1.3702 -0.5578 -0.6282
 3951TIP3    H233345   0.254   5.802   1.749 -1.7520 -0.1684 -0.2018
 3952TIP3   OH233346   1.377   4.715  11.999 -0.7458  0.5499 -0.1008
 3952TIP3    H133347   1.406   4.775  12.069  0.0568 -0.4644  0.4596
 3952TIP3    H233348   1.440   4.730  11.928 -0.2410  0.0411  0.2261
 3953TIP3   OH233349   5.633   2.811  11.506 -0.3041 -0.2542  0.1806
 3953TIP3    H133350   5.674   2.882  11.556  1.5104 -2.5393  2.2069
 3953TIP3    H233351   5.648   2.835  11.414 -1.5537  2.8930  0.6881
 3954TIP3   OH233352   4.959   1.939  11.947  0.2021  0.4339  0.0378
 3954TIP3    H133353   5.004   1.896  12.019  0.6313  0.8763  0.0382
 3954TIP3    H233354   4.973   2.032  11.961 -0.9189  0.6037  0.1702
 3955TIP3   OH233355   6.530   0.189  10.512  0.2498  0.4618  0.5205
 3955TIP3    H133356   6.549   0.125  10.443 -0.9200  2.5511 -1.8739
 3955TIP3    H233357   6.611   0.192  10.564  1.4638 -0.6472 -1.1964
 3956TIP3   OH233358   1.735   4.800  13.115 -0.0124  0.1240 -0.4428
 3956TIP3    H133359   1.664   4.794  13.051  0.6312  1.1722 -1.2974
 3956TIP3    H233360   1.732   4.891  13.146 -0.3060 -0.3600  1.0439
 3957TIP3   OH233361   5.601   0.275  15.511 -0.0772  0.1010 -0.0950
 3957TIP3    H133362   5.634   0.269  15.421  0.8403 -0.5688  0.2687
 3957TIP3    H233363   5.595   0.184  15.541  1.4807  0.3703  1.1605
 3958TIP3   OH233364   0.069   0.209  12.297  0.1036 -0.6062 -0.1640
 3958TIP3    H133365   0.084   0.116  12.286 -0.9190 -1.0270  1.5843
 3958TIP3    H233366   0.007   0.233  12.228 -0.0538 -1.3339 -0.2743
 3959TIP3   OH233367   4.197   4.895   0.052 -0.3582 -0.3154 -0.2000
 3959TIP3    H133368   4.180   4.939  -0.031  1.7950 -0.1447 -0.6026
 3959TIP3    H233369   4.289   4.870   0.048 -0.7807 -2.3909  1.1818
 3960TIP3   OH233370   0.175   2.944   0.151 -0.3147  0.5840  0.4706
 3960TIP3    H133371   0.153   2.911   0.064 -1.1953  2.8580 -0.2385
 3960TIP3    H233372   0.209   2.868   0.198 -0.2429 -0.7960 -1.7050
 3961TIP3   OH233373   6.425   3.286   0.639 -0.0653  0.0974 -0.2403
 3961TIP3    H133374   6.389   3.204   0.604  2.5276 -0.3642 -2.1731
 3961TIP3    H233375   6.441   3.340   0.561 -1.2344  2.2864  0.9583
 3962TIP3   OH233376   3.027   3.895  14.924 -0.3583 -0.0921  0.0736
 3962TIP3    H133377   3.033   3.834  14.997 -0.2453  1.5152  1.4755
 3962TIP3    H233378   3.108   3.946  14.929  0.7434 -1.3852 -2.5896
 3963TIP3   OH233379   4.287   5.784   2.860 -0.6274 -0.1801 -0.3822
 3963TIP3    H133380   4.364   5.840   2.865 -1.2366  0.8493 -2.0241
 3963TIP3    H233381   4.322   5.698   2.836 -0.0136  0.3502 -1.4296
 3964TIP3   OH233382   4.435   2.465  12.159 -0.0786 -0.2527  0.8057
 3964TIP3    H133383   4.360   2.409  12.178 -0.6393  0.1269 -0.2022
 3964TIP3    H233384   4.504   2.434  12.218 -0.8017 -1.0808  1.2367
 3965TIP3   OH233385   3.790   5.881   1.089 -0.1759 -0.3544 -0.3951
 3965TIP3    H133386   3.753   5.805   1.045  0.2734 -1.3442  0.8876
 3965TIP3    H233387   3.780   5.863   1.182 -0.0453  1.1580 -0.0562
 3966TIP3   OH233388   0.395   4.373  14.448 -0.4904  0.0971  0.0469
 3966TIP3    H133389   0.341   4.447  14.421  0.5304  0.8988  0.1221
 3966TIP3    H233390   0.485   4.404  14.437 -0.0417 -0.7044  1.2277
 3967TIP3   OH233391   1.204   5.492   3.708  0.1787 -0.4126 -0.3557
 3967TIP3    H133392   1.230   5.499   3.800 -3.1691 -0.3569  0.7143
 3967TIP3    H233393   1.243   5.410   3.679  1.2098 -0.5031  1.1460
 3968TIP3   OH233394   1.919   4.908  13.720 -0.2971  0.3115 -0.0037
 3968TIP3    H133395   1.845   4.856  13.750  0.0415 -0.4895 -0.5336
 3968TIP3    H233396   1.918   4.898  13.625 -0.1451  1.1688 -0.1010
 3969TIP3   OH233397   5.699   1.124  16.994 -0.4822 -0.4718  0.1222
 3969TIP3    H133398   5.689   1.219  16.984  0.9127 -0.4422 -1.4070
 3969TIP3    H233399   5.793   1.112  17.011 -0.1319 -1.6956 -2.2311
 3970TIP3   OH233400   5.735   3.798   3.769 -0.4645 -0.3806 -0.2045
 3970TIP3    H133401   5.641   3.791   3.789 -0.5478 -2.8248 -1.1227
 3970TIP3    H233402   5.738   3.798   3.673  0.4314  1.0707 -0.2007
 3971TIP3   OH233403   6.098   6.664   3.124 -0.1945 -0.4379  0.3263
 3971TIP3    H133404   6.137   6.628   3.044  0.6070 -0.8536  0.8934
 3971TIP3    H233405   6.172   6.696   3.175 -0.7547  0.4114  0.6251
 3972TIP3   OH233406   1.991   1.847   4.525  0.0056  0.0130  0.2938
 3972TIP3    H133407   2.032   1.928   4.493 -0.4689  0.4188  0.6790
 3972TIP3    H233408   1.901   1.852   4.492 -0.3338  0.1758  1.2292
 3973TIP3   OH233409   4.054   0.723  11.000  0.7987  0.2272 -0.7111
 3973TIP3    H133410   3.964   0.755  10.992  0.3045 -0.2843  1.9333
 3973TIP3    H233411   4.047   0.628  10.996  1.4194  0.1995 -1.6852
 3974TIP3   OH233412   2.159   2.963  15.511  0.0579 -0.1877  0.0586
 3974TIP3    H133413   2.154   2.995  15.601  0.0233  0.0209 -0.0169
 3974TIP3    H233414   2.077   2.993  15.470 -0.5067 -1.3364  0.3002
 3975TIP3   OH233415   5.184   1.436   0.878 -0.1726 -0.1225 -0.0263
 3975TIP3    H133416   5.184   1.360   0.936  0.0837 -0.2325 -0.1683
 3975TIP3    H233417   5.101   1.430   0.831  0.4481 -1.1052 -1.0566
 3976TIP3   OH233418   3.684   2.056  12.280  0.2319  0.5133  0.4165
 3976TIP3    H133419   3.620   1.985  12.273  0.2124  0.4997  0.7315
 3976TIP3    H233420   3.719   2.048  12.369 -0.1610  1.2319  0.6444
 3977TIP3   OH233421   6.517   0.270   3.212 -0.0173  0.2399  0.2293
 3977TIP3    H133422   6.610   0.292   3.220  0.1813  0.1322 -1.4501
 3977TIP3    H233423   6.486   0.268   3.302  1.2987  1.5875  0.7721
 3978TIP3   OH233424   6.104   2.043   2.454  0.0627 -0.0343  0.2109
 3978TIP3    H133425   6.017   2.082   2.445  0.8880  1.9599  0.3596
 3978TIP3    H233426   6.124   2.050   2.548  0.4088 -0.4097  0.1690
 3979TIP3   OH233427   3.277   1.066  16.980 -0.3744 -0.0229  0.4593
 3979TIP3    H133428   3.260   0.972  16.987 -2.9292  0.4389  1.8795
 3979TIP3    H233429   3.322   1.089  17.061  2.6155 -0.3355 -0.9806
 3980TIP3   OH233430   0.877   2.831  14.907  0.0118 -0.0665 -0.4594
 3980TIP3    H133431   0.946   2.810  14.969  0.1188  0.6537 -0.3267
 3980TIP3    H233432   0.897   2.778  14.830  1.3906  1.0241 -0.8770
 3981TIP3   OH233433   3.370   6.297   1.230 -0.1736 -0.0893 -0.1170
 3981TIP3    H133434   3.335   6.384   1.210 -1.8555 -0.7193 -0.1130
 3981TIP3    H233435   3.363   6.290   1.325  2.7579  0.8515  0.2501
 3982TIP3   OH233436   1.130   1.451   5.689 -0.3270 -0.4147 -0.5213
 3982TIP3    H133437   1.199   1.397   5.727 -0.2945 -0.4559 -0.6399
 3982TIP3    H233438   1.153   1.540   5.715  0.3044 -0.3187 -1.3737
 3983TIP3   OH233439   2.844   1.259   3.350 -0.2426  0.1363  0.3814
 3983TIP3    H133440   2.918   1.290   3.402 -0.8223  1.9023  0.2071
 3983TIP3    H233441   2.767   1.295   3.394 -0.8697  0.0055 -0.5793
 3984TIP3   OH233442   5.074   4.097  16.259  0.2408 -0.3512  0.0820
 3984TIP3    H133443   5.136   4.033  16.223 -0.1389 -0.5022 -0.3115
 3984TIP3    H233444   4.994   4.083  16.209  0.7342  1.8318 -1.5013
 3985TIP3   OH233445   4.109   6.187   3.513 -0.1957 -0.3097 -0.0898
 3985TIP3    H133446   4.182   6.132   3.541 -0.4491 -0.0618  1.1512
 3985TIP3    H233447   4.141   6.277   3.525 -0.1347 -0.1836 -1.1348
 3986TIP3   OH233448   0.222   1.931  13.854 -0.2048 -0.3129 -0.0548
 3986TIP3    H133449   0.134   1.909  13.824 -0.8554  0.4457  1.1718
 3986TIP3    H233450   0.262   1.977  13.780 -1.6628  1.3221  0.0801
 3987TIP3   OH233451   6.055   6.358  13.932 -0.0099  0.2958  0.0055
 3987TIP3    H133452   6.111   6.371  14.009 -1.6377 -1.5123  1.6382
 3987TIP3    H233453   6.074   6.432  13.875  1.7606  1.3766  1.8511
 3988TIP3   OH233454   1.470   3.489   2.266  0.0225  0.2602 -0.4008
 3988TIP3    H133455   1.413   3.418   2.235 -0.2286  0.1252  0.3368
 3988TIP3    H233456   1.413   3.566   2.266  0.5371  0.6843 -2.0683
 3989TIP3   OH233457   6.519   0.548   5.660 -0.3432 -0.2053 -0.0671
 3989TIP3    H133458   6.600   0.499   5.674  1.3993  2.0451 -1.5877
 3989TIP3    H233459   6.488   0.569   5.749  0.3021 -1.6979  0.5506
 3990TIP3   OH233460   4.275   4.329  14.684  0.9944 -0.7659 -0.3292
 3990TIP3    H133461   4.275   4.262  14.752 -0.4278  0.3812  0.8806
 3990TIP3    H233462   4.324   4.291  14.612  0.6461 -2.9023  0.5034
 3991TIP3   OH233463   4.003   2.759  14.474  0.2613  0.6440 -0.3017
 3991TIP3    H133464   3.996   2.765  14.378 -1.6770  0.5784 -0.2178
 3991TIP3    H233465   4.023   2.667  14.490 -1.6297  0.1296 -0.6203
 3992TIP3   OH233466   6.312   3.960  12.730 -0.0972 -0.2624  0.7130
 3992TIP3    H133467   6.264   3.885  12.696  0.1448 -0.4086  0.6935
 3992TIP3    H233468   6.370   3.923  12.797 -0.6196  0.0285  1.3427
 3993TIP3   OH233469   5.221   1.376  15.343  0.3454 -0.0632  0.1849
 3993TIP3    H133470   5.181   1.447  15.393 -0.4680  0.6729 -1.4281
 3993TIP3    H233471   5.301   1.415  15.306 -0.8984  0.6110 -2.0066
 3994TIP3   OH233472   0.126   1.642  16.270 -0.1092 -0.1074  0.5324
 3994TIP3    H133473   0.165   1.716  16.225 -1.9461  2.1022  2.3000
 3994TIP3    H233474   0.068   1.602  16.206 -0.7127  1.3468  0.1399
 3995TIP3   OH233475   6.576   0.680   0.591  0.9443 -0.6186 -0.0927
 3995TIP3    H133476   6.496   0.688   0.539  1.1811  0.0286 -0.3827
 3995TIP3    H233477   6.552   0.713   0.677  1.4738  1.9114 -0.8248
 3996TIP3   OH233478   3.523   3.902  15.424  0.3365 -0.7777 -0.2572
 3996TIP3    H133479   3.518   3.861  15.338 -2.6672 -1.3693  0.0955
 3996TIP3    H233480   3.540   3.995  15.405 -0.3583 -0.8786 -1.5250
 3997TIP3   OH233481   1.054   2.044   3.995  0.1256 -0.6193  0.2457
 3997TIP3    H133482   1.094   2.027   4.081  0.9064 -0.4541 -0.0785
 3997TIP3    H233483   1.125   2.034   3.933 -0.0667  0.8515 -0.2459
 3998TIP3   OH233484   1.006   2.547  15.192  0.5383 -0.2471  0.6934
 3998TIP3    H133485   1.045   2.578  15.273  2.6359 -0.8979 -0.0133
 3998TIP3    H233486   1.056   2.468  15.169 -1.1339 -1.0719 -0.3406
 3999TIP3   OH233487   4.254   3.853   1.544  0.5373  0.4981  0.3888
 3999TIP3    H133488   4.199   3.876   1.619  2.9661  1.2111  2.1006
 3999TIP3    H233489   4.263   3.758   1.550  1.4627  0.6246  1.6724
 4000TIP3   OH233490   1.080   4.437   1.190  0.3536  0.2350 -0.0908
 4000TIP3    H133491   1.111   4.515   1.236 -2.0267  0.0073  2.1741
 4000TIP3    H233492   0.994   4.463   1.157  0.0439 -1.0584 -0.3409
 4001TIP3   OH233493   4.075   4.799  16.338  0.3165  0.6411  0.2600
 4001TIP3    H133494   3.992   4.810  16.385  0.2726  0.1866  0.2962
 4001TIP3    H233495   4.103   4.888  16.318  1.3532  1.0182  2.9373
 4002TIP3   OH233496   1.930   0.882   0.782 -0.0178  0.6386 -0.3376
 4002TIP3    H133497   1.974   0.907   0.701 -0.8547  2.4705 -0.2865
 4002TIP3    H233498   1.975   0.932   0.851  0.4639 -0.6316  0.2969
 4003TIP3   OH233499   6.231   2.552   3.408  0.4826 -0.5546 -0.2541
 4003TIP3    H133500   6.247   2.582   3.498 -0.5778 -0.2353 -0.1614
 4003TIP3    H233501   6.305   2.586   3.358  0.1582  0.8105  0.1597
 4004TIP3   OH233502   2.718   6.465  17.163  0.2779 -0.0935  0.1445
 4004TIP3    H133503   2.761   6.537  17.118 -0.5953  0.6024  0.4142
 4004TIP3    H233504   2.641   6.504  17.203 -1.0758 -1.4768 -1.0017
 4005TIP3   OH233505   6.335   5.248   1.046 -0.7452  0.5253  0.4637
 4005TIP3    H133506   6.276   5.271   0.974 -1.5746 -2.2325  0.1430
 4005TIP3    H233507   6.278   5.208   1.112  0.7706 -4.7443 -0.9443
 4006TIP3   OH233508   2.908   0.154  16.961  0.1516  0.0923 -0.1109
 4006TIP3    H133509   2.871   0.079  16.915 -0.2660  0.6302 -0.6790
 4006TIP3    H233510   2.993   0.169  16.919  0.3498 -0.2150  0.1755
 4007TIP3   OH233511   1.456   4.189  16.847  0.2788 -0.6536  0.2672
 4007TIP3    H133512   1.550   4.191  16.834  0.2232  0.9909 -0.1763
 4007TIP3    H233513   1.425   4.115  16.795  1.0235  0.6056 -2.1302
 4008TIP3   OH233514   5.648   0.247  15.833 -0.6082 -0.0710 -0.4681
 4008TIP3    H133515   5.711   0.177  15.815 -2.4444 -1.1430 -3.2914
 4008TIP3    H233516   5.572   0.202  15.871 -0.8577  0.7569  0.0293
 4009TIP3   OH233517   0.154   1.723   5.957  0.2088 -0.5976 -0.5946
 4009TIP3    H133518   0.223   1.661   5.936  0.4872  0.3170 -2.7061
 4009TIP3    H233519   0.072   1.676   5.938  0.2939 -1.2104  0.5208
 4010TIP3   OH233520   3.811   4.500  12.253  0.0244 -0.0872 -0.0762
 4010TIP3    H133521   3.829   4.449  12.332  0.3086  1.8569  1.1749
 4010TIP3    H233522   3.730   4.464  12.219  0.6518 -1.9220  0.2486
 4011TIP3   OH233523   5.182   2.289   2.396  0.3219 -0.1532 -0.4614
 4011TIP3    H133524   5.096   2.329   2.381 -0.0270 -0.6800  0.0896
 4011TIP3    H233525   5.221   2.283   2.308  0.1069  0.7631 -0.6299
 4012TIP3   OH233526   4.813   0.377  10.572 -0.1038 -0.3458  0.2850
 4012TIP3    H133527   4.805   0.283  10.554 -0.3184 -0.0867 -1.0131
 4012TIP3    H233528   4.812   0.419  10.486 -0.9090  0.9214  0.8876
 4013TIP3   OH233529   0.556   5.453   0.879 -0.2782 -0.0443  0.1696
 4013TIP3    H133530   0.547   5.386   0.811 -1.9820  0.1223  0.2007
 4013TIP3    H233531   0.468   5.464   0.913 -0.2901  3.0159 -0.5787
 4014TIP3   OH233532   2.385   3.634   4.938 -0.1330 -0.1190  0.0691
 4014TIP3    H133533   2.297   3.609   4.965  0.1109 -0.8415  0.2227
 4014TIP3    H233534   2.382   3.631   4.842 -0.5914  1.0001  0.0418
 4015TIP3   OH233535   5.616   3.452  11.135 -0.0492 -0.2820 -0.8095
 4015TIP3    H133536   5.588   3.537  11.100  0.2214 -0.1987 -0.8251
 4015TIP3    H233537   5.603   3.459  11.229 -1.0139 -0.5928 -0.9061
 4016TIP3   OH233538   2.731   3.491   2.683  0.0165 -0.0307  0.0463
 4016TIP3    H133539   2.755   3.409   2.640  0.0447  0.9980 -2.0048
 4016TIP3    H233540   2.804   3.550   2.665 -0.6316  0.8678  0.3155
 4017TIP3   OH233541   6.693   2.806  12.546  0.2165  0.2218  0.3357
 4017TIP3    H133542   6.759   2.808  12.614  1.2962  1.9174 -0.7019
 4017TIP3    H233543   6.642   2.886  12.558  1.2147  1.2009 -1.5388
 4018TIP3   OH233544   4.631   6.131   5.842  0.4340 -0.1152 -0.2428
 4018TIP3    H133545   4.635   6.046   5.885  0.2532  0.7361  1.5363
 4018TIP3    H233546   4.722   6.153   5.823  0.5029 -0.5557 -0.4393
 4019TIP3   OH233547   1.351   4.883   6.799  0.0613  0.2456  0.3560
 4019TIP3    H133548   1.350   4.944   6.872  1.8906 -0.2685  0.8806
 4019TIP3    H233549   1.430   4.905   6.750  0.4614 -1.2825  0.2368
 4020TIP3   OH233550   0.490   5.260  15.355  0.1626  1.0680  0.5108
 4020TIP3    H133551   0.580   5.233  15.338  0.7225  3.6335 -1.0950
 4020TIP3    H233552   0.497   5.338  15.409 -1.2357  0.1498  2.1225
 4021TIP3   OH233553   5.769   4.690   0.846 -0.0881 -0.2487 -0.2142
 4021TIP3    H133554   5.766   4.718   0.754 -2.6044  1.0749  0.1865
 4021TIP3    H233555   5.699   4.626   0.853 -0.4448  0.2605  0.9670
 4022TIP3   OH233556   2.453   0.516  12.942 -0.3672  0.0388  0.2325
 4022TIP3    H133557   2.455   0.504  13.037 -0.8566  0.9529  0.3718
 4022TIP3    H233558   2.443   0.610  12.930 -1.3577 -0.1613 -0.7059
 4023TIP3   OH233559   5.256   4.481  15.822 -0.0488 -0.1429  0.1320
 4023TIP3    H133560   5.327   4.530  15.781 -1.3341 -0.9515 -3.4053
 4023TIP3    H233561   5.183   4.543  15.826 -0.9974 -1.0126 -2.2666
 4024TIP3   OH233562   3.318   4.383   2.245  0.3886 -0.1056 -0.0897
 4024TIP3    H133563   3.403   4.367   2.286  0.3243 -0.4499 -0.0909
 4024TIP3    H233564   3.263   4.310   2.273  0.5306 -0.7144 -1.3259
 4025TIP3   OH233565   3.492   2.403   3.265  0.8826  0.7229 -0.1122
 4025TIP3    H133566   3.451   2.390   3.179 -0.3954  1.3228  0.3702
 4025TIP3    H233567   3.421   2.436   3.320  1.0235 -1.9222  1.8401
 4026TIP3   OH233568   5.672   5.572  13.314 -0.2555 -0.3245  0.0498
 4026TIP3    H133569   5.728   5.547  13.241 -0.0724 -0.9937  0.4148
 4026TIP3    H233570   5.731   5.575  13.390  0.0869  2.7175 -0.1924
 4027TIP3   OH233571   5.438   6.092  10.293 -0.1781  0.3681  0.1149
 4027TIP3    H133572   5.467   6.145  10.367  1.1684  0.8625 -0.7206
 4027TIP3    H233573   5.440   6.153  10.218 -0.4743 -0.3898 -0.5241
 4028TIP3   OH233574   0.063   0.584   1.713  0.0875  0.4370 -0.4679
 4028TIP3    H133575   0.029   0.673   1.723 -0.7901 -0.0525  1.2040
 4028TIP3    H233576  -0.006   0.528   1.749 -0.7417 -1.2048 -4.1336
 4029TIP3   OH233577   4.548   4.753   4.175 -0.1693 -0.2529  0.5980
 4029TIP3    H133578   4.509   4.829   4.131 -0.6079 -0.5140  0.5222
 4029TIP3    H233579   4.625   4.732   4.122  2.0293  2.2169  2.5219
 4030TIP3   OH233580   2.417   6.561   0.865 -0.2410  0.2991  0.0283
 4030TIP3    H133581   2.403   6.643   0.818 -0.4796  0.9460  1.1926
 4030TIP3    H233582   2.501   6.528   0.831 -0.1492  1.0223 -0.4584
 4031TIP3   OH233583   4.151   4.429   3.060 -0.0647 -0.2014  0.2943
 4031TIP3    H133584   4.165   4.458   2.969 -0.2809  2.9900  1.1565
 4031TIP3    H233585   4.116   4.507   3.104 -1.9777 -2.2488  2.6742
 4032TIP3   OH233586   2.512   0.017  16.178 -0.2442 -0.1483 -0.0047
 4032TIP3    H133587   2.575  -0.055  16.169  0.7133  0.8118 -1.1927
 4032TIP3    H233588   2.565   0.095  16.192 -1.1955  0.5957 -0.3796
 4033TIP3   OH233589   0.678   6.418  10.321  0.0518  0.0346 -0.4170
 4033TIP3    H133590   0.699   6.509  10.342 -1.7684  0.8632 -1.8373
 4033TIP3    H233591   0.595   6.401  10.367  0.6146 -1.0874  0.2247
 4034TIP3   OH233592   4.381   5.630  11.165 -0.3819  0.3985 -0.0163
 4034TIP3    H133593   4.319   5.700  11.141 -0.8569 -0.7863 -2.5857
 4034TIP3    H233594   4.340   5.550  11.133  1.0133 -0.8478  1.1788
 4035TIP3   OH233595   2.711   6.196  12.121  0.3467  0.7270  0.0350
 4035TIP3    H133596   2.733   6.123  12.179  0.2985 -0.6428 -1.5924
 4035TIP3    H233597   2.787   6.205  12.063 -0.5787  0.4279 -1.2689
 4036TIP3   OH233598   4.456   5.077  14.832 -0.2254  0.2838  0.1529
 4036TIP3    H133599   4.421   5.166  14.832 -1.4439 -0.1295 -2.1137
 4036TIP3    H233600   4.383   5.023  14.804  0.5231 -1.4590  1.4119
 4037TIP3   OH233601   6.197   5.541   5.466  0.0334  0.2866 -0.0296
 4037TIP3    H133602   6.114   5.579   5.494 -0.2442  0.5117 -1.1135
 4037TIP3    H233603   6.257   5.616   5.463 -0.8027  0.9936 -3.3087
 4038TIP3   OH233604   2.394   6.415  17.088  0.0775 -0.7867 -0.0669
 4038TIP3    H133605   2.320   6.372  17.131  0.3046 -0.0765  1.0711
 4038TIP3    H233606   2.413   6.490  17.143 -0.5384  1.0308 -2.1791
 4039TIP3   OH233607   6.238   4.955   1.500  0.1716 -0.3712 -0.1016
 4039TIP3    H133608   6.150   4.916   1.501  0.9923 -2.5299 -1.8685
 4039TIP3    H233609   6.238   5.016   1.573 -2.5461 -0.8621  0.4309
 4040TIP3   OH233610   6.148   6.645   4.353 -0.3904  0.3501  0.2396
 4040TIP3    H133611   6.218   6.654   4.289 -0.0806  1.6031  0.7229
 4040TIP3    H233612   6.192   6.614   4.432 -0.7633 -1.1416 -0.1064
 4041TIP3   OH233613   3.449   1.862  12.290  0.1558  0.4639  0.5344
 4041TIP3    H133614   3.377   1.859  12.353 -0.3751  0.6207 -0.0574
 4041TIP3    H233615   3.411   1.831  12.208  1.2222 -1.2087  0.6353
 4042TIP3   OH233616   0.596   2.606  14.105 -0.0638  0.1405  0.0598
 4042TIP3    H133617   0.609   2.531  14.164  0.9729  0.0280 -0.2814
 4042TIP3    H233618   0.669   2.665  14.126  2.0024 -1.0894 -2.8764
 4043TIP3   OH233619   2.942   4.188   4.327 -0.1407  0.1144 -0.1372
 4043TIP3    H133620   2.990   4.260   4.285  0.3652  0.1345  0.4630
 4043TIP3    H233621   2.869   4.170   4.267  1.0059 -0.3988 -1.4272
 4044TIP3   OH233622   2.389   1.742  14.527  0.0965  0.3316  0.4781
 4044TIP3    H133623   2.348   1.826  14.550  0.0826  1.3644 -2.7010
 4044TIP3    H233624   2.466   1.737  14.583  1.7562  4.0365 -1.0699
 4045TIP3   OH233625   4.081   2.468  12.700 -0.3548  0.0351  0.1615
 4045TIP3    H133626   4.043   2.418  12.627 -0.3443  0.2315  0.0207
 4045TIP3    H233627   4.095   2.555  12.664  0.9391 -0.2334 -0.0376
 4046TIP3   OH233628   4.086   6.091   3.260 -0.3367  0.5695  1.0597
 4046TIP3    H133629   4.098   6.178   3.221  1.0988 -0.1721 -0.2563
 4046TIP3    H233630   4.100   6.105   3.354  1.3859  1.5207  0.7003
 4047TIP3   OH233631   0.266   6.036  11.313  0.1405 -0.3875 -0.7213
 4047TIP3    H133632   0.199   6.085  11.266  1.5014  0.0897 -2.2704
 4047TIP3    H233633   0.240   5.944  11.304 -0.6991 -0.1602 -0.6435
 4048TIP3   OH233634   3.797   5.208   4.991  0.2879 -0.4795  0.9485
 4048TIP3    H133635   3.835   5.239   5.074  0.1717 -1.8209  1.5289
 4048TIP3    H233636   3.811   5.281   4.930 -0.2783  0.8472  2.3223
 4049TIP3   OH233637   0.107   5.299   3.345 -0.3165 -0.0051 -0.8586
 4049TIP3    H133638   0.069   5.340   3.423  2.1583  0.1683  0.3559
 4049TIP3    H233639   0.095   5.363   3.275  0.7197  1.5284  0.2973
 4050TIP3   OH233640   5.248   1.847  13.914  0.1437 -0.3454  0.8998
 4050TIP3    H133641   5.249   1.821  13.822  1.6253 -0.0004  0.7938
 4050TIP3    H233642   5.209   1.773  13.960  1.7535 -1.6337  0.2863
 4051TIP3   OH233643   1.699   0.551  14.208 -0.6011  0.3128  0.9346
 4051TIP3    H133644   1.724   0.617  14.143  0.0185 -0.8453 -0.0500
 4051TIP3    H233645   1.604   0.546  14.202 -0.7960  2.0746  2.0091
 4052TIP3   OH233646   5.003   1.921   3.588  0.5219 -0.4595 -0.4049
 4052TIP3    H133647   4.929   1.862   3.571 -0.0449 -0.5543  1.9996
 4052TIP3    H233648   4.967   1.987   3.648  1.2043  2.2452 -2.7623
 4053TIP3   OH233649   3.527   5.678   4.497 -0.1900  0.3283  0.0151
 4053TIP3    H133650   3.530   5.592   4.455 -0.6439  1.0749 -1.6423
 4053TIP3    H233651   3.571   5.736   4.435 -1.0687  1.5252  0.4757
 4054TIP3   OH233652   6.689   2.032   4.802 -0.3945 -0.0233  0.3038
 4054TIP3    H133653   6.669   1.944   4.835  1.5443 -0.6689 -0.0792
 4054TIP3    H233654   6.775   2.052   4.840  0.4225  0.5558 -1.7290
 4055TIP3   OH233655   2.886   1.215  11.375 -0.0218 -0.1154  0.1120
 4055TIP3    H133656   2.900   1.138  11.430  0.2017 -1.1819 -1.3802
 4055TIP3    H233657   2.793   1.210  11.349 -0.1115  0.3413  0.3292
 4056TIP3   OH233658   2.600   1.926  12.253 -0.0425 -0.1282 -0.4623
 4056TIP3    H133659   2.694   1.907  12.254  0.0963 -0.0926 -3.7417
 4056TIP3    H233660   2.594   2.020  12.233 -0.7763 -0.2288 -0.7508
 4057TIP3   OH233661   0.282   2.052   1.971 -0.3142  0.0405 -0.4667
 4057TIP3    H133662   0.279   1.972   1.917  0.2300  0.2633 -0.8298
 4057TIP3    H233663   0.355   2.102   1.936 -0.5673  0.6420 -0.1475
 4058TIP3   OH233664   6.349   3.663   1.071  0.1361  0.0952  0.4186
 4058TIP3    H133665   6.347   3.570   1.095  1.5779 -0.2758 -0.7300
 4058TIP3    H233666   6.402   3.704   1.139  1.4281 -0.3625 -0.2738
 4059TIP3   OH233667   6.076   4.230  17.199  0.0123  0.0301  0.2669
 4059TIP3    H133668   6.080   4.136  17.211 -0.8250 -0.0187  0.2348
 4059TIP3    H233669   6.032   4.241  17.114  1.1603  0.4379 -0.3021
 4060TIP3   OH233670   1.037   5.269   4.778 -0.7454  0.0759 -0.2380
 4060TIP3    H133671   1.043   5.365   4.775  1.4818 -0.0216 -1.1442
 4060TIP3    H233672   1.069   5.246   4.865 -0.0538  0.1214 -0.4737
 4061TIP3   OH233673   2.713   2.959   1.750 -0.1339 -0.0643  0.1793
 4061TIP3    H133674   2.697   2.875   1.706  1.2714 -0.2733  0.0247
 4061TIP3    H233675   2.703   2.939   1.843 -3.9481  0.5632  0.0526
 4062TIP3   OH233676   2.950   1.332  15.328  0.2723  0.3909 -0.4344
 4062TIP3    H133677   2.981   1.245  15.303 -1.0038  0.0405 -0.8841
 4062TIP3    H233678   2.921   1.372  15.247  0.7981  1.2290 -0.2194
 4063TIP3   OH233679   4.261   2.805  13.151 -0.5760 -0.6051 -0.0147
 4063TIP3    H133680   4.295   2.814  13.062 -4.4451 -0.2259 -1.7003
 4063TIP3    H233681   4.227   2.891  13.173  0.5658 -0.6153  2.0490
 4064TIP3   OH233682   3.057   6.705  14.994  0.3671 -0.4675  0.2977
 4064TIP3    H133683   2.966   6.675  14.989  0.5979 -1.4284  1.5632
 4064TIP3    H233684   3.100   6.643  15.053  1.3856  1.0945  1.2670
 4065TIP3   OH233685   3.018   3.897  11.328 -1.0083  0.5913 -0.5113
 4065TIP3    H133686   2.941   3.953  11.316 -0.7677  0.7964 -1.1665
 4065TIP3    H233687   2.984   3.808  11.318 -0.7850  0.7332 -3.4373
 4066TIP3   OH233688   4.314   4.183  11.539  0.0218 -0.0387 -0.8883
 4066TIP3    H133689   4.259   4.156  11.466  2.4292 -2.7991 -1.9056
 4066TIP3    H233690   4.312   4.109  11.600 -0.0929  1.2517  0.7669
 4067TIP3   OH233691   6.486   0.334  14.552  0.1502  0.0557  0.2082
 4067TIP3    H133692   6.413   0.322  14.491  0.4383 -1.8365  0.1648
 4067TIP3    H233693   6.562   0.302  14.505  0.7318  0.4725  0.8432
 4068TIP3   OH233694   2.464   0.475  14.518  0.2970 -0.4982 -0.4445
 4068TIP3    H133695   2.426   0.462  14.604  0.6455 -2.0489 -0.5060
 4068TIP3    H233696   2.532   0.542  14.532 -1.8178  1.7232 -0.1984
 4069TIP3   OH233697   3.632   3.716   6.507 -0.2834 -0.1522 -0.5514
 4069TIP3    H133698   3.646   3.703   6.413 -1.0451  0.4217 -0.7549
 4069TIP3    H233699   3.717   3.699   6.547 -0.0065 -0.6147 -1.3220
 4070TIP3   OH233700   1.083   3.172  13.943  0.0171  0.4799  0.1308
 4070TIP3    H133701   1.108   3.139  13.857  0.0042  0.5819  0.0876
 4070TIP3    H233702   1.151   3.140  14.002  1.4354  2.5099 -0.3134
 4071TIP3   OH233703   1.687   6.577  15.411 -0.0518 -0.4399  0.2111
 4071TIP3    H133704   1.651   6.665  15.412  1.7987  0.3758 -0.4016
 4071TIP3    H233705   1.650   6.535  15.488 -2.0764  0.3723 -0.2583
 4072TIP3   OH233706   6.003   1.367   4.417 -0.4088  0.1681  0.3497
 4072TIP3    H133707   5.914   1.399   4.404 -2.0137 -1.4758  4.9728
 4072TIP3    H233708   6.008   1.350   4.511  4.0621 -2.0700 -0.0361
 4073TIP3   OH233709   1.568   2.525   5.646 -0.1326 -1.0030  0.2549
 4073TIP3    H133710   1.648   2.565   5.682 -0.8719 -0.1609  0.9983
 4073TIP3    H233711   1.507   2.523   5.720 -2.5686  2.9309 -1.3529
 4074TIP3   OH233712   2.236   0.482   0.570  0.2527 -0.0483  0.8564
 4074TIP3    H133713   2.297   0.490   0.643 -0.5917  1.4431  1.4445
 4074TIP3    H233714   2.165   0.542   0.592  0.3277  1.0344 -1.5738
 4075TIP3   OH233715   0.018   6.578   5.476 -0.3736 -0.1608  0.3637
 4075TIP3    H133716  -0.059   6.611   5.522 -0.6976  0.5448 -0.6363
 4075TIP3    H233717  -0.017   6.518   5.410 -0.1447  0.6142 -0.4889
 4076TIP3   OH233718   4.630   1.213   2.383 -0.2523 -0.1742  1.0627
 4076TIP3    H133719   4.534   1.222   2.388 -0.0845  1.4402  2.3440
 4076TIP3    H233720   4.646   1.188   2.292 -1.8416  0.5485  0.5313
 4077TIP3   OH233721   1.328   1.256  13.004 -0.2150  0.5189  0.4176
 4077TIP3    H133722   1.413   1.212  13.000 -0.9627 -0.9843  0.3967
 4077TIP3    H233723   1.284   1.229  12.924 -1.6797 -0.8484  1.6260
 4078TIP3   OH233724   6.064   5.553   0.809  0.2454  0.2790  0.6833
 4078TIP3    H133725   6.115   5.596   0.740 -2.1603  0.5033 -1.0581
 4078TIP3    H233726   6.042   5.624   0.870 -0.8261  0.8835 -0.3747
 4079TIP3   OH233727   1.842   4.216  14.676  0.2554  0.4189  0.0931
 4079TIP3    H133728   1.817   4.255  14.760  2.5211  2.3876 -0.0110
 4079TIP3    H233729   1.872   4.128  14.698 -2.1513 -0.3073  0.8068
 4080TIP3   OH233730   4.384   3.369  12.866  0.1382 -0.2759  0.4729
 4080TIP3    H133731   4.375   3.402  12.776 -0.6303  2.1503  1.3418
 4080TIP3    H233732   4.432   3.438  12.911 -0.6561 -0.8157  2.2235
 4081TIP3   OH233733   5.835   4.464   2.389  0.3747 -0.1033 -0.4232
 4081TIP3    H133734   5.797   4.527   2.450 -1.7458 -0.5021 -1.2229
 4081TIP3    H233735   5.898   4.414   2.441 -2.2496 -1.2837  1.8432
 4082TIP3   OH233736   3.918   3.733   0.140 -0.9933 -0.0585 -0.5848
 4082TIP3    H133737   3.892   3.671   0.208 -0.6526 -1.2146 -1.4540
 4082TIP3    H233738   3.998   3.773   0.174  0.4094 -2.1829 -1.1219
 4083TIP3   OH233739   0.597   5.205  14.649  0.2554  0.2445  0.3166
 4083TIP3    H133740   0.641   5.134  14.604 -0.8926  0.8290 -1.8546
 4083TIP3    H233741   0.510   5.171  14.670 -0.6154  1.1997 -1.5069
 4084TIP3   OH233742   2.286   3.626   1.310  0.1346  0.4604 -0.3174
 4084TIP3    H133743   2.204   3.676   1.306 -0.0395  0.1232 -1.2778
 4084TIP3    H233744   2.353   3.692   1.324 -0.3477  0.6806  1.0860
 4085TIP3   OH233745   4.987   1.836   0.476  0.0746  0.2647  0.0120
 4085TIP3    H133746   5.037   1.918   0.482 -0.3220  0.9781 -3.9415
 4085TIP3    H233747   4.901   1.857   0.513  0.7593  0.7995  1.3788
 4086TIP3   OH233748   3.584   1.702  12.941 -0.2180  0.3878 -0.2089
 4086TIP3    H133749   3.669   1.711  12.985  0.0549 -0.5692 -0.5150
 4086TIP3    H233750   3.603   1.708  12.848 -0.3348 -0.7435 -0.3265
 4087TIP3   OH233751   6.272   2.561   4.067  0.7000 -0.4676 -0.0048
 4087TIP3    H133752   6.266   2.530   3.977  0.0636 -1.8603  0.4834
 4087TIP3    H233753   6.361   2.593   4.076  0.4744  0.6413 -1.4007
 4088TIP3   OH233754   3.107   1.815  14.948 -0.0041 -0.0570 -0.2115
 4088TIP3    H133755   3.101   1.910  14.947  1.5864  0.0618 -1.0009
 4088TIP3    H233756   3.018   1.786  14.969 -0.3282  1.6009  0.8557
 4089TIP3   OH233757   2.673   0.530  17.163  0.4308  0.8013 -0.0826
 4089TIP3    H133758   2.591   0.570  17.137 -2.0988 -2.7267  1.6618
 4089TIP3    H233759   2.687   0.460  17.100  1.6844  0.8271  0.1306
 4090TIP3   OH233760   1.039   0.993  12.953 -0.0993 -0.5248 -0.4400
 4090TIP3    H133761   1.019   1.001  12.860  3.4552 -3.0956 -1.6813
 4090TIP3    H233762   1.025   0.900  12.973 -2.2810  0.2290  2.1414
 4091TIP3   OH233763   2.139   5.791  15.033 -0.8040  0.2115  0.0232
 4091TIP3    H133764   2.226   5.805  14.995 -0.7868  0.2034  0.0590
 4091TIP3    H233765   2.081   5.844  14.978 -1.2205 -1.9701 -1.7741
 4092TIP3   OH233766   1.480   0.521  13.263  0.1374  0.3825 -0.9101
 4092TIP3    H133767   1.413   0.510  13.196  0.3560  1.6226 -1.3376
 4092TIP3    H233768   1.437   0.569  13.333 -0.1211 -0.9904 -0.0787
 4093TIP3   OH233769   1.657   0.793  14.713 -0.1385 -0.1103  0.1437
 4093TIP3    H133770   1.587   0.849  14.745 -0.7083 -1.3753  1.1989
 4093TIP3    H233771   1.638   0.781  14.620 -1.2908 -0.3727  0.4020
 4094TIP3   OH233772   1.602   3.177   3.884  0.3684 -0.4978 -0.1028
 4094TIP3    H133773   1.668   3.167   3.952 -0.2582  0.9190  0.7647
 4094TIP3    H233774   1.519   3.162   3.929 -0.0305  0.0074 -0.6577
 4095TIP3   OH233775   4.888   4.774   5.149 -0.0398  0.5067  0.0466
 4095TIP3    H133776   4.943   4.792   5.072  0.0406 -2.2191 -0.6115
 4095TIP3    H233777   4.855   4.860   5.175  2.0574  1.8494 -1.4058
 4096TIP3   OH233778   5.283   3.264  11.182 -0.0878  0.7140  0.1047
 4096TIP3    H133779   5.238   3.180  11.173 -1.3551  1.1998  1.5395
 4096TIP3    H233780   5.295   3.295  11.092 -0.0562 -0.7577 -0.4093
 4097TIP3   OH233781   0.797   4.040  15.913  0.0690 -0.2587 -0.0014
 4097TIP3    H133782   0.849   4.110  15.873 -1.4774  1.4309  0.7584
 4097TIP3    H233783   0.785   4.069  16.003  0.6897 -2.3322  0.7978
 4098TIP3   OH233784   3.866   2.997   3.745  0.1787  0.5413  0.3337
 4098TIP3    H133785   3.853   2.911   3.706 -2.6498  1.5618 -1.2358
 4098TIP3    H233786   3.955   2.995   3.779  0.2324 -2.9520  0.3009
 4099TIP3   OH233787   4.041   5.538   2.646 -0.4467  0.3811 -0.2312
 4099TIP3    H133788   4.054   5.597   2.720  0.9781  0.3195 -0.3981
 4099TIP3    H233789   4.088   5.580   2.574  2.2420 -1.7630  0.0890
 4100TIP3   OH233790   4.007   2.976  15.791 -0.0894  0.0337  0.8313
 4100TIP3    H133791   4.068   3.003  15.859  0.9397  1.4796 -0.6042
 4100TIP3    H233792   3.921   2.985  15.831  0.5226 -0.3233  2.3072
 4101TIP3   OH233793   0.056   5.374  14.282  0.0334  0.0628  0.3458
 4101TIP3    H133794  -0.027   5.388  14.238 -0.3761 -1.2489  0.6598
 4101TIP3    H233795   0.039   5.396  14.374  0.4802  1.3255  0.1487
 4102TIP3   OH233796   1.530   3.962  13.423 -0.0356 -0.5701  0.0892
 4102TIP3    H133797   1.493   3.884  13.382  0.1459 -1.5853  1.7372
 4102TIP3    H233798   1.506   4.034  13.365 -4.2948 -1.1740  0.7790
 4103TIP3   OH233799   2.948   5.910  12.212  0.0368 -0.3848  0.3181
 4103TIP3    H133800   3.041   5.895  12.229  0.2035  1.2663  1.0204
 4103TIP3    H233801   2.931   5.863  12.131  2.0490  1.0971 -1.0612
 4104TIP3   OH233802   3.242   5.919  13.121 -0.8039  0.3688 -0.4313
 4104TIP3    H133803   3.244   5.824  13.134 -2.1274 -0.2042 -3.5447
 4104TIP3    H233804   3.150   5.943  13.134 -0.2512  1.5642  1.7868
 4105TIP3   OH233805   3.096   2.705   0.866  0.8882 -0.3186  0.1429
 4105TIP3    H133806   3.191   2.716   0.870  0.7057  1.6334 -0.1133
 4105TIP3    H233807   3.077   2.689   0.774  1.0408 -1.9191  0.3549
 4106TIP3   OH233808   4.964   1.260   2.770  0.3600 -0.1029 -0.3473
 4106TIP3    H133809   4.950   1.185   2.712 -0.2442  0.9376 -1.6038
 4106TIP3    H233810   4.972   1.335   2.710 -1.6874  1.2416  0.9650
 4107TIP3   OH233811   2.926   6.132   3.191 -0.4163  0.2741  0.2162
 4107TIP3    H133812   2.846   6.170   3.157 -0.1043  0.5702 -0.1943
 4107TIP3    H233813   2.938   6.050   3.142 -0.0905  0.5856 -0.2320
 4108TIP3   OH233814   0.077   3.176   5.699  0.2317 -0.0865  0.2541
 4108TIP3    H133815   0.110   3.106   5.755 -2.3115 -1.3696  0.3143
 4108TIP3    H233816  -0.010   3.196   5.735  0.6565  2.8153 -0.0459
 4109TIP3   OH233817   0.007   0.405  15.859  0.2656 -0.6727 -0.2202
 4109TIP3    H133818  -0.073   0.422  15.811  0.3322  0.5033  0.0553
 4109TIP3    H233819  -0.007   0.319  15.900 -1.5920  0.2646  1.2872
 4110TIP3   OH233820   2.415   0.931  16.546  0.7946 -0.2713 -0.3536
 4110TIP3    H133821   2.373   1.017  16.538  1.0338  0.3246  3.1162
 4110TIP3    H233822   2.359   0.873  16.494 -1.3992  1.3982 -0.0436
 4111TIP3   OH233823   6.303   0.086  15.191 -0.3648  0.4004  0.2488
 4111TIP3    H133824   6.231   0.039  15.149  1.4705  0.2978 -3.0802
 4111TIP3    H233825   6.329   0.153  15.128  1.4930  1.4705  2.0128
 4112TIP3   OH233826   5.269   0.603   0.141  0.2451  0.2515 -0.4337
 4112TIP3    H133827   5.323   0.612   0.063  0.9433 -0.0597  0.0049
 4112TIP3    H233828   5.278   0.512   0.167  0.7454  0.5608  0.5245
 4113TIP3   OH233829   4.927   4.005  16.020 -0.0314  0.5367 -0.1410
 4113TIP3    H133830   4.979   4.081  15.993  0.9065 -0.1484 -0.3153
 4113TIP3    H233831   4.990   3.933  16.020 -0.4745  0.1080  1.8609
 4114TIP3   OH233832   0.344   2.677  14.010  0.6112 -0.1216  0.5277
 4114TIP3    H133833   0.409   2.608  13.997 -0.0962 -0.6731 -0.2041
 4114TIP3    H233834   0.375   2.725  14.086  0.7365 -1.7121  1.5382
 4115TIP3   OH233835   1.320   2.475   4.881 -0.3188  0.3261  0.1045
 4115TIP3    H133836   1.408   2.511   4.891  0.0364  0.2534 -2.2595
 4115TIP3    H233837   1.261   2.545   4.908  0.4309  0.4958  1.3684
 4116TIP3   OH233838   0.902   2.302   1.292 -0.2975 -0.0871 -0.3733
 4116TIP3    H133839   0.852   2.252   1.357 -0.5931  0.8712  0.1712
 4116TIP3    H233840   0.945   2.237   1.238  0.3105 -0.9100  1.0697
 4117TIP3   OH233841   0.291   1.066  13.327  0.5939  0.1089 -0.2551
 4117TIP3    H133842   0.356   1.034  13.389  1.8702  0.6191 -1.2793
 4117TIP3    H233843   0.323   1.153  13.301 -0.8902  0.6857 -0.2357
 4118TIP3   OH233844   2.731   2.606   0.137  0.0299  0.4799 -0.2244
 4118TIP3    H133845   2.764   2.605   0.047  2.1480 -0.1436  0.4972
 4118TIP3    H233846   2.638   2.627   0.128  0.1026  0.0904 -2.5720
 4119TIP3   OH233847   6.490   2.946   5.046  0.4492  0.8065  0.4903
 4119TIP3    H133848   6.555   2.887   5.008 -0.4807 -0.2647  0.5058
 4119TIP3    H233849   6.490   2.925   5.139 -0.7333 -0.0492  0.3168
 4120TIP3   OH233850   1.554   0.270  12.071  0.2899  0.3517  0.0026
 4120TIP3    H133851   1.552   0.271  12.166  0.2533 -0.2734  0.0155
 4120TIP3    H233852   1.581   0.358  12.046  1.3691  0.2104  0.6134
 4121TIP3   OH233853   1.787   3.846  15.175  0.4340  0.0519  0.1662
 4121TIP3    H133854   1.809   3.766  15.223 -0.6213 -0.9078 -0.8765
 4121TIP3    H233855   1.822   3.831  15.087  0.4139  0.8310  0.0217
 4122TIP3   OH233856   3.803   6.585  11.829 -0.1617  0.5922 -0.2126
 4122TIP3    H133857   3.738   6.608  11.763 -1.8016 -1.7801  0.4486
 4122TIP3    H233858   3.880   6.558  11.778 -0.4084  1.4196 -1.0559
 4123TIP3   OH233859   6.416   5.309   6.635  0.6334 -0.5831  0.0139
 4123TIP3    H133860   6.478   5.338   6.702  0.8424 -0.4349 -0.2426
 4123TIP3    H233861   6.432   5.215   6.625  0.1120 -0.7522  0.6833
 4124TIP3   OH233862   1.650   0.984  16.620  0.4001 -0.5515 -0.1287
 4124TIP3    H133863   1.648   1.006  16.713  1.9248  0.3730 -0.2702
 4124TIP3    H233864   1.573   1.027  16.583 -0.7449 -1.6958  0.8267
 4125TIP3   OH233865   1.642   4.969  13.995  0.3553  0.2832  0.0310
 4125TIP3    H133866   1.593   4.887  14.005 -0.7753  0.7185 -1.6417
 4125TIP3    H233867   1.680   4.984  14.082 -1.6578 -0.5895  1.1305
 4126TIP3   OH233868   4.565   1.678   4.073  0.2014  0.3598  0.0181
 4126TIP3    H133869   4.482   1.640   4.043  0.1698  0.3194  0.1561
 4126TIP3    H233870   4.561   1.769   4.044 -0.8944  0.9949  1.9844
 4127TIP3   OH233871   2.624   0.821  15.831  0.6957  0.6535  0.3792
 4127TIP3    H133872   2.556   0.872  15.785 -0.3781 -0.2045  0.9643
 4127TIP3    H233873   2.706   0.849  15.791  0.1558  2.8799  0.7251
 4128TIP3   OH233874   2.825   2.615   5.688 -0.5321  0.3865  0.2642
 4128TIP3    H133875   2.839   2.675   5.615 -1.5749  1.2595  0.7346
 4128TIP3    H233876   2.730   2.615   5.701 -0.8027 -2.7212 -0.8059
 4129TIP3   OH233877   6.807   2.431   0.152 -0.5719  0.2657  0.4637
 4129TIP3    H133878   6.763   2.515   0.161 -0.0436  0.7897 -1.3736
 4129TIP3    H233879   6.822   2.421   0.058  0.3339 -1.3907  0.7305
 4130TIP3   OH233880   1.751   4.233  12.610  0.6188  0.5061 -0.0160
 4130TIP3    H133881   1.824   4.185  12.650 -0.7812 -1.0622  0.7447
 4130TIP3    H233882   1.729   4.183  12.531  0.0707  0.7153 -0.0018
 4131TIP3   OH233883   1.069   4.192   1.068 -0.1413  0.4295  0.0609
 4131TIP3    H133884   1.071   4.284   1.093  2.2927  0.4701 -0.0314
 4131TIP3    H233885   0.982   4.161   1.096 -0.8239  2.6027  0.5224
 4132TIP3   OH233886   1.562   6.603   2.118  0.1375 -0.1866  0.1949
 4132TIP3    H133887   1.596   6.640   2.036 -0.4275 -0.6033 -0.2378
 4132TIP3    H233888   1.638   6.564   2.160  0.2819 -0.8213 -0.6074
 4133TIP3   OH233889   1.607   5.275  13.575 -0.4251  0.3498 -0.9503
 4133TIP3    H133890   1.607   5.245  13.666 -0.2167  0.3265 -0.9586
 4133TIP3    H233891   1.514   5.285  13.554 -0.4768  0.2892 -0.7565
 4134TIP3   OH233892   3.990   0.207  15.601  0.1154  0.3403  0.0679
 4134TIP3    H133893   4.072   0.183  15.643  0.5934  0.1786 -0.9344
 4134TIP3    H233894   3.960   0.284  15.650  1.3491  0.9831 -0.1486
 4135TIP3   OH233895   2.543   1.091   3.344 -0.1202  0.0518  0.2917
 4135TIP3    H133896   2.618   1.060   3.292  0.7542  0.9952  0.9474
 4135TIP3    H233897   2.518   1.016   3.397 -0.4132 -0.6343 -0.7831
 4136TIP3   OH233898   1.828   4.628   3.444  0.0336 -0.3154 -0.2352
 4136TIP3    H133899   1.910   4.584   3.421 -2.1116 -3.5425 -2.4490
 4136TIP3    H233900   1.815   4.692   3.374 -0.8998 -2.1921 -1.8644
 4137TIP3   OH233901   1.044   0.322  10.667 -0.2535 -0.1395 -0.5494
 4137TIP3    H133902   0.972   0.292  10.722  1.7086 -0.9316  1.7878
 4137TIP3    H233903   1.066   0.246  10.613 -0.7516 -0.0787 -0.8481
 4138TIP3   OH233904   4.411   4.705   5.675  0.1947  0.6191 -0.5047
 4138TIP3    H133905   4.317   4.705   5.695 -0.5111 -2.4314 -3.0930
 4138TIP3    H233906   4.417   4.740   5.586  1.0858 -1.7790 -1.4602
 4139TIP3   OH233907   5.466   3.434   1.453 -0.3316  0.3938 -0.8031
 4139TIP3    H133908   5.486   3.451   1.545  1.9503  0.4767 -1.2545
 4139TIP3    H233909   5.373   3.411   1.452 -0.3521  0.1865  1.5407
 4140TIP3   OH233910   6.352   6.529   5.135 -0.3761 -0.5515 -0.0539
 4140TIP3    H133911   6.444   6.542   5.157 -0.4735 -0.7056  0.4523
 4140TIP3    H233912   6.328   6.447   5.179 -1.3556  0.6130  1.7090
 4141TIP3   OH233913   6.115   4.628  12.329  0.4278  0.6228  0.4118
 4141TIP3    H133914   6.091   4.623  12.237 -0.5250  1.8225  0.5674
 4141TIP3    H233915   6.123   4.537  12.357 -1.7462  0.1661 -0.2519
 4142TIP3   OH233916   5.907   5.177  11.503  0.0300  0.1217  0.9163
 4142TIP3    H133917   5.817   5.179  11.537 -0.6201 -1.9656 -0.4826
 4142TIP3    H233918   5.908   5.244  11.434 -0.1259  0.8442  1.5964
 4143TIP3   OH233919   1.887   5.056  11.038 -0.2034 -0.6308  0.5111
 4143TIP3    H133920   1.947   5.039  10.966 -0.5528 -1.3425  0.3709
 4143TIP3    H233921   1.934   5.116  11.096  1.1294 -2.0900  1.0104
 4144TIP3   OH233922   1.398   5.181  12.687  0.2519 -0.1470  0.2549
 4144TIP3    H133923   1.332   5.189  12.618  1.1583  1.1678 -0.4886
 4144TIP3    H233924   1.459   5.114  12.655  0.7429  0.5550 -0.2841
 4145TIP3   OH233925   5.238   3.913   3.060 -0.0542  0.4965  0.0257
 4145TIP3    H133926   5.155   3.882   3.096  0.3906 -0.1365  0.5077
 4145TIP3    H233927   5.254   3.996   3.105  1.9556 -1.5913  3.6352
 4146TIP3   OH233928   0.903   0.328   3.666  0.5001 -0.9865  0.2442
 4146TIP3    H133929   0.907   0.378   3.748 -2.3971 -1.1263  0.5778
 4146TIP3    H233930   0.948   0.246   3.686  0.2891 -0.8086  1.5566
 4147TIP3   OH233931   2.594   6.111  16.399 -0.0399  0.4036 -0.4056
 4147TIP3    H133932   2.662   6.060  16.443 -1.3286 -0.9027  0.1248
 4147TIP3    H233933   2.641   6.188  16.365  1.3030  0.6307  1.7795
 4148TIP3   OH233934   3.642   1.430  15.440 -0.8577 -0.3971  0.5218
 4148TIP3    H133935   3.679   1.503  15.489 -0.1432 -1.0502  0.9663
 4148TIP3    H233936   3.550   1.427  15.468 -1.4602  1.5632 -0.9919
 4149TIP3   OH233937   5.045   1.875   1.937  0.2480 -0.1648  0.0903
 4149TIP3    H133938   5.052   1.893   1.843 -0.4567 -1.2013 -0.1746
 4149TIP3    H233939   4.951   1.880   1.956  0.3256 -0.5766  0.6081
 4150TIP3   OH233940   1.529   4.849   1.867 -0.1258  0.1582  0.1744
 4150TIP3    H133941   1.507   4.871   1.958 -0.3270  0.1636  0.1264
 4150TIP3    H233942   1.456   4.793   1.838 -0.5453  0.9234 -0.2779
 4151TIP3   OH233943   2.155   1.524  12.834 -0.2698 -0.1394  0.0796
 4151TIP3    H133944   2.074   1.473  12.838 -1.4807  1.7276  0.8224
 4151TIP3    H233945   2.186   1.511  12.745 -1.1625 -1.2169 -0.1070
 4152TIP3   OH233946   2.367   1.449  13.180 -0.3824  0.6537 -0.4599
 4152TIP3    H133947   2.320   1.366  13.172 -2.0252  1.5129 -0.2546
 4152TIP3    H233948   2.387   1.456  13.273  0.3679  0.1855 -0.5794
 4153TIP3   OH233949   4.010   2.780  16.111 -0.3649 -0.3919 -0.8588
 4153TIP3    H133950   3.980   2.693  16.086 -0.1930 -0.0349 -2.4315
 4153TIP3    H233951   3.930   2.832  16.115 -0.4057 -0.4792 -0.5589
 4154TIP3   OH233952   3.818   2.552  15.812 -0.0991  0.0700 -0.5616
 4154TIP3    H133953   3.771   2.470  15.796 -1.1285  0.4909  0.1880
 4154TIP3    H233954   3.767   2.618  15.764 -0.0403  0.4717 -0.0721
 4155TIP3   OH233955   6.740   5.706   4.859  0.3872 -0.6184 -0.0772
 4155TIP3    H133956   6.734   5.745   4.771 -1.6056 -0.8371 -0.0696
 4155TIP3    H233957   6.765   5.779   4.916  1.7415 -0.4799 -0.7876
 4156TIP3   OH233958   0.143   2.200   6.085  0.0086 -0.2207  0.4025
 4156TIP3    H133959   0.110   2.121   6.042  0.4599 -0.0870 -0.2040
 4156TIP3    H233960   0.133   2.182   6.179 -1.3030 -0.3760  0.2459
 4157TIP3   OH233961   5.103   5.508  16.402 -0.3973  0.7259  0.6682
 4157TIP3    H133962   5.174   5.489  16.464 -2.6139  1.5081  3.6567
 4157TIP3    H233963   5.038   5.440  16.420  0.0946 -1.0400 -3.2059
 4158TIP3   OH233964   5.193   4.058   2.473  0.4588  0.0121 -0.3611
 4158TIP3    H133965   5.225   4.021   2.390  1.0919  0.1604 -0.1931
 4158TIP3    H233966   5.174   3.981   2.527 -1.2846 -0.1265 -1.1002
 4159TIP3   OH233967   4.722   3.498   0.231 -0.2749  0.2662  0.3887
 4159TIP3    H133968   4.660   3.428   0.251  0.8677 -1.3496 -1.3797
 4159TIP3    H233969   4.808   3.456   0.232  0.5641  1.8886  0.3116
 4160TIP3   OH233970   1.613   4.861  14.355 -0.0213 -0.0216  0.3522
 4160TIP3    H133971   1.570   4.839  14.438  0.3511  0.1752  0.5964
 4160TIP3    H233972   1.615   4.956  14.354  1.4335 -0.0235  0.8738
 4161TIP3   OH233973   6.726   6.271   4.458  0.4134 -0.1642  0.4007
 4161TIP3    H133974   6.758   6.237   4.541  1.7373 -1.2558 -0.5271
 4161TIP3    H233975   6.763   6.213   4.392 -1.9804 -0.3676 -0.8740
 4162TIP3   OH233976   3.517   2.440  16.064 -0.2934  0.7036 -0.1499
 4162TIP3    H133977   3.484   2.470  16.149 -2.0408 -0.6553 -0.3041
 4162TIP3    H233978   3.581   2.373  16.085 -2.1959 -1.1076  0.1396
 4163TIP3   OH233979   2.272   4.407   3.894  0.4305  0.0817 -0.0123
 4163TIP3    H133980   2.279   4.473   3.825  0.7210  0.5599  0.4655
 4163TIP3    H233981   2.355   4.359   3.889  0.4112  0.0524 -0.0558
 4164TIP3   OH233982   4.096   1.004   1.028 -0.4929  0.4117 -0.4829
 4164TIP3    H133983   4.059   0.943   1.091  0.0391  0.8044  0.2210
 4164TIP3    H233984   4.056   1.088   1.049 -0.0341  0.6192 -0.4306
 4165TIP3   OH233985   1.528   1.323   0.113  0.1356  0.4337 -0.5876
 4165TIP3    H133986   1.488   1.322   0.200  1.5282  0.9120  0.1016
 4165TIP3    H233987   1.514   1.413   0.081 -0.0048  0.3813 -0.6732
 4166TIP3   OH233988   6.548   2.478   2.469  0.3022  0.1675  0.6738
 4166TIP3    H133989   6.542   2.553   2.411  2.8726 -0.7199 -0.9167
 4166TIP3    H233990   6.467   2.429   2.454  0.1398  0.8565 -0.9049
 4167TIP3   OH233991   4.478   0.180   5.652  0.0134  0.4504 -0.2900
 4167TIP3    H133992   4.406   0.191   5.715 -1.5043 -0.1651 -1.8315
 4167TIP3    H233993   4.493   0.086   5.650 -1.0305  0.2754 -1.9161
 4168TIP3   OH233994   2.390   3.382  14.159 -0.2219 -0.1004 -0.4243
 4168TIP3    H133995   2.407   3.312  14.222  2.2930 -0.1685 -1.0715
 4168TIP3    H233996   2.458   3.372  14.092 -0.8640  1.8909 -1.4752
 4169TIP3   OH233997   5.259   6.003   2.974  0.7093 -0.0597 -0.7516
 4169TIP3    H133998   5.261   5.977   3.066  1.2120  0.5348 -0.5857
 4169TIP3    H233999   5.165   6.003   2.952  0.6527 -1.3528 -0.5943
 4170TIP3   OH234000   4.458   2.917   2.299 -0.1420 -0.1196 -0.2832
 4170TIP3    H134001   4.529   2.860   2.270  1.1744  0.7412  1.0545
 4170TIP3    H234002   4.404   2.930   2.222  1.0957 -0.9009 -1.3249
 4171TIP3   OH234003   3.360   0.882  15.406 -0.5467 -0.3256  0.0302
 4171TIP3    H134004   3.396   0.967  15.379 -1.0117 -0.3133 -0.5645
 4171TIP3    H234005   3.390   0.821  15.338 -1.0821 -0.4411 -0.1031
 4172TIP3   OH234006   2.323   2.708  16.971  1.4398  0.1386 -0.1913
 4172TIP3    H134007   2.267   2.732  16.897  0.1252  0.9349  0.9953
 4172TIP3    H234008   2.283   2.627  17.005  1.0870  0.5989  0.5349
 4173TIP3   OH234009   2.564   6.027   5.212 -0.7199 -0.0433  0.0007
 4173TIP3    H134010   2.547   6.021   5.118 -1.2373  0.4291  0.0622
 4173TIP3    H234011   2.595   5.939   5.236 -0.3201 -0.0890 -0.6540
 4174TIP3   OH234012   5.234   3.004  16.168  0.3924  0.0001 -0.6728
 4174TIP3    H134013   5.251   2.915  16.139 -1.6067 -0.0341 -1.9043
 4174TIP3    H234014   5.188   2.995  16.251  1.5720 -0.0379 -0.0012
 4175TIP3   OH234015   5.742   4.680  10.195  0.4264  0.0499 -0.1258
 4175TIP3    H134016   5.710   4.724  10.274  2.5694 -1.8070  1.8814
 4175TIP3    H234017   5.836   4.696  10.195  0.8051 -1.9264 -1.0057
 4176TIP3   OH234018   0.363   3.489  13.943  0.4642 -0.4385 -0.2854
 4176TIP3    H134019   0.293   3.527  13.890  1.1220 -0.4691 -1.1893
 4176TIP3    H234020   0.346   3.522  14.031 -0.4971 -0.1762 -0.5518
 4177TIP3   OH234021   0.944   4.301   4.076  0.5292 -0.6725 -0.1177
 4177TIP3    H134022   0.911   4.390   4.087 -1.0490 -0.9896 -1.9194
 4177TIP3    H234023   0.956   4.269   4.166  0.1969  0.9937  0.5591
 4178TIP3   OH234024   6.246   4.880   5.381  0.0285  0.1747 -0.1326
 4178TIP3    H134025   6.179   4.929   5.428  1.0437  0.9337  0.5660
 4178TIP3    H234026   6.320   4.878   5.440 -0.0660 -2.5213  0.0002
 4179TIP3   OH234027   4.487   5.285   4.944  1.4832  0.1631  0.0113
 4179TIP3    H134028   4.456   5.360   4.994 -0.8309 -0.4436 -0.4033
 4179TIP3    H234029   4.454   5.209   4.992 -0.9355 -0.4426 -2.3553
 4180TIP3   OH234030   5.444   0.528  10.701  0.2641 -0.1865  0.4399
 4180TIP3    H134031   5.481   0.441  10.717  0.4534 -0.3067 -0.6030
 4180TIP3    H234032   5.455   0.542  10.607  1.5969  1.5936  0.8233
 4181TIP3   OH234033   0.372   3.093  16.219  0.5336  0.1270 -0.0569
 4181TIP3    H134034   0.354   3.119  16.309  2.0212  2.0032 -0.2327
 4181TIP3    H234035   0.414   3.007  16.226 -0.4797 -0.3035  0.9216
 4182TIP3   OH234036   0.771   0.380  12.352 -0.1953 -0.1158 -0.2581
 4182TIP3    H134037   0.698   0.378  12.290  1.1338  1.3905 -1.9999
 4182TIP3    H234038   0.830   0.311  12.321 -0.5082 -0.8378  0.7010
 4183TIP3   OH234039   0.567   2.201   0.766 -0.3427  0.4424  0.0384
 4183TIP3    H134040   0.498   2.243   0.819 -0.6086 -0.6207  0.5491
 4183TIP3    H234041   0.621   2.155   0.830 -0.9506 -1.2708 -0.6360
 4184TIP3   OH234042   4.246   6.322  12.847 -0.3332  0.5277  0.3702
 4184TIP3    H134043   4.221   6.243  12.894 -1.3863  0.3552 -0.4253
 4184TIP3    H234044   4.206   6.393  12.896  1.4545  0.7138  1.6688
 4185TIP3   OH234045   4.266   3.553   4.919  0.1125 -0.4902  0.1042
 4185TIP3    H134046   4.175   3.577   4.937  0.0596  0.5163 -1.2461
 4185TIP3    H234047   4.298   3.625   4.863  1.2799 -1.5529 -0.6404
 4186TIP3   OH234048   3.190   4.554  17.107 -0.0764 -0.3999 -0.0903
 4186TIP3    H134049   3.199   4.482  17.170 -0.9178  0.7490  1.4130
 4186TIP3    H234050   3.242   4.625  17.143  2.2567 -0.7329 -2.4818
 4187TIP3   OH234051   5.853   3.324  14.392  0.7215  0.1067  0.1054
 4187TIP3    H134052   5.902   3.263  14.447  1.6355 -1.4265 -2.2147
 4187TIP3    H234053   5.865   3.410  14.434  0.3124 -1.0870  2.8761
 4188TIP3   OH234054   2.020   1.636  15.146 -0.1959 -0.0777  0.3070
 4188TIP3    H134055   1.972   1.582  15.210 -0.6588  0.7207  0.6463
 4188TIP3    H234056   1.956   1.651  15.076  0.3805 -1.1442 -0.4853
 4189TIP3   OH234057   3.198   5.760   1.731  0.7106  0.0295  0.4466
 4189TIP3    H134058   3.238   5.837   1.690  0.2448  0.5602  0.9647
 4189TIP3    H234059   3.237   5.756   1.818 -0.6421  0.8072  1.1217
 4190TIP3   OH234060   4.073   2.715   0.409  0.0859  0.2173 -0.1344
 4190TIP3    H134061   4.116   2.794   0.441  1.2512 -1.1887  1.9330
 4190TIP3    H234062   3.979   2.732   0.423  0.3893  0.7885  1.4055
 4191TIP3   OH234063   3.627   2.278   6.016  0.5132 -0.2037 -0.3671
 4191TIP3    H134064   3.595   2.253   5.929  0.0683  2.1264 -0.9180
 4191TIP3    H234065   3.554   2.323   6.057  0.3788 -2.0951  1.6788
 4192TIP3   OH234066   2.765   3.987  11.199 -0.2985 -0.2291 -0.2851
 4192TIP3    H134067   2.673   3.974  11.223 -0.1356 -0.9387  0.0014
 4192TIP3    H234068   2.768   3.973  11.104 -0.6959  1.0991 -0.5132
 4193TIP3   OH234069   1.897   0.223  14.549 -0.2994 -0.6774 -0.0899
 4193TIP3    H134070   1.914   0.317  14.550 -1.1096 -0.5030  2.2629
 4193TIP3    H234071   1.822   0.213  14.491  0.4018 -0.0329 -1.1515
 4194TIP3   OH234072   5.483   6.224  10.547  0.2305  0.5007  0.0472
 4194TIP3    H134073   5.413   6.275  10.507 -0.1001 -0.8244 -1.1458
 4194TIP3    H234074   5.439   6.145  10.580  1.0368  0.0417  0.0442
 4195TIP3   OH234075   5.491   5.140  12.806  0.0428 -0.4385  0.1314
 4195TIP3    H134076   5.508   5.230  12.779  0.9124 -0.8893 -0.8653
 4195TIP3    H234077   5.447   5.100  12.731 -0.5927 -0.7888  0.6720
 4196TIP3   OH234078   2.095   1.910  14.647  0.0118  0.5613  0.0893
 4196TIP3    H134079   2.174   1.950  14.611  0.1735  0.1265 -0.0429
 4196TIP3    H234080   2.031   1.981  14.648 -0.5054  0.2396 -2.5543
 4197TIP3   OH234081   4.183   1.047  12.843  0.2049 -0.0775  0.1001
 4197TIP3    H134082   4.164   0.955  12.823  2.0390 -0.3437 -0.6378
 4197TIP3    H234083   4.225   1.045  12.929 -0.0048  0.0932  0.2060
 4198TIP3   OH234084   0.491   1.537  14.938 -0.0825  0.1292  0.2356
 4198TIP3    H134085   0.503   1.444  14.958 -3.2402 -0.2124  1.1760
 4198TIP3    H234086   0.399   1.544  14.912  0.1964  2.9291 -0.3454
 4199TIP3   OH234087   3.491   0.943   2.369  0.5628 -0.2744  0.3883
 4199TIP3    H134088   3.474   0.859   2.411  0.3017  0.4618  1.7955
 4199TIP3    H234089   3.584   0.959   2.384  0.4937 -0.0601  0.5899
 4200TIP3   OH234090   1.326   3.792   6.062  0.1480 -0.3028 -0.7291
 4200TIP3    H134091   1.369   3.864   6.015  1.5275 -1.2944 -1.0488
 4200TIP3    H234092   1.365   3.713   6.025 -0.1471 -1.1760  0.7634
 4201TIP3   OH234093   3.097   0.172   4.601  0.0589 -0.0821  0.0146
 4201TIP3    H134094   3.110   0.251   4.548  2.2500 -0.2851  0.1830
 4201TIP3    H234095   3.095   0.101   4.537  2.5662 -0.3126  0.1023
 4202TIP3   OH234096   6.087   3.294   5.127 -0.3430  0.2735  0.0904
 4202TIP3    H134097   6.067   3.274   5.219 -0.0963 -2.5087 -0.3749
 4202TIP3    H234098   6.002   3.317   5.089 -1.4306 -3.2705  0.0235
 4203TIP3   OH234099   0.783   2.631  13.048 -0.6530 -0.5978 -0.2301
 4203TIP3    H134100   0.753   2.721  13.043 -2.3057 -1.0791  0.3170
 4203TIP3    H234101   0.862   2.635  13.103 -1.1380  0.4171  0.4211
 4204TIP3   OH234102   6.824   0.334   3.189  0.4319 -0.4918  0.1571
 4204TIP3    H134103   6.840   0.268   3.122  0.0121 -1.0977  0.6467
 4204TIP3    H234104   6.815   0.416   3.140  1.4892 -0.6931 -0.4186
 4205TIP3   OH234105   3.921   6.081  13.807 -0.0109  0.0661  0.1261
 4205TIP3    H134106   3.946   6.154  13.751 -0.1423 -0.2730 -0.3776
 4205TIP3    H234107   3.916   6.119  13.895  0.4055  0.5508 -0.0579
 4206TIP3   OH234108   4.639   3.914   4.482  0.1634  0.1043  0.3147
 4206TIP3    H134109   4.650   3.848   4.413  0.5198  0.4186  0.0625
 4206TIP3    H234110   4.728   3.944   4.501  0.0419  0.2158  0.7223
 4207TIP3   OH234111   6.510   0.841  16.834  0.1043  0.2377  0.2076
 4207TIP3    H134112   6.426   0.818  16.874  0.0730  0.9593  0.5793
 4207TIP3    H234113   6.576   0.810  16.897  0.2168 -2.0651 -0.9638
 4208TIP3   OH234114   6.238   0.131  11.110 -0.5695 -0.2647 -0.2615
 4208TIP3    H134115   6.156   0.106  11.068 -0.9391  0.6836 -0.1118
 4208TIP3    H234116   6.229   0.224  11.128 -0.3834 -0.6103  1.8611
 4209TIP3   OH234117   0.454   1.694  13.976  0.1480  0.3083  0.4261
 4209TIP3    H134118   0.427   1.786  13.966 -1.2661 -0.1130  0.1685
 4209TIP3    H234119   0.461   1.682  14.071  1.4964  0.9775  0.4375
 4210TIP3   OH234120   1.870   1.725  14.559 -0.1128  0.4934 -0.3397
 4210TIP3    H134121   1.904   1.651  14.610 -0.1380 -0.3620 -1.5256
 4210TIP3    H234122   1.948   1.766  14.522  0.0736  2.2561  1.8106
 4211TIP3   OH234123   4.756   1.815  16.792 -0.4967 -0.4495  0.4894
 4211TIP3    H134124   4.722   1.886  16.847 -2.0752 -0.5590 -0.3099
 4211TIP3    H234125   4.693   1.745  16.802  1.4598 -2.1356  1.9277
 4212TIP3   OH234126   0.948   1.443  15.405  0.4691  0.2317  0.1585
 4212TIP3    H134127   1.001   1.377  15.360  2.1087 -1.1165  3.6850
 4212TIP3    H234128   0.967   1.525  15.360  1.9541 -0.9842 -1.5525
 4213TIP3   OH234129   5.826   4.886   4.005 -0.2785  0.7965 -0.6240
 4213TIP3    H134130   5.846   4.858   3.915 -0.9443 -2.2131  0.0446
 4213TIP3    H234131   5.731   4.882   4.010 -0.1828 -0.9151  0.6727
 4214TIP3   OH234132   2.184   5.967   5.664 -0.3289  0.5786  0.2399
 4214TIP3    H134133   2.203   6.047   5.713  2.3858  0.6595 -0.8044
 4214TIP3    H234134   2.169   5.900   5.730 -1.0122  1.5792  1.1263
 4215TIP3   OH234135   6.271   2.521  10.805  0.3628 -0.6411 -0.9648
 4215TIP3    H134136   6.178   2.514  10.823  0.5538 -0.5816  0.1072
 4215TIP3    H234137   6.314   2.475  10.878  1.2221  0.9865 -0.4019
 4216TIP3   OH234138   3.962   3.383  12.997 -0.9139 -0.0534  0.2579
 4216TIP3    H134139   4.040   3.424  13.035 -0.4509 -0.8863  0.2287
 4216TIP3    H234140   3.941   3.437  12.921  0.6899 -0.8256 -0.7776
 4217TIP3   OH234141   1.562   6.081  12.665  0.4005  0.1618  0.5955
 4217TIP3    H134142   1.498   6.021  12.705  1.1662 -0.5487  0.7840
 4217TIP3    H234143   1.580   6.042  12.579 -0.1524  0.9047  0.1271
 4218TIP3   OH234144   4.872   3.767   4.639  0.3794 -0.2860  0.5113
 4218TIP3    H134145   4.789   3.731   4.610  0.4382  0.2997 -0.4251
 4218TIP3    H234146   4.912   3.804   4.560  1.5313 -0.5588  0.9378
 4219TIP3   OH234147   6.807   4.452   4.209  0.0409  0.8699 -0.7466
 4219TIP3    H134148   6.727   4.503   4.197 -2.3333 -2.0108  1.3550
 4219TIP3    H234149   6.826   4.459   4.303  1.1612 -0.0116 -0.8826
 4220TIP3   OH234150   2.506   0.308  16.700  0.1274  0.2752  0.0228
 4220TIP3    H134151   2.594   0.347  16.692  0.3633 -0.0966  0.6881
 4220TIP3    H234152   2.446   0.382  16.687  0.5351  0.5349 -0.4285
 4221TIP3   OH234153   6.422   3.511   0.461 -0.3272  0.3526 -0.1631
 4221TIP3    H134154   6.475   3.585   0.493 -2.1374  1.6519 -0.0336
 4221TIP3    H234155   6.475   3.472   0.392  2.7084 -1.1007  2.7018
 4222TIP3   OH234156   3.733   3.229   3.255 -0.4461 -0.7099  0.0058
 4222TIP3    H134157   3.767   3.268   3.335 -0.4935  0.6620 -0.6118
 4222TIP3    H234158   3.766   3.285   3.185  1.0201 -2.7984 -1.1254
 4223TIP3   OH234159   5.142   5.766   0.372  0.0561  0.1666  0.1992
 4223TIP3    H134160   5.212   5.718   0.416  0.1067  0.9178  0.9687
 4223TIP3    H234161   5.061   5.724   0.401  0.0843  0.7076  1.0967
 4224TIP3   OH234162   1.484   3.583   5.466 -0.3526  0.5394  0.2076
 4224TIP3    H134163   1.437   3.656   5.506  0.1006  0.7226  0.4145
 4224TIP3    H234164   1.542   3.552   5.536 -0.2822  0.2142  0.0054
 4225TIP3   OH234165   5.603   3.818   2.694 -0.4893 -0.5528 -0.8257
 4225TIP3    H134166   5.538   3.875   2.735 -0.9437 -0.6565 -1.3889
 4225TIP3    H234167   5.632   3.867   2.617  1.7288  0.4818  0.5518
 4226TIP3   OH234168   2.669   5.590  14.200  0.0575 -0.3810 -0.0513
 4226TIP3    H134169   2.597   5.568  14.141  1.3188  0.4654 -1.9712
 4226TIP3    H234170   2.727   5.514  14.196 -0.0943 -0.5373  0.5369
 4227TIP3   OH234171   2.237   4.074  13.259 -0.2233 -0.5131  0.0289
 4227TIP3    H134172   2.285   4.128  13.322 -1.0328 -0.7405  0.8588
 4227TIP3    H234173   2.179   4.135  13.214 -1.1524 -0.6500  0.9801
 4228TIP3   OH234174   0.704   0.836   1.829 -0.5099 -0.2805  0.2788
 4228TIP3    H134175   0.626   0.805   1.784  0.3627 -2.0097 -0.1282
 4228TIP3    H234176   0.758   0.874   1.760 -0.5308 -0.0352  0.3948
 4229TIP3   OH234177   5.655   0.201  15.265  0.3727  0.3271  0.1258
 4229TIP3    H134178   5.595   0.199  15.190 -0.3702  2.2215  0.6049
 4229TIP3    H234179   5.681   0.110  15.278  0.5857 -0.0484 -2.4624
 4230TIP3   OH234180   5.452   0.741  16.102 -0.0919 -0.2806  0.6416
 4230TIP3    H134181   5.366   0.714  16.067 -0.5879  2.2784 -0.3387
 4230TIP3    H234182   5.501   0.659  16.109 -2.0662 -1.6466 -0.3186
 4231TIP3   OH234183   2.002   1.198   1.780  0.0982 -0.0385  1.0249
 4231TIP3    H134184   2.083   1.162   1.744 -0.8876  0.5224 -1.9557
 4231TIP3    H234185   2.030   1.278   1.825  1.2305 -0.0275  0.3452
 4232TIP3   OH234186   1.748   4.644   2.118  0.0986  0.0443 -0.0704
 4232TIP3    H134187   1.677   4.707   2.128  0.3533  0.1657  1.1096
 4232TIP3    H234188   1.729   4.600   2.035 -0.1614  1.5562 -0.8552
 4233TIP3   OH234189   4.233   6.418  12.340  0.1996  0.2820  0.0065
 4233TIP3    H134190   4.294   6.356  12.300  1.0120  2.5679 -2.6779
 4233TIP3    H234191   4.156   6.415  12.283  0.8939  2.7641 -1.2090
 4234TIP3   OH234192   0.260   2.718   0.274 -0.1822 -0.5393  0.3304
 4234TIP3    H134193   0.345   2.724   0.317 -1.0523  0.0690  2.0575
 4234TIP3    H234194   0.212   2.653   0.325 -1.1503 -0.0109  0.1156
 4235TIP3   OH234195   4.781   5.836   2.737  0.4643 -0.4725 -0.2335
 4235TIP3    H134196   4.835   5.912   2.713  0.4951 -1.0787 -2.3424
 4235TIP3    H234197   4.831   5.761   2.703 -0.0450 -1.3506  0.9268
 4236TIP3   OH234198   4.987   1.576   0.283  0.4320  0.5216  0.1648
 4236TIP3    H134199   5.041   1.591   0.360  0.9552  0.5035 -0.1894
 4236TIP3    H234200   5.051   1.560   0.213  0.0062  1.9234 -0.5772
 4237TIP3   OH234201   1.918   2.992  15.771 -0.0077 -0.0335  0.0549
 4237TIP3    H134202   1.909   3.085  15.748  0.5213 -0.2029 -0.8768
 4237TIP3    H234203   1.829   2.959  15.773 -0.5195  1.1538  3.3723
 4238TIP3   OH234204   3.655   5.951  12.294 -0.1076 -0.4660  0.3163
 4238TIP3    H134205   3.586   6.009  12.328 -0.7622 -0.5211 -0.8417
 4238TIP3    H234206   3.693   6.000  12.221  0.5030 -0.7953  0.4105
 4239TIP3   OH234207   2.834   1.306  12.905 -0.0620 -0.4221  0.0840
 4239TIP3    H134208   2.793   1.344  12.983  0.4415 -1.6056  0.9608
 4239TIP3    H234209   2.913   1.264  12.939  1.0165  0.4070 -1.3197
 4240TIP3   OH234210   1.085   0.175  12.457  0.2067 -0.5615 -0.0470
 4240TIP3    H134211   1.006   0.132  12.492  1.2503 -2.8043 -0.2920
 4240TIP3    H234212   1.072   0.177  12.363 -0.0244  0.1228 -0.0097
 4241TIP3   OH234213   0.756   3.676  13.960 -0.0200 -0.3512  0.3025
 4241TIP3    H134214   0.844   3.639  13.963 -0.7343 -2.0553  1.1116
 4241TIP3    H234215   0.700   3.609  13.998 -1.6732  0.7423 -0.1070
 4242TIP3   OH234216   3.628   2.112   5.018  0.9730  0.2166  0.7378
 4242TIP3    H134217   3.613   2.199   4.980  1.3995  0.8898  2.0350
 4242TIP3    H234218   3.681   2.066   4.953 -0.9463  0.1766 -0.8825
 4243TIP3   OH234219   4.286   2.884   5.142  0.0266  0.4447 -0.6510
 4243TIP3    H134220   4.368   2.929   5.162  0.6018 -1.1999  0.9537
 4243TIP3    H234221   4.310   2.792   5.136 -1.6265 -0.0212 -0.6532
 4244TIP3   OH234222   3.202   3.098  11.388  0.5416 -0.3904 -0.6108
 4244TIP3    H134223   3.137   3.091  11.458  0.4117  0.3220 -0.6616
 4244TIP3    H234224   3.245   3.182  11.404  1.0656 -0.5968 -0.9126
 4245TIP3   OH234225   5.888   6.529  16.374  0.2234 -0.1651 -0.5800
 4245TIP3    H134226   5.799   6.518  16.407  0.2377 -2.0093 -1.0455
 4245TIP3    H234227   5.941   6.545  16.452 -0.4195  0.3256 -0.2370
 4246TIP3   OH234228   3.220   3.076  14.058 -0.0613 -0.6423 -0.1705
 4246TIP3    H134229   3.308   3.086  14.095 -0.5395 -2.2472  1.5071
 4246TIP3    H234230   3.170   3.149  14.096  0.4965  0.2636 -1.1150
 4247TIP3   OH234231   0.059   2.227   1.978  0.9285 -0.0105  0.0971
 4247TIP3    H134232   0.094   2.141   2.001 -2.3805 -1.0521  1.8899
 4247TIP3    H234233   0.104   2.288   2.036  0.6560 -1.1222  1.5391
 4248TIP3   OH234234   4.404   1.335  11.791  0.2389 -0.1447 -0.1284
 4248TIP3    H134235   4.440   1.423  11.788 -1.9434  0.7956 -2.6998
 4248TIP3    H234236   4.448   1.289  11.720 -2.1263  0.4994 -2.1449
 4249TIP3   OH234237   3.914   2.669  17.076  0.1447  0.2608 -0.1111
 4249TIP3    H134238   3.979   2.642  17.140  0.6523  1.9954  0.1723
 4249TIP3    H234239   3.859   2.733  17.123  0.0723  1.0111 -1.1698
 4250TIP3   OH234240   2.007   3.208  15.947  0.1322 -0.2468 -0.0326
 4250TIP3    H134241   2.043   3.180  15.863  2.2161  1.3376  0.2412
 4250TIP3    H234242   2.083   3.226  16.001 -1.1544 -0.1872  1.8639
 4251TIP3   OH234243   2.279   6.771   5.087 -0.3436 -0.4540  0.3576
 4251TIP3    H134244   2.367   6.781   5.123 -0.1827  0.3589 -0.2447
 4251TIP3    H234245   2.223   6.820   5.146 -0.1426  0.4991 -0.2286
 4252TIP3   OH234246   1.953   5.508  17.131  0.2449 -0.1035 -0.0861
 4252TIP3    H134247   2.021   5.556  17.083  2.8429 -1.7437  1.6421
 4252TIP3    H234248   1.945   5.556  17.214  0.6856 -0.9086  0.4405
 4253TIP3   OH234249   0.144   6.001  12.012  0.1224 -0.3426 -0.2084
 4253TIP3    H134250   0.195   6.053  11.950 -0.8417 -0.9752 -1.5838
 4253TIP3    H234251   0.121   6.064  12.082  1.2849  0.3634 -0.4373
 4254TIP3   OH234252   1.292   2.848   5.124 -0.2286 -0.0669  0.1433
 4254TIP3    H134253   1.304   2.755   5.146  2.1942  0.5002  1.5526
 4254TIP3    H234254   1.339   2.858   5.041 -2.5401 -0.5139 -1.3212
 4255TIP3   OH234255   5.631   1.490   5.645  0.1410 -0.2957  0.2252
 4255TIP3    H134256   5.544   1.514   5.611  0.7078  0.6555 -0.6130
 4255TIP3    H234257   5.620   1.493   5.741 -0.4720  0.9590  0.1466
 4256TIP3   OH234258   6.207   5.884  11.362  0.1375  0.2771 -0.2935
 4256TIP3    H134259   6.226   5.940  11.437  1.1747  0.1989 -0.4905
 4256TIP3    H234260   6.250   5.927  11.288  2.4811 -1.6413 -0.1608
 4257TIP3   OH234261   6.735   1.651  16.465 -0.2155 -0.0069  0.2068
 4257TIP3    H134262   6.797   1.662  16.393 -0.1211 -1.3933  0.0475
 4257TIP3    H234263   6.653   1.687  16.432  0.2884  1.0848  0.1164
 4258TIP3   OH234264   6.509   2.387   0.336  0.7889 -0.6103 -0.0344
 4258TIP3    H134265   6.491   2.295   0.354 -0.9124 -0.5794 -1.3722
 4258TIP3    H234266   6.558   2.385   0.254 -1.0513 -0.2612 -1.1797
 4259TIP3   OH234267   1.619   1.609   5.875  0.1255 -0.1547 -0.0705
 4259TIP3    H134268   1.552   1.546   5.900 -0.6105  0.4685 -0.4126
 4259TIP3    H234269   1.636   1.660   5.954  2.3579 -2.1594  0.8639
 4260TIP3   OH234270   6.244   1.640  13.024 -0.0849  0.0418  0.4762
 4260TIP3    H134271   6.233   1.564  13.081 -2.5425 -0.0406  0.0145
 4260TIP3    H234272   6.329   1.627  12.983 -1.1665 -3.5172 -1.0244
 4261TIP3   OH234273   4.443   1.710   4.645  0.2183 -0.5733  0.4569
 4261TIP3    H134274   4.397   1.639   4.690 -0.6357 -0.2759  0.0754
 4261TIP3    H234275   4.389   1.788   4.662  0.1908 -0.3513 -0.5905
 4262TIP3   OH234276   0.006   4.150  12.792 -0.0528  0.3070 -0.6331
 4262TIP3    H134277   0.085   4.101  12.766 -0.2972  0.6518 -2.1001
 4262TIP3    H234278   0.024   4.178  12.882  1.3920  0.1466 -0.8463
 4263TIP3   OH234279   3.708   3.069  13.668  0.2890 -0.2361 -0.1301
 4263TIP3    H134280   3.725   3.010  13.741 -1.0533 -0.9656 -0.3624
 4263TIP3    H234281   3.746   3.025  13.592  0.3222 -0.2307 -0.1168
 4264TIP3   OH234282   1.504   6.212   3.611 -0.7638 -0.7511  0.1601
 4264TIP3    H134283   1.528   6.236   3.522 -2.5788  0.1741 -0.1379
 4264TIP3    H234284   1.553   6.273   3.667 -0.3728 -0.6926 -0.2455
 4265TIP3   OH234285   4.016   0.963   4.184 -0.8021  0.1814  0.6608
 4265TIP3    H134286   3.948   0.923   4.130  0.3261  0.2528 -0.8745
 4265TIP3    H234287   3.983   1.052   4.202 -0.3549  0.8621 -1.6098
 4266TIP3   OH234288   0.443   6.019  13.186 -0.3106 -0.0734 -0.0879
 4266TIP3    H134289   0.357   6.046  13.218 -0.4265 -0.4968 -0.0278
 4266TIP3    H234290   0.495   6.007  13.266 -0.3095 -0.1853 -0.1056
 4267TIP3   OH234291   2.004   6.404  16.398 -0.2889 -0.7416 -0.1971
 4267TIP3    H134292   1.919   6.434  16.364 -0.4120 -0.4642  0.3549
 4267TIP3    H234293   2.061   6.404  16.321 -0.6636 -0.4881 -0.4827
 4268TIP3   OH234294   4.178   3.976   2.530 -0.0248 -0.5443  0.5150
 4268TIP3    H134295   4.091   4.001   2.499  0.7082  0.8863 -0.5300
 4268TIP3    H234296   4.171   3.976   2.625 -1.1226 -0.2777  0.4478
 4269TIP3   OH234297   0.602   4.254  13.194  0.2257  0.1750  0.1240
 4269TIP3    H134298   0.582   4.328  13.251  0.8337  0.0778  0.4689
 4269TIP3    H234299   0.530   4.252  13.131  1.3116  2.5136 -1.3584
 4270TIP3   OH234300   2.539   1.292  16.529  0.4907 -0.4024  0.2468
 4270TIP3    H134301   2.455   1.286  16.483  0.7225  1.0683 -0.4236
 4270TIP3    H234302   2.516   1.326  16.616  0.4003  0.1436  0.0126
 4271TIP3   OH234303   1.907   4.925  14.905 -0.4236  0.3091 -0.4422
 4271TIP3    H134304   1.913   4.861  14.834 -0.7078  0.4103 -0.5580
 4271TIP3    H234305   1.913   4.873  14.985  1.9382  0.3709 -0.5093
 4272TIP3   OH234306   0.134   4.198  11.046 -0.0888 -0.0616  0.9383
 4272TIP3    H134307   0.160   4.266  10.983  0.9141 -0.6276  0.7135
 4272TIP3    H234308   0.050   4.228  11.080 -0.5765  0.3412 -0.5443
 4273TIP3   OH234309   5.231   2.516   5.458 -0.1349 -0.3974  0.0595
 4273TIP3    H134310   5.173   2.472   5.395 -1.8045  0.4805  0.9094
 4273TIP3    H234311   5.306   2.545   5.406 -0.3420 -1.7700 -1.0432
 4274TIP3   OH234312   4.047   6.575   0.387  0.1155  0.4017  0.2081
 4274TIP3    H134313   4.080   6.621   0.310 -2.6173  2.0926 -0.0993
 4274TIP3    H234314   4.088   6.620   0.461  1.6744 -0.3249 -0.1752
 4275TIP3   OH234315   5.317   0.729   5.295 -0.1472 -0.3718 -0.2574
 4275TIP3    H134316   5.288   0.815   5.262  1.7148  0.0281 -0.9763
 4275TIP3    H234317   5.263   0.666   5.247  0.2097  0.3357 -1.6580
 4276TIP3   OH234318   1.283   0.671   5.402 -0.0604 -0.5712  0.3577
 4276TIP3    H134319   1.205   0.701   5.354 -1.4691 -0.3857  2.5908
 4276TIP3    H234320   1.312   0.593   5.354 -0.6556  0.2614 -1.4378
 4277TIP3   OH234321   5.201   0.080  11.698 -0.4910 -0.5569  0.1525
 4277TIP3    H134322   5.214  -0.013  11.676  0.2972 -0.4881  0.3118
 4277TIP3    H234323   5.117   0.102  11.657  0.3259 -0.7716 -1.7549
 4278TIP3   OH234324   5.169   6.753  13.894 -0.0731  0.0643 -0.1874
 4278TIP3    H134325   5.158   6.659  13.908  1.0385 -0.0382  0.1297
 4278TIP3    H234326   5.256   6.761  13.853 -0.7543  0.8423 -1.5491
 4279TIP3   OH234327   5.902   1.320   2.551 -0.2316 -0.6128  0.0862
 4279TIP3    H134328   5.874   1.317   2.459 -0.9269 -1.0593  0.3040
 4279TIP3    H234329   5.820   1.326   2.600  0.0517 -1.9056  0.7446
 4280TIP3   OH234330   6.348   4.871  12.680 -0.0756 -0.3177 -0.0997
 4280TIP3    H134331   6.363   4.788  12.635 -0.1687 -0.2178 -0.3194
 4280TIP3    H234332   6.396   4.935  12.627  2.5674 -0.6401  1.6970
 4281TIP3   OH234333   2.878   2.740   1.795  0.9626 -0.4698 -0.2166
 4281TIP3    H134334   2.915   2.656   1.821  2.5538 -0.0323 -0.9968
 4281TIP3    H234335   2.802   2.716   1.741 -0.7183 -1.3674  2.3114
 4282TIP3   OH234336   4.906   5.515  12.728  0.8061  1.3153 -0.3761
 4282TIP3    H134337   4.829   5.509  12.786  2.7636 -1.4198  2.2693
 4282TIP3    H234338   4.917   5.609  12.714 -1.0196  2.0262  2.0527
 4283TIP3   OH234339   1.037   5.954   0.976  0.4811 -0.3321  0.5975
 4283TIP3    H134340   0.980   6.030   0.987 -1.2129 -1.6998  1.9506
 4283TIP3    H234341   1.123   5.984   1.004  0.1547  1.4098 -0.1283
 4284TIP3   OH234342   5.966   4.761  11.561  0.7366  0.1810  0.2649
 4284TIP3    H134343   5.918   4.843  11.570 -0.5060 -0.3934 -0.7180
 4284TIP3    H234344   5.993   4.739  11.650  0.1266  1.1031  0.6913
 4285TIP3   OH234345   3.361   5.826   6.433  0.1531  0.0366  0.4126
 4285TIP3    H134346   3.267   5.811   6.426 -0.0799  1.7813 -1.3086
 4285TIP3    H234347   3.369   5.896   6.498  0.0999  0.8452 -0.4265
 4286TIP3   OH234348   3.491   3.722   2.620  0.2502  0.2109  0.6693
 4286TIP3    H134349   3.490   3.737   2.715  1.8269  0.4210  0.6822
 4286TIP3    H234350   3.553   3.650   2.609 -0.8515 -0.6422 -0.1139
 4287TIP3   OH234351   1.167   0.670  16.183  0.0827 -0.2000  0.5154
 4287TIP3    H134352   1.238   0.702  16.239  1.8887 -1.5086 -0.9314
 4287TIP3    H234353   1.156   0.738  16.116  0.3280 -0.2386  0.4374
 4288TIP3   OH234354   6.510   2.961   2.478 -0.5411  0.2471  0.4694
 4288TIP3    H134355   6.463   2.937   2.558 -0.3072 -0.2765  0.4550
 4288TIP3    H234356   6.537   3.052   2.492 -0.4620  0.1425  1.0082
 4289TIP3   OH234357   6.409   5.569  14.392 -0.5492  1.3337 -0.0377
 4289TIP3    H134358   6.418   5.663  14.408  0.3325  1.1373  0.6352
 4289TIP3    H234359   6.327   5.545  14.436  0.4258  1.3437  1.8581
 4290TIP3   OH234360   1.173   1.248   2.064  0.2658 -1.1220  0.4122
 4290TIP3    H134361   1.197   1.299   2.142  1.4551  2.7863 -2.2005
 4290TIP3    H234362   1.235   1.277   1.997 -2.5493 -1.9073 -2.8126
 4291TIP3   OH234363   3.625   5.290   0.245  0.2364  0.3314  0.4166
 4291TIP3    H134364   3.608   5.207   0.290 -1.2711  0.3345 -0.0680
 4291TIP3    H234365   3.688   5.268   0.176  0.3465 -0.2745  0.7062
 4292TIP3   OH234366   0.952   4.226  16.824 -0.1942  0.6515  0.0087
 4292TIP3    H134367   0.989   4.311  16.800 -2.0615  1.6245  0.3565
 4292TIP3    H234368   0.859   4.234  16.801 -1.4319  0.4136  4.1938
 4293TIP3   OH234369   2.814   4.961   4.081 -0.1805  0.1221  0.2016
 4293TIP3    H134370   2.852   4.887   4.034  1.1433  0.8809  0.0306
 4293TIP3    H234371   2.763   4.921   4.151  0.4132 -0.9580  0.0367
 4294TIP3   OH234372   2.851   4.782  13.750 -0.2519 -0.1439  0.2172
 4294TIP3    H134373   2.913   4.708  13.749 -0.4349 -0.3214  1.0535
 4294TIP3    H234374   2.765   4.741  13.746 -0.3468  0.1581 -2.6413
 4295TIP3   OH234375   3.714   0.521   2.441  0.0364  0.4679 -0.2569
 4295TIP3    H134376   3.679   0.479   2.362  2.0708  1.0395 -1.5576
 4295TIP3    H234377   3.721   0.614   2.418  1.3471  0.5311  0.2707
 4296TIP3   OH234378   3.068   4.830   0.204  0.2154  0.0757 -0.2540
 4296TIP3    H134379   3.019   4.809   0.125 -1.5511  0.5006  0.6775
 4296TIP3    H234380   3.043   4.920   0.224  0.2792 -0.1718  1.0260
 4297TIP3   OH234381   6.498   6.688  11.462  0.5601  0.4539  0.4779
 4297TIP3    H134382   6.514   6.717  11.551 -1.6470  2.1178  0.4032
 4297TIP3    H234383   6.481   6.769  11.413 -0.6751 -0.5954 -0.9093
 4298TIP3   OH234384   6.176   5.312   2.139  0.2244  0.1474  0.8487
 4298TIP3    H134385   6.254   5.358   2.168 -0.5627  1.6948  0.6063
 4298TIP3    H234386   6.107   5.342   2.198 -0.7118  0.8345 -0.5338
 4299TIP3   OH234387   0.123   1.497  15.485 -0.5054  0.3913 -0.3054
 4299TIP3    H134388   0.038   1.517  15.448 -0.3219  0.4802 -0.6828
 4299TIP3    H234389   0.183   1.560  15.444 -0.2889  0.4572  0.0982
 4300TIP3   OH234390   5.097   1.072  12.578  0.1449 -0.0184 -0.1986
 4300TIP3    H134391   5.151   1.007  12.623  0.9099  0.2552 -0.7022
 4300TIP3    H234392   5.067   1.028  12.498 -1.0234 -0.4249  0.4334
 4301TIP3   OH234393   5.536   4.613   4.960  0.0926  0.1939 -0.0040
 4301TIP3    H134394   5.594   4.562   5.016  0.0880 -0.3106 -0.4458
 4301TIP3    H234395   5.569   4.703   4.965  2.2721 -0.4174 -1.9395
 4302TIP3   OH234396   3.938   1.809  12.196  0.8255  0.1452  0.3642
 4302TIP3    H134397   3.869   1.874  12.209  1.6270  0.9123  0.8562
 4302TIP3    H234398   4.003   1.829  12.262  0.5252 -1.9684  1.3883
 4303TIP3   OH234399   3.240   3.978  15.500  0.8916 -0.6972  0.3641
 4303TIP3    H134400   3.280   4.058  15.465 -0.6330  0.4607  1.1757
 4303TIP3    H234401   3.305   3.943  15.561  1.8414 -0.4801 -0.4824
 4304TIP3   OH234402   0.770   6.120   3.643  0.1763 -0.2539  0.7162
 4304TIP3    H134403   0.764   6.046   3.703 -1.9878 -0.4027  0.4075
 4304TIP3    H234404   0.783   6.080   3.557  1.2210 -0.1449  0.8160
 4305TIP3   OH234405   2.477   6.097  11.996  0.4896  1.2684 -0.3625
 4305TIP3    H134406   2.383   6.101  12.010  0.5001 -1.2904  1.0009
 4305TIP3    H234407   2.515   6.123  12.080  0.9526  0.6814 -0.3861
 4306TIP3   OH234408   4.608   2.069  14.271  0.0600  0.3033 -0.4226
 4306TIP3    H134409   4.679   2.125  14.301 -0.6266  0.6522  0.6294
 4306TIP3    H234410   4.651   1.991  14.236  0.9511 -0.2742  1.7647
 4307TIP3   OH234411   5.846   5.590  14.400  0.3594 -0.2944 -0.1762
 4307TIP3    H134412   5.762   5.543  14.401  0.2659 -0.1509  2.0825
 4307TIP3    H234413   5.831   5.668  14.453  2.3874 -1.1984  1.8717
 4308TIP3   OH234414   5.991   1.013  14.814 -0.3432  0.3992  0.1194
 4308TIP3    H134415   6.025   1.005  14.904  1.7725  1.3119 -0.5425
 4308TIP3    H234416   6.017   0.931  14.772 -2.8459 -0.7997  0.7316
 4309TIP3   OH234417   2.018   5.243   3.007 -0.4397 -0.4276  0.1400
 4309TIP3    H134418   2.087   5.288   2.958 -1.8965  2.0260  0.1341
 4309TIP3    H234419   2.058   5.219   3.090  0.4462  0.9752  0.1483
 4310TIP3   OH234420   5.783   2.007  11.619 -0.1554 -0.1094  0.0956
 4310TIP3    H134421   5.797   1.919  11.654 -1.2877 -0.2805  0.1360
 4310TIP3    H234422   5.870   2.034  11.589  0.5117 -0.6444  1.4467
 4311TIP3   OH234423   5.482   5.405   3.498  0.2461  0.2133  0.5630
 4311TIP3    H134424   5.520   5.457   3.569  0.3594 -1.3254  1.6656
 4311TIP3    H234425   5.393   5.384   3.528 -0.3235  0.9576 -0.5159
 4312TIP3   OH234426   4.409   3.371  14.501 -0.2128 -0.2295  0.3779
 4312TIP3    H134427   4.374   3.360  14.412  1.8931 -0.0692 -0.5281
 4312TIP3    H234428   4.347   3.430  14.543 -1.1251 -0.0869 -1.0744
 4313TIP3   OH234429   2.006   5.151   0.958  0.1249  0.3068 -0.4829
 4313TIP3    H134430   2.001   5.094   0.881  0.0636  0.0624 -0.3012
 4313TIP3    H234431   1.931   5.209   0.949 -1.2644 -1.2388  0.5739
 4314TIP3   OH234432   1.366   5.065  11.966  0.0451 -0.0239 -0.2259
 4314TIP3    H134433   1.388   5.110  12.048 -0.7304 -0.1795  0.0698
 4314TIP3    H234434   1.405   5.120  11.898  0.8966 -0.0094  0.2546
 4315TIP3   OH234435   2.111   1.704   6.780  0.9248  0.0920  0.2259
 4315TIP3    H134436   2.141   1.617   6.755  1.6419 -0.3858  2.4942
 4315TIP3    H234437   2.179   1.736   6.841 -1.0649  0.7041  2.2575
 4316TIP3   OH234438   4.873   4.684  12.718 -0.2935 -0.1497 -0.2237
 4316TIP3    H134439   4.818   4.761  12.732  1.4456  1.1565 -0.1641
 4316TIP3    H234440   4.896   4.655  12.806  0.5227  0.4108 -0.2385
 4317TIP3   OH234441   2.807   4.425   2.944  0.1603 -0.0961 -0.1943
 4317TIP3    H134442   2.739   4.358   2.940 -0.3447  0.4072 -0.2531
 4317TIP3    H234443   2.823   4.438   3.037  0.4706 -0.5043 -0.1889
 4318TIP3   OH234444   6.423   3.901  13.490 -0.4733 -1.1025 -0.6506
 4318TIP3    H134445   6.368   3.974  13.519  1.0790 -0.6775  1.5851
 4318TIP3    H234446   6.368   3.850  13.431 -1.3755  2.2970 -3.0237
 4319TIP3   OH234447   4.295   2.391  15.945  0.1549  0.1545 -0.5073
 4319TIP3    H134448   4.217   2.424  15.900  0.1329  0.8103 -0.0060
 4319TIP3    H234449   4.260   2.350  16.025  0.3581  0.9533  0.0018
 4320TIP3   OH234450   3.331   6.105  12.086  0.0794  0.5072  0.4171
 4320TIP3    H134451   3.292   6.030  12.041  0.1223  0.5138  0.3686
 4320TIP3    H234452   3.326   6.082  12.179  2.0127 -0.5097  0.3176
 4321TIP3   OH234453   3.988   2.688  11.422 -0.0730 -0.5752  0.0967
 4321TIP3    H134454   3.986   2.596  11.448 -3.3084 -1.6129 -3.0176
 4321TIP3    H234455   4.048   2.691  11.347  1.5778  0.3741  1.3755
 4322TIP3   OH234456   2.380   6.163   5.329 -0.1048 -0.3088 -0.6965
 4322TIP3    H134457   2.452   6.167   5.266  0.4215 -1.1972 -0.1612
 4322TIP3    H234458   2.390   6.078   5.372  0.8371  1.1332  2.1418
 4323TIP3   OH234459   2.759   6.001  11.836  0.3732  0.2212  0.0617
 4323TIP3    H134460   2.847   5.964  11.845  0.1211 -0.6513 -0.8688
 4323TIP3    H234461   2.770   6.075  11.777  0.7481  1.1989  1.3058
 4324TIP3   OH234462   3.854   5.015  12.954  0.0961 -0.2254 -0.5792
 4324TIP3    H134463   3.801   5.044  12.880  0.0296 -1.4482 -1.0355
 4324TIP3    H234464   3.801   4.947  12.996 -0.2015  0.9521  1.0581
 4325TIP3   OH234465   4.583   3.720   0.360  0.0547  0.4239  0.3012
 4325TIP3    H134466   4.630   3.803   0.353 -1.5083  1.2487 -0.8124
 4325TIP3    H234467   4.636   3.658   0.311  0.3979  1.1405 -0.2431
 4326TIP3   OH234468   3.321   0.724  14.400 -0.1947  0.4938 -0.2812
 4326TIP3    H134469   3.328   0.818  14.416 -0.4821  0.2251  1.6988
 4326TIP3    H234470   3.227   0.707  14.397 -0.1532  0.1938  0.0059
 4327TIP3   OH234471   0.161   2.270  11.358  0.5116  0.5678  0.6497
 4327TIP3    H134472   0.116   2.213  11.295 -0.6386  0.4782  1.5108
 4327TIP3    H234473   0.157   2.357  11.319 -0.2302  0.5199  0.6025
 4328TIP3   OH234474   2.124   1.916  11.869  1.3095 -0.0767  0.3550
 4328TIP3    H134475   2.152   1.847  11.809  0.2816  1.2948 -1.8240
 4328TIP3    H234476   2.195   1.980  11.868  1.4237 -0.1894  0.8634
 4329TIP3   OH234477   2.374   4.849  15.717 -0.1698  0.7285 -0.0537
 4329TIP3    H134478   2.377   4.937  15.754  0.5999  0.1946  1.1996
 4329TIP3    H234479   2.324   4.798  15.780 -1.0033  0.3372 -0.9909
 4330TIP3   OH234480   1.100   4.744  13.854  0.3719 -0.3879 -0.1187
 4330TIP3    H134481   1.034   4.811  13.835  1.9465  1.2802  0.0312
 4330TIP3    H234482   1.116   4.701  13.770  0.1059  0.1554 -0.4481
 4331TIP3   OH234483   1.333   1.403   1.850  0.2011  0.5225 -0.0762
 4331TIP3    H134484   1.294   1.487   1.825  0.2344  0.0344 -1.8983
 4331TIP3    H234485   1.425   1.411   1.828 -0.0400 -0.4329 -1.6107
 4332TIP3   OH234486   3.866   4.642  14.132 -0.2688  0.4093 -0.3284
 4332TIP3    H134487   3.933   4.690  14.084 -1.0563  0.5978 -1.2823
 4332TIP3    H234488   3.914   4.588  14.195  0.8370 -0.2946 -1.7275
 4333TIP3   OH234489   5.010   1.722  12.140  0.1552 -0.0689  0.1282
 4333TIP3    H134490   5.105   1.729  12.132  0.2482  0.4561  1.5361
 4333TIP3    H234491   4.992   1.727  12.234 -1.3916  1.8240 -0.1886
 4334TIP3   OH234492   6.441   3.299   3.408 -0.3732  0.0665  0.2115
 4334TIP3    H134493   6.442   3.339   3.495  0.2998 -0.9112  0.6735
 4334TIP3    H234494   6.471   3.369   3.349  0.5014  0.3368  0.9550
 4335TIP3   OH234495   2.282   5.539   2.343  0.5329 -0.2339 -0.1360
 4335TIP3    H134496   2.331   5.481   2.401  1.9520 -1.3537 -2.3304
 4335TIP3    H234497   2.250   5.609   2.401  1.6614 -1.3709  2.0018
 4336TIP3   OH234498   5.506   4.962  15.534  0.0016  0.2475 -0.0841
 4336TIP3    H134499   5.411   4.954  15.524  0.0558  0.6858 -1.0114
 4336TIP3    H234500   5.542   4.917  15.457  0.5459  0.1116  0.2451
 4337TIP3   OH234501   4.249   5.320  10.869  0.4257 -0.8994 -0.6977
 4337TIP3    H134502   4.184   5.263  10.827 -0.2293 -0.1337 -0.7368
 4337TIP3    H234503   4.222   5.324  10.960 -0.5233  0.6858 -1.0194
 4338TIP3   OH234504   4.432   3.372   4.998 -0.0117 -0.1523 -0.1610
 4338TIP3    H134505   4.493   3.369   4.925  0.4702  0.3254  0.2133
 4338TIP3    H234506   4.384   3.454   4.986  0.0452 -0.0896  0.0409
 4339TIP3   OH234507   2.394   1.159   6.723 -0.7745  0.1582  0.1816
 4339TIP3    H134508   2.454   1.233   6.714 -0.6198 -0.0346 -0.4275
 4339TIP3    H234509   2.403   1.131   6.814  0.4451 -0.1917 -0.0390
 4340TIP3   OH234510   3.661   0.994  14.028  0.1882  0.0302 -0.5300
 4340TIP3    H134511   3.632   1.061  13.966 -0.7987  1.3510  1.2579
 4340TIP3    H234512   3.745   0.963  13.992 -0.9300 -0.2263 -3.1595
 4341TIP3   OH234513   0.511   2.929  12.793  0.1759  0.3748 -0.4212
 4341TIP3    H134514   0.555   2.921  12.878 -0.9066 -3.3408 -0.0329
 4341TIP3    H234515   0.422   2.956  12.815  0.2958  0.8931 -0.5524
 4342TIP3   OH234516   3.086   6.154   0.023 -0.3873  0.1921 -0.6593
 4342TIP3    H134517   3.035   6.174   0.101 -1.5109 -1.9936 -0.7622
 4342TIP3    H234518   3.054   6.215  -0.043 -0.5260  1.0159  0.1569
 4343TIP3   OH234519   1.451   6.502  11.563  0.1961  0.3284  0.8638
 4343TIP3    H134520   1.441   6.409  11.583 -0.8991  0.2917  0.2191
 4343TIP3    H234521   1.395   6.516  11.486  0.5797  1.4551  0.7765
 4344TIP3   OH234522   1.871   3.249   1.661  0.2618  0.1987 -0.0155
 4344TIP3    H134523   1.859   3.164   1.705  0.8221  0.9042  1.5842
 4344TIP3    H234524   1.959   3.243   1.622  0.9951  0.6008  1.5008
 4345TIP3   OH234525   2.855   0.791   3.178 -0.1218  0.3747 -0.0456
 4345TIP3    H134526   2.796   0.740   3.123 -0.9536  0.8623  0.3785
 4345TIP3    H234527   2.885   0.730   3.246  0.2807 -0.0096 -0.5548
 4346TIP3   OH234528   5.214   3.302  12.908 -0.1915 -0.1068 -0.5591
 4346TIP3    H134529   5.306   3.303  12.882 -0.6404 -2.0549 -2.5331
 4346TIP3    H234530   5.214   3.328  13.000  2.0472  2.3786 -1.1538
 4347TIP3   OH234531   1.769   3.924  12.615 -0.2995  0.3341  0.6519
 4347TIP3    H134532   1.675   3.937  12.610  0.0323  2.8784 -0.6022
 4347TIP3    H234533   1.790   3.931  12.708 -1.1420  1.7379  0.7556
 4348TIP3   OH234534   6.480   5.394   1.436  0.1861  0.3565 -0.5618
 4348TIP3    H134535   6.464   5.485   1.460 -0.0862  0.4407 -1.0545
 4348TIP3    H234536   6.400   5.348   1.463  1.2296 -0.1807  1.8864
 4349TIP3   OH234537   6.652   5.277   4.314  0.7770  0.4155  0.1945
 4349TIP3    H134538   6.601   5.196   4.316  2.1290 -0.5286 -1.2497
 4349TIP3    H234539   6.589   5.345   4.338 -1.0162 -0.7757 -0.8492
 4350TIP3   OH234540   6.121   1.918  14.596  0.0024 -0.2382  0.7577
 4350TIP3    H134541   6.053   1.985  14.595 -0.2966 -0.5468  0.2212
 4350TIP3    H234542   6.183   1.949  14.662  0.5764  1.2715 -0.4176
 4351TIP3   OH234543   0.413   1.580   4.122 -0.3511  0.2482  0.5207
 4351TIP3    H134544   0.361   1.500   4.124 -0.0882  0.0728  0.5187
 4351TIP3    H234545   0.375   1.632   4.051  0.1974 -0.3814 -0.2582
 4352TIP3   OH234546   5.902   4.981  12.419  0.1072 -0.3276 -1.0934
 4352TIP3    H134547   5.927   5.027  12.499 -2.3257 -1.9763  0.7915
 4352TIP3    H234548   5.851   5.045  12.369 -1.5698 -0.2828  0.5494
 4353TIP3   OH234549   2.244   0.346   6.148  0.1633 -0.8537 -0.0809
 4353TIP3    H134550   2.173   0.283   6.162  0.0934 -0.7600 -0.0079
 4353TIP3    H234551   2.305   0.330   6.219 -0.2640 -0.2782  0.4249
 4354TIP3   OH234552   2.619   1.520   1.261 -0.3231 -0.5209  0.0194
 4354TIP3    H134553   2.674   1.597   1.280 -0.3062 -0.1481 -1.4385
 4354TIP3    H234554   2.631   1.463   1.337 -0.2235  0.8561  1.0777
 4355TIP3   OH234555   1.001   2.796   2.649  0.7202  0.2504 -0.1291
 4355TIP3    H134556   1.029   2.739   2.578  0.2458 -0.4278  0.2237
 4355TIP3    H234557   0.921   2.837   2.617 -0.1877 -0.9984  0.4752
 4356TIP3   OH234558   4.103   6.705  14.034 -0.0032  0.2453 -0.1914
 4356TIP3    H134559   4.098   6.751  13.950 -1.3453  1.0501  0.3027
 4356TIP3    H234560   4.136   6.771  14.095 -1.1719  0.3414  0.3614
 4357TIP3   OH234561   6.598   4.186  15.677 -0.1462 -0.1082 -0.2458
 4357TIP3    H134562   6.564   4.229  15.598 -0.4312 -0.5143 -0.3473
 4357TIP3    H234563   6.660   4.121  15.644  2.2231  1.8788  0.0073
 4358TIP3   OH234564   6.606   1.142   4.166 -0.4311  0.4795  0.5814
 4358TIP3    H134565   6.697   1.168   4.176 -0.1432 -0.6935  1.2939
 4358TIP3    H234566   6.581   1.175   4.080  0.5066  1.2532  0.5863
 4359TIP3   OH234567   4.889   1.182  14.172  0.2311  0.2278  0.8051
 4359TIP3    H134568   4.905   1.099  14.127 -0.1812  0.6480 -0.1424
 4359TIP3    H234569   4.881   1.158  14.264  4.3042 -0.2974  1.1890
 4360TIP3   OH234570   3.675   6.548   3.858 -0.0805 -0.6401  0.0141
 4360TIP3    H134571   3.720   6.611   3.801 -0.5192 -1.9492 -1.8737
 4360TIP3    H234572   3.617   6.602   3.912  0.0932  0.6518 -1.0414
 4361TIP3   OH234573   1.478   6.191  12.245 -0.1948 -0.4049 -0.3603
 4361TIP3    H134574   1.479   6.238  12.328 -1.0816 -0.9843 -0.0045
 4361TIP3    H234575   1.404   6.228  12.198 -1.2624 -1.7922  0.1589
 4362TIP3   OH234576   6.276   1.793   4.832 -0.2146 -0.7626  0.2364
 4362TIP3    H134577   6.345   1.749   4.783 -0.9386 -1.5823 -0.0610
 4362TIP3    H234578   6.263   1.739   4.909 -2.1216 -1.9527 -0.8357
 4363TIP3   OH234579   2.050   1.652   0.223 -0.3083  0.3097  0.8098
 4363TIP3    H134580   1.972   1.638   0.170  0.4001  1.5215 -0.6197
 4363TIP3    H234581   2.074   1.565   0.255 -2.5683  0.0037  1.8074
 4364TIP3   OH234582   3.287   3.592   0.473 -0.0630  0.3715 -0.1531
 4364TIP3    H134583   3.280   3.517   0.533  0.4852  0.8384  0.5078
 4364TIP3    H234584   3.196   3.617   0.456 -0.4531 -2.3777 -2.9021
 4365TIP3   OH234585   5.394   3.354  14.376  0.2683 -0.3346 -0.4978
 4365TIP3    H134586   5.351   3.345  14.461 -0.3477  1.4162 -0.5736
 4365TIP3    H234587   5.478   3.309  14.386  0.0313 -0.5110  0.8928
 4366TIP3   OH234588   1.706   1.553   0.302  0.4753 -0.1080 -0.4118
 4366TIP3    H134589   1.714   1.588   0.214  1.0443  1.2072  0.1417
 4366TIP3    H234590   1.615   1.570   0.326  0.1851 -0.9025 -0.9056
 4367TIP3   OH234591   6.770   5.057  14.860  0.3843 -0.0443 -0.3504
 4367TIP3    H134592   6.736   5.146  14.869 -0.2993 -0.4503  1.4480
 4367TIP3    H234593   6.862   5.063  14.886 -0.2394 -0.2251  2.1413
 4368TIP3   OH234594   1.641   6.524   4.677  0.4700  0.0060  0.0890
 4368TIP3    H134595   1.589   6.514   4.756  0.3043  1.2418  0.1460
 4368TIP3    H234596   1.577   6.526   4.606  0.5315  0.1839  0.0381
 4369TIP3   OH234597   1.961   4.327   3.562  0.2526  0.0377 -0.6112
 4369TIP3    H134598   1.995   4.338   3.651 -0.3120 -1.3859 -0.1807
 4369TIP3    H234599   2.021   4.377   3.507  4.3487 -3.7578 -0.1643
 4370TIP3   OH234600   6.523   1.480   0.802  0.2993 -0.1704 -0.2094
 4370TIP3    H134601   6.602   1.503   0.852 -0.6137  0.0894  1.1513
 4370TIP3    H234602   6.478   1.563   0.790 -0.6535 -0.5594  0.5891
 4371TIP3   OH234603   5.574   6.373   0.673  0.2812  0.3701  0.1602
 4371TIP3    H134604   5.557   6.365   0.579 -0.7296  0.2089  0.3416
 4371TIP3    H234605   5.533   6.456   0.698 -0.0157  0.1062  0.5741
 4372TIP3   OH234606   0.997   2.397  11.663 -0.1478  0.0299  0.0601
 4372TIP3    H134607   0.932   2.336  11.627 -2.1998  2.4547 -0.5901
 4372TIP3    H234608   1.076   2.344  11.672 -1.5298 -2.4781 -1.3629
 4373TIP3   OH234609   5.514   3.593  13.710 -0.8155  0.8454  0.3023
 4373TIP3    H134610   5.495   3.628  13.797 -1.7973  1.8351 -0.2689
 4373TIP3    H234611   5.460   3.514  13.703  0.0090  0.2146  0.9320
 4374TIP3   OH234612   0.492   1.469  14.185  0.0501 -0.2721 -0.0789
 4374TIP3    H134613   0.422   1.471  14.249 -0.6443  0.1411 -0.8314
 4374TIP3    H234614   0.561   1.523  14.222 -0.2331 -0.2577  0.4326
 4375TIP3   OH234615   1.615   4.294  12.132 -0.2634 -0.6501 -0.2672
 4375TIP3    H134616   1.683   4.349  12.170  1.4834 -1.2449 -2.3065
 4375TIP3    H234617   1.534   4.340  12.149  0.5887  0.0329  2.3837
 4376TIP3   OH234618   3.037   4.872   1.386 -0.0922  0.1535 -0.3768
 4376TIP3    H134619   3.058   4.785   1.419 -0.3100 -0.3187 -1.4404
 4376TIP3    H234620   3.052   4.866   1.291  0.0412  1.3170 -0.4471
 4377TIP3   OH234621   5.246   4.621   4.884 -0.1029  0.0487 -0.2714
 4377TIP3    H134622   5.307   4.689   4.857  0.1419  0.0320  0.2287
 4377TIP3    H234623   5.280   4.589   4.968 -0.9417  0.2273  0.1567
 4378TIP3   OH234624   4.308   2.086   3.473 -0.1278  0.0712  0.7981
 4378TIP3    H134625   4.243   2.154   3.489 -0.1063 -0.0935  1.6240
 4378TIP3    H234626   4.386   2.116   3.520 -0.1288 -0.5254  1.1940
 4379TIP3   OH234627   5.282   2.009   6.715 -0.0035 -0.2590 -0.3239
 4379TIP3    H134628   5.192   2.042   6.716  0.1880  0.3343  1.7742
 4379TIP3    H234629   5.317   2.037   6.631 -1.5077  0.2489 -0.8111
 4380TIP3   OH234630   6.068   1.019   1.119  0.2664  0.6339  0.1561
 4380TIP3    H134631   5.996   0.997   1.060 -0.7895 -2.6384  2.4108
 4380TIP3    H234632   6.146   1.018   1.064 -0.8476 -0.6623 -1.4761
 4381TIP3   OH234633   0.220   2.832   5.968  0.2333  0.3180 -0.0670
 4381TIP3    H134634   0.286   2.865   5.907 -0.5175 -1.7744 -2.2016
 4381TIP3    H234635   0.144   2.813   5.912 -0.8441 -0.8135  1.6908
 4382TIP3   OH234636   3.077   2.365  11.616  0.1967  0.8357  0.0891
 4382TIP3    H134637   3.046   2.453  11.640 -2.4315  1.0202 -3.2648
 4382TIP3    H234638   3.142   2.381  11.547 -2.1259  0.2692 -2.3812
 4383TIP3   OH234639   2.125   1.107   4.179 -0.2532  0.1998 -0.0637
 4383TIP3    H134640   2.189   1.145   4.118 -0.3247  2.8440  1.3324
 4383TIP3    H234641   2.041   1.120   4.136 -0.2867  1.8560  0.4401
 4384TIP3   OH234642   3.972   0.007  17.115 -0.4643  0.3132  0.0323
 4384TIP3    H134643   3.946  -0.037  17.196  1.2577  0.9785  0.9985
 4384TIP3    H234644   3.946   0.098  17.129  0.8275  0.6548  0.3339
 4385TIP3   OH234645   5.949   1.373  13.437 -0.0192  0.4283  0.1439
 4385TIP3    H134646   5.912   1.339  13.519  0.1640 -1.1879 -0.3944
 4385TIP3    H234647   5.875   1.414  13.393 -0.1349  1.2623  1.0721
 4386TIP3   OH234648   0.468   3.901   2.080 -0.0162  0.9268  0.1447
 4386TIP3    H134649   0.495   3.990   2.057  0.2087  0.7502 -0.2948
 4386TIP3    H234650   0.541   3.866   2.131 -1.2214  1.9117  2.7390
 4387TIP3   OH234651   0.108   3.241   6.521  0.2570  0.1993 -0.1453
 4387TIP3    H134652   0.084   3.168   6.579 -1.3980  0.5759 -0.3056
 4387TIP3    H234653   0.204   3.244   6.524  0.3291 -1.6177  0.3006
 4388TIP3   OH234654   6.653   0.598   3.069  0.0914 -0.7394  0.5848
 4388TIP3    H134655   6.668   0.661   3.140 -0.0831  0.4803 -0.4253
 4388TIP3    H234656   6.558   0.593   3.062  0.1036 -0.3355  0.0153
 4389TIP3   OH234657   2.018   6.597  13.368 -0.7184 -0.5510 -0.1451
 4389TIP3    H134658   1.971   6.566  13.290  1.5398 -0.9574 -1.4460
 4389TIP3    H234659   2.061   6.678  13.339 -1.5396  0.4582  1.3557
 4390TIP3   OH234660   5.030   1.027  15.776 -0.2932 -0.4801 -0.1871
 4390TIP3    H134661   5.084   1.013  15.698  0.8728  0.6116  0.3898
 4390TIP3    H234662   5.051   1.116  15.804  0.9679 -1.5463  2.6202
 4391TIP3   OH234663   1.795   1.079  14.452 -0.0314  0.0362 -0.4144
 4391TIP3    H134664   1.869   1.020  14.439 -0.0867  0.4904 -3.7657
 4391TIP3    H234665   1.833   1.159  14.488  1.2870  0.3912 -2.4094
 4392TIP3   OH234666   3.759   4.338  15.123  0.7093 -0.0412  0.3463
 4392TIP3    H134667   3.801   4.273  15.066 -0.3968  1.8860 -2.9954
 4392TIP3    H234668   3.831   4.381  15.168  1.9029 -0.2461 -1.2904
 4393TIP3   OH234669   0.289   4.734   5.063 -0.4030 -0.2560  0.0859
 4393TIP3    H134670   0.288   4.807   5.125  0.1486  0.0580 -0.2675
 4393TIP3    H234671   0.270   4.657   5.116  0.6702 -0.0768  0.7634
 4394TIP3   OH234672   3.400   2.681   4.369  0.6525  0.3497 -0.3342
 4394TIP3    H134673   3.399   2.767   4.411 -0.9695  1.2609 -2.0622
 4394TIP3    H234674   3.484   2.677   4.323  1.3415  0.3965  0.8960
 4395TIP3   OH234675   5.643   1.227   2.570 -0.1128 -0.2245  0.0208
 4395TIP3    H134676   5.557   1.224   2.612 -0.0992  0.8916  0.1601
 4395TIP3    H234677   5.651   1.142   2.525 -1.6888  0.0172 -0.7791
 4396TIP3   OH234678   6.189   5.830  12.632 -0.0654  0.5399 -0.9705
 4396TIP3    H134679   6.215   5.754  12.684 -1.7377 -0.6389 -1.7354
 4396TIP3    H234680   6.204   5.803  12.541  0.9299  1.8034 -1.2048
 4397TIP3   OH234681   2.964   2.706   2.170  0.2863 -0.0773 -0.3161
 4397TIP3    H134682   3.054   2.674   2.161  0.9806  0.4411  3.2659
 4397TIP3    H234683   2.918   2.636   2.218 -0.7939  0.3534 -0.6880
 4398TIP3   OH234684   5.448   3.828  12.159 -0.0077  0.2032 -0.0988
 4398TIP3    H134685   5.363   3.855  12.127 -0.3241 -0.6051  0.0234
 4398TIP3    H234686   5.491   3.788  12.083 -0.3170 -0.6926  0.1767
 4399TIP3   OH234687   3.546   5.970  16.338 -0.4223  0.0754  0.2173
 4399TIP3    H134688   3.524   6.057  16.304  0.4634  0.1667 -0.1561
 4399TIP3    H234689   3.533   5.978  16.432  1.8348  1.3386  0.4911
 4400TIP3   OH234690   0.657   0.101   3.862  0.2683  0.5870  0.6633
 4400TIP3    H134691   0.705   0.068   3.787 -1.3540 -5.2929  1.7121
 4400TIP3    H234692   0.724   0.116   3.929  1.2338 -0.5490 -0.0213
 4401TIP3   OH234693   2.237   1.290  12.112 -0.0990  0.2071  0.9495
 4401TIP3    H134694   2.301   1.361  12.112  1.0036 -0.7228 -0.7494
 4401TIP3    H234695   2.255   1.241  12.192 -0.5361  1.5064  1.8766
 4402TIP3   OH234696   3.120   4.768  10.766 -0.0960  0.1771  0.2209
 4402TIP3    H134697   3.163   4.838  10.717 -0.5573  0.6955  0.5334
 4402TIP3    H234698   3.073   4.717  10.700  2.6669 -1.6971 -0.4226
 4403TIP3   OH234699   4.926   6.467   3.871 -0.3390 -0.0058  0.2773
 4403TIP3    H134700   4.941   6.534   3.805 -0.1231 -1.4395 -1.1803
 4403TIP3    H234701   4.894   6.391   3.823  0.1897 -1.2342  1.7524
 4404TIP3   OH234702   1.927   2.813  16.989 -0.6170  0.2408  0.0361
 4404TIP3    H134703   1.930   2.866  17.068 -0.4678 -0.0397  0.2202
 4404TIP3    H234704   1.897   2.727  17.019 -0.7776  0.1960 -0.2448
 4405TIP3   OH234705   2.438   0.505  11.406 -0.1225 -0.0666  0.6960
 4405TIP3    H134706   2.450   0.426  11.458 -1.1856 -0.5188  0.2776
 4405TIP3    H234707   2.485   0.487  11.324 -0.8813 -0.5334  0.3514
 4406TIP3   OH234708   4.103   5.844  16.098  0.2771 -0.8971  0.4721
 4406TIP3    H134709   4.166   5.901  16.142  1.2354 -1.0019 -0.6934
 4406TIP3    H234710   4.045   5.904  16.050  0.4063 -0.8413  0.3845
 4407TIP3   OH234711   6.735   2.657   4.217 -0.2358  0.0316 -0.3166
 4407TIP3    H134712   6.683   2.691   4.290 -0.0975  3.0968 -1.4617
 4407TIP3    H234713   6.813   2.620   4.258 -0.3013  1.4015  1.1625
 4408TIP3   OH234714   2.584   0.173  15.192  0.5794  0.7072  0.3651
 4408TIP3    H134715   2.560   0.133  15.275 -2.3335  0.9309 -0.2559
 4408TIP3    H234716   2.632   0.252  15.216 -0.0991  0.6923  1.8309
 4409TIP3   OH234717   5.399   2.868   0.060 -0.6137  0.1824 -0.3211
 4409TIP3    H134718   5.411   2.797   0.122 -2.0296  1.5044  1.6034
 4409TIP3    H234719   5.443   2.943   0.101 -1.7387  1.1342 -0.7914
 4410TIP3   OH234720   6.367   2.973   5.581  0.4494 -0.0909  0.1144
 4410TIP3    H134721   6.454   3.009   5.570  0.8973 -1.0220  0.4977
 4410TIP3    H234722   6.354   2.970   5.676  0.5140 -1.1224  0.1032
 4411TIP3   OH234723   1.849   1.663   1.380 -0.4083  0.3235 -0.2154
 4411TIP3    H134724   1.766   1.647   1.335  0.2803 -2.2106 -0.7891
 4411TIP3    H234725   1.912   1.677   1.309  0.1101 -0.4461  0.0764
 4412TIP3   OH234726   3.715   3.752  13.161 -0.2807  0.0816  0.6747
 4412TIP3    H134727   3.775   3.758  13.087 -0.5263  1.6102  0.5592
 4412TIP3    H234728   3.696   3.659  13.170  0.5543 -0.2231 -0.5332
 4413TIP3   OH234729   0.493   1.812  15.959  0.3493 -0.7757 -0.8430
 4413TIP3    H134730   0.559   1.815  15.890 -0.4449 -0.9374 -1.6372
 4413TIP3    H234731   0.527   1.868  16.028  1.5974 -1.3524 -0.9650
 4414TIP3   OH234732   4.159   1.848   4.446  0.0717 -0.0529  0.6987
 4414TIP3    H134733   4.153   1.865   4.352  0.7476 -0.1716  0.6285
 4414TIP3    H234734   4.105   1.770   4.459 -1.5911  1.0542  0.7357
 4415TIP3   OH234735   1.241   6.810  16.054 -0.2030  0.0256 -0.1484
 4415TIP3    H134736   1.177   6.770  15.995 -0.2250  0.0947 -0.1725
 4415TIP3    H234737   1.272   6.738  16.109  1.2558 -0.4452 -1.5082
 4416TIP3   OH234738   2.943   5.606  12.586 -0.1037 -0.4767  0.2742
 4416TIP3    H134739   3.018   5.657  12.553 -1.1011 -0.5006 -2.1967
 4416TIP3    H234740   2.946   5.524  12.537 -1.3156 -0.7908  0.7009
 4417TIP3   OH234741   3.020   3.460   1.499  0.1674  0.2672 -0.2976
 4417TIP3    H134742   3.063   3.379   1.472  2.7600  1.5080 -0.2740
 4417TIP3    H234743   2.998   3.504   1.416 -0.8044 -0.2416 -0.3124
 4418TIP3   OH234744   1.253   5.955   2.752  0.0322 -0.1959 -0.1972
 4418TIP3    H134745   1.288   5.898   2.683  0.1530  0.4594 -0.6870
 4418TIP3    H234746   1.331   5.991   2.795  0.0037  0.9763 -1.0518
 4419TIP3   OH234747   4.667   3.213   0.331  0.3155 -0.3575  0.0557
 4419TIP3    H134748   4.582   3.231   0.291 -0.8575 -1.9863  1.6452
 4419TIP3    H234749   4.693   3.128   0.295  1.7032  0.4866 -1.0294
 4420TIP3   OH234750   1.359   4.842  14.870 -0.1971 -0.2231 -0.3877
 4420TIP3    H134751   1.267   4.858  14.888 -0.6515 -0.1579 -2.4895
 4420TIP3    H234752   1.375   4.753  14.899 -1.7184 -1.2901 -2.5618
 4421TIP3   OH234753   3.756   1.556  13.694  0.1556  0.3502 -0.1075
 4421TIP3    H134754   3.764   1.624  13.627 -0.6368 -0.1447 -0.7226
 4421TIP3    H234755   3.800   1.480  13.657  4.2669  1.4352  2.0119
 4422TIP3   OH234756   6.262   2.950  12.357  0.6359  0.0534  0.0574
 4422TIP3    H134757   6.217   2.948  12.273  0.1590  1.1780  0.2514
 4422TIP3    H234758   6.331   2.884  12.351  1.6979  1.2686 -1.8366
 4423TIP3   OH234759   4.993   1.226   0.030 -0.3580  0.2984 -0.0979
 4423TIP3    H134760   4.979   1.210   0.123  0.2809 -0.4010 -0.1161
 4423TIP3    H234761   5.001   1.139  -0.009  1.8244  0.5980 -0.4090
 4424TIP3   OH234762   4.658   2.979   2.956 -0.5246 -0.4788  0.0946
 4424TIP3    H134763   4.739   3.005   2.913 -1.3929  0.1658 -1.2291
 4424TIP3    H234764   4.653   2.884   2.943  1.1049 -0.9453  2.2137
 4425TIP3   OH234765   1.129   1.373  14.172  0.3612  0.4187 -0.1768
 4425TIP3    H134766   1.094   1.460  14.155  3.6998  2.0624  0.6573
 4425TIP3    H234767   1.084   1.345  14.252  0.1012  1.9337  0.2446
 4426TIP3   OH234768   2.789   5.480  15.854  0.9337  0.4299 -0.1581
 4426TIP3    H134769   2.845   5.483  15.932  0.3620  0.7453  0.2434
 4426TIP3    H234770   2.814   5.558  15.804  0.6800  0.7137  0.1494
 4427TIP3   OH234771   2.325   6.392  12.018 -0.5859  0.1081  0.0727
 4427TIP3    H134772   2.342   6.423  12.107  0.3815  0.3396 -0.1888
 4427TIP3    H234773   2.286   6.305  12.031 -1.0390  0.3988  0.7323
 4428TIP3   OH234774   5.721   2.242  14.189  0.0812 -0.4417 -0.3578
 4428TIP3    H134775   5.759   2.169  14.140 -0.3515 -0.8962 -0.0189
 4428TIP3    H234776   5.666   2.288  14.125  0.1289 -0.5808 -0.4990
 4429TIP3   OH234777   4.699   0.097  13.655 -0.2923 -0.2396 -0.0783
 4429TIP3    H134778   4.790   0.073  13.638  0.5054  1.6325  1.1594
 4429TIP3    H234779   4.661   0.020  13.698  0.7676 -0.9488 -0.3789
 4430TIP3   OH234780   0.245   6.051  15.297 -0.0179  0.7501 -0.2648
 4430TIP3    H134781   0.312   6.016  15.238  1.4271  0.8945  1.2242
 4430TIP3    H234782   0.295   6.089  15.370 -1.7501 -0.4057  1.6046
 4431TIP3   OH234783   0.573   6.460   4.954  0.4047 -0.4002 -0.1231
 4431TIP3    H134784   0.526   6.542   4.944  1.7540  0.6536  1.5693
 4431TIP3    H234785   0.516   6.407   5.011  1.2628  0.9856  2.1797
 4432TIP3   OH234786   3.140   3.355  16.508 -0.3347 -0.1507  0.5632
 4432TIP3    H134787   3.181   3.425  16.558  1.2064 -0.5972 -0.0399
 4432TIP3    H234788   3.177   3.274  16.544 -1.3211 -0.6153  0.5694
 4433TIP3   OH234789   0.116   1.633   1.975  0.4233  0.3980 -0.2018
 4433TIP3    H134790   0.123   1.565   2.042  1.9898  1.2638  0.5452
 4433TIP3    H234791   0.069   1.704   2.018 -0.6242  0.0727 -0.7757
 4434TIP3   OH234792   3.008   2.688   0.001 -0.6082  0.0729  0.2450
 4434TIP3    H134793   3.075   2.693   0.069  0.2474 -0.3586 -0.5451
 4434TIP3    H234794   3.019   2.601  -0.037 -1.7100 -0.0560  0.1842
 4435TIP3   OH234795   2.250   2.789  14.006  0.7944 -0.4506 -0.2889
 4435TIP3    H134796   2.185   2.781  13.937 -0.0746  1.5772  0.2483
 4435TIP3    H234797   2.226   2.721  14.070 -1.9046  1.3088  0.7231
 4436TIP3   OH234798   1.840   6.721   0.947  0.0366 -0.1974  0.4260
 4436TIP3    H134799   1.803   6.767   0.871  0.2752 -0.0520  0.3952
 4436TIP3    H234800   1.831   6.628   0.925 -2.8721 -0.2781  1.6373
 4437TIP3   OH234801   1.928   1.763  15.477  0.3107  0.2307  0.0168
 4437TIP3    H134802   1.951   1.695  15.414 -1.3416 -0.5975  0.2711
 4437TIP3    H234803   1.961   1.729  15.561 -1.0075 -0.5641  0.2398
 4438TIP3   OH234804   5.265   2.922   4.240  0.4225  0.0188 -0.2623
 4438TIP3    H134805   5.208   2.928   4.164 -0.6523  3.1298  0.6365
 4438TIP3    H234806   5.242   2.839   4.282 -0.1171 -0.9594 -2.3675
 4439TIP3   OH234807   3.039   0.986   4.042  0.1051  0.0353  0.2040
 4439TIP3    H134808   2.990   1.015   4.119 -0.9981 -0.8342 -0.1425
 4439TIP3    H234809   3.127   0.968   4.075 -0.8187 -2.1551  1.7134
 4440TIP3   OH234810   2.261   3.503   4.450  0.0329  0.8347 -0.2013
 4440TIP3    H134811   2.172   3.483   4.419  0.0931  1.0153 -0.4997
 4440TIP3    H234812   2.311   3.518   4.370  0.9700 -1.7740 -0.1794
 4441TIP3   OH234813   6.288   3.313   4.233 -0.4200  0.5114 -0.1616
 4441TIP3    H134814   6.197   3.318   4.201 -0.8446  0.5732  0.9968
 4441TIP3    H234815   6.281   3.266   4.316  0.8551 -1.1285 -0.9196
 4442TIP3   OH234816   3.261   5.694   0.721 -0.3477  0.0254 -0.3650
 4442TIP3    H134817   3.169   5.689   0.746 -0.3299  0.2652 -0.2597
 4442TIP3    H234818   3.277   5.786   0.702 -0.2915 -0.1024 -0.9932
 4443TIP3   OH234819   5.158   3.635  12.217 -0.0359  0.3414 -0.2799
 4443TIP3    H134820   5.071   3.602  12.239 -1.3096  0.7900 -3.9453
 4443TIP3    H234821   5.199   3.564  12.169  0.0934  1.4046 -1.8142
 4444TIP3   OH234822   1.249   1.365   5.450  0.0947  0.7683  0.4723
 4444TIP3    H134823   1.313   1.424   5.412 -0.1564  0.4442 -0.5026
 4444TIP3    H234824   1.208   1.415   5.520  1.3347  1.0097  1.0416
 4445TIP3   OH234825   0.072   3.350   2.847  0.0844  0.5144  0.2408
 4445TIP3    H134826   0.039   3.431   2.886 -0.8105  1.1817 -1.7968
 4445TIP3    H234827   0.132   3.379   2.779  2.8124 -0.6516  1.9717
 4446TIP3   OH234828   6.241   5.805   1.026 -0.2089  0.2887  0.6532
 4446TIP3    H134829   6.285   5.728   0.991  0.1888  0.2081  1.3238
 4446TIP3    H234830   6.295   5.879   0.998  0.2739  0.2018  1.3435
 4447TIP3   OH234831   5.575   5.995   4.401  0.0569  0.5007 -0.1544
 4447TIP3    H134832   5.608   6.046   4.327  0.0218 -0.7543 -1.0650
 4447TIP3    H234833   5.572   5.905   4.369 -0.0138 -0.0693  1.3643
 4448TIP3   OH234834   3.218   2.190   3.177  0.0835  0.1369  0.1538
 4448TIP3    H134835   3.175   2.107   3.157 -1.7670  1.0759  0.1093
 4448TIP3    H234836   3.291   2.165   3.234 -0.5033 -1.4940  0.2585
 4449TIP3   OH234837   1.077   4.308   4.877 -0.6544  0.1541  0.8633
 4449TIP3    H134838   1.114   4.396   4.884 -1.3626  0.4021  1.5339
 4449TIP3    H234839   1.110   4.262   4.954 -1.7272  0.3749  1.4615
 4450TIP3   OH234840   2.646   6.366  13.975  0.7917 -0.6473  0.0662
 4450TIP3    H134841   2.714   6.389  13.912 -0.7255  3.5772 -0.3310
 4450TIP3    H234842   2.593   6.300  13.929 -0.5934  2.6584 -3.6161
 4451TIP3   OH234843   3.509   3.955   3.305 -0.3896 -0.1989  0.1664
 4451TIP3    H134844   3.565   3.900   3.359 -0.7372  0.8298  1.6369
 4451TIP3    H234845   3.426   3.907   3.299 -0.4289 -0.2115  0.7772
 4452TIP3   OH234846   6.285   0.573  13.998  0.4808 -0.7937 -0.0790
 4452TIP3    H134847   6.291   0.545  14.089  1.5958 -0.0199  0.1183
 4452TIP3    H234848   6.215   0.520  13.960 -0.4320 -0.6871  1.3839
 4453TIP3   OH234849   3.315   0.246   5.953 -0.0097 -0.3319  0.1512
 4453TIP3    H134850   3.237   0.302   5.956 -0.2471 -0.6561  0.1358
 4453TIP3    H234851   3.342   0.246   5.861 -0.0808 -0.3357  0.1299
 4454TIP3   OH234852   0.830   1.478   3.094 -0.3962 -0.0250  0.2461
 4454TIP3    H134853   0.810   1.386   3.080  1.4193 -0.1809 -1.9528
 4454TIP3    H234854   0.750   1.524   3.067 -0.8194 -0.9067 -0.0548
 4455TIP3   OH234855   5.624   5.417  16.564 -0.2561 -0.0768  0.3724
 4455TIP3    H134856   5.551   5.370  16.523 -0.2410 -0.3762  0.6835
 4455TIP3    H234857   5.620   5.505  16.526  0.9876 -0.8966 -1.7948
 4456TIP3   OH234858   4.337   1.971   0.781 -0.0707  0.0105 -0.2067
 4456TIP3    H134859   4.340   2.060   0.746 -1.2618  0.2549  0.2547
 4456TIP3    H234860   4.315   1.982   0.874  0.3474 -0.7449 -0.0061
 4457TIP3   OH234861   0.626   1.283   1.704  0.1566 -0.7541  0.3495
 4457TIP3    H134862   0.675   1.220   1.756  1.3322  1.3734  1.9500
 4457TIP3    H234863   0.690   1.348   1.676 -1.0559 -0.0532 -0.9947
 4458TIP3   OH234864   4.362   3.194  13.715 -0.0631  0.3729  0.2180
 4458TIP3    H134865   4.344   3.284  13.744 -0.6013  0.3420 -0.0070
 4458TIP3    H234866   4.278   3.162  13.682  0.1303 -0.2092  0.2755
 4459TIP3   OH234867   4.178   3.360   3.683 -0.7694  0.3067 -0.0097
 4459TIP3    H134868   4.174   3.295   3.613 -0.6572 -0.3808  0.6007
 4459TIP3    H234869   4.184   3.308   3.763  0.1090  1.0815  0.4517
 4460TIP3   OH234870   2.516   2.144  11.682 -0.2963 -0.3068 -0.0288
 4460TIP3    H134871   2.564   2.223  11.710 -1.7157 -0.0713  1.9811
 4460TIP3    H234872   2.456   2.176  11.615 -1.2213  0.5008  1.1263
 4461TIP3   OH234873   1.302   0.032  12.753  0.0377 -0.3952 -0.3563
 4461TIP3    H134874   1.246  -0.003  12.684 -0.7538 -0.9205  0.5290
 4461TIP3    H234875   1.263   0.001  12.835 -1.0282  2.9398  0.5757
 4462TIP3   OH234876   6.053   1.335  15.010 -0.1115  0.4969 -0.0267
 4462TIP3    H134877   6.139   1.302  15.037  0.1307  1.0666 -0.1001
 4462TIP3    H234878   6.051   1.319  14.916  0.4166  1.5826 -0.2429
 4463TIP3   OH234879   1.375   5.748   3.520  0.0163 -0.1674  0.5558
 4463TIP3    H134880   1.310   5.762   3.590 -0.6074 -2.9606  0.6672
 4463TIP3    H234881   1.410   5.835   3.502 -2.5329  1.2104  1.6965
 4464TIP3   OH234882   3.701   4.516  15.794  0.3982  0.0512  0.4358
 4464TIP3    H134883   3.606   4.531  15.796  0.2067 -1.0632  0.5491
 4464TIP3    H234884   3.711   4.438  15.740  1.1884 -0.2336  0.9790
 4465TIP3   OH234885   2.822   3.598   2.383 -0.6001 -0.4317  0.2190
 4465TIP3    H134886   2.878   3.521   2.379  0.6705  0.4839 -0.5736
 4465TIP3    H234887   2.859   3.651   2.453 -0.2717  0.3231 -0.5090
 4466TIP3   OH234888   5.174   6.317  15.814 -0.2042  0.0322  0.1264
 4466TIP3    H134889   5.198   6.400  15.855 -1.6714  1.0623 -0.9562
 4466TIP3    H234890   5.200   6.328  15.722 -0.2657 -0.7780  0.0078
 4467TIP3   OH234891   5.515   2.047   5.529  0.5294  0.6045 -0.0993
 4467TIP3    H134892   5.468   2.039   5.446 -1.8254 -0.2016  1.2044
 4467TIP3    H234893   5.506   2.140   5.552 -1.1290  0.3389  0.4592
 4468TIP3   OH234894   6.753   3.403  14.828 -0.1396  0.2119 -0.1737
 4468TIP3    H134895   6.751   3.406  14.924 -1.5564  0.0110 -0.1774
 4468TIP3    H234896   6.708   3.321  14.806 -1.2170  1.0043 -1.0287
 4469TIP3   OH234897   3.187   4.426   3.678  0.1392 -0.8538  0.1969
 4469TIP3    H134898   3.263   4.406   3.623  0.7034 -1.6920  1.2367
 4469TIP3    H234899   3.118   4.368   3.646  0.0709 -0.4292 -0.4423
 4470TIP3   OH234900   5.116   6.130   1.162 -0.3334  0.3504 -0.0902
 4470TIP3    H134901   5.132   6.218   1.127  0.6547 -0.7520 -2.6698
 4470TIP3    H234902   5.150   6.133   1.251 -0.9772  2.7527  0.1441
 4471TIP3   OH234903   1.908   5.352   3.637 -0.3106 -0.0581  0.1103
 4471TIP3    H134904   1.838   5.319   3.581  0.2589 -1.6279  0.2563
 4471TIP3    H234905   1.928   5.278   3.696  1.1141  0.5194  0.3993
 4472TIP3   OH234906   6.010   3.358  13.141  0.2628  0.3336  0.2132
 4472TIP3    H134907   6.040   3.355  13.232 -0.8475  1.2575  0.6281
 4472TIP3    H234908   5.917   3.380  13.146  0.1982  0.4916 -1.1472
 4473TIP3   OH234909   1.558   3.574   0.874  0.4860 -0.3478 -0.3771
 4473TIP3    H134910   1.653   3.559   0.880  0.9149  2.4806  2.0974
 4473TIP3    H234911   1.524   3.547   0.959 -0.3055  1.8999  0.0757
 4474TIP3   OH234912   0.939   6.023  13.948  0.1390  0.3917 -0.0430
 4474TIP3    H134913   0.986   5.958  14.000  1.3496 -0.1253 -1.6898
 4474TIP3    H234914   0.848   6.014  13.974  0.7005  0.1702  1.9583
 4475TIP3   OH234915   5.314   1.118   6.045  0.1960  0.3091 -0.0701
 4475TIP3    H134916   5.397   1.139   6.088  0.8174 -0.0069 -1.0697
 4475TIP3    H234917   5.334   1.041   5.991 -0.6161  0.5317 -0.7055
 4476TIP3   OH234918   6.260   5.274   2.964 -0.3187 -0.0202  0.7457
 4476TIP3    H134919   6.178   5.234   2.994 -0.6217  1.0984  1.4805
 4476TIP3    H234920   6.323   5.254   3.033  0.6072 -2.5683 -0.7166
 4477TIP3   OH234921   1.498   2.292  14.536  0.2091 -0.3711  0.2335
 4477TIP3    H134922   1.470   2.201  14.543 -0.4350 -0.4007 -1.7976
 4477TIP3    H234923   1.506   2.307  14.441  2.6763  1.0024  0.5761
 4478TIP3   OH234924   6.618   6.565   0.494  0.2694 -0.3412  0.2371
 4478TIP3    H134925   6.690   6.618   0.461  0.3253  0.2286  1.2346
 4478TIP3    H234926   6.654   6.519   0.570 -0.6132  0.6185  1.2880
 4479TIP3   OH234927   1.458   1.800  13.561  0.4467 -0.2605  0.3948
 4479TIP3    H134928   1.454   1.704  13.567  0.1255 -0.1540  2.8188
 4479TIP3    H234929   1.431   1.830  13.648  0.9208  2.0324 -0.2041
 4480TIP3   OH234930   1.608   4.961   4.711  0.3247  0.2742 -0.4289
 4480TIP3    H134931   1.673   4.983   4.777  0.2952  2.4955 -1.0520
 4480TIP3    H234932   1.626   5.021   4.639 -1.5764  0.0347 -1.1570
 4481TIP3   OH234933   3.365   0.709   4.761  0.7039 -0.4956 -0.2772
 4481TIP3    H134934   3.404   0.678   4.842 -2.0905 -0.8147  1.0645
 4481TIP3    H234935   3.306   0.780   4.788 -1.3699 -1.5489 -1.7478
 4482TIP3   OH234936   6.229   3.136  13.983  0.0769  0.8068 -0.0479
 4482TIP3    H134937   6.308   3.130  14.037  2.4321  0.9160 -3.1774
 4482TIP3    H234938   6.207   3.046  13.962  0.1210  0.8181 -0.1446
 4483TIP3   OH234939   0.173   6.055  14.407 -0.3598  0.1861 -0.8950
 4483TIP3    H134940   0.152   6.031  14.316 -1.4165  0.2503 -0.6890
 4483TIP3    H234941   0.164   5.973  14.456 -0.4622  0.2856 -0.7447
 4484TIP3   OH234942   0.879   3.541  11.963 -0.3497  0.3568 -0.1281
 4484TIP3    H134943   0.836   3.605  12.019  0.0088 -0.7535  1.4760
 4484TIP3    H234944   0.946   3.592  11.916 -1.5928  1.5693 -0.6645
 4485TIP3   OH234945   1.837   5.826   1.996  0.4649 -0.0238  0.4084
 4485TIP3    H134946   1.790   5.879   2.060 -1.6909  1.6985 -2.3232
 4485TIP3    H234947   1.918   5.875   1.979  0.5518  0.0597  1.0541
 4486TIP3   OH234948   0.812   0.371  11.533  0.4661  0.2211  0.1282
 4486TIP3    H134949   0.781   0.349  11.621 -0.3708 -2.6708 -0.7762
 4486TIP3    H234950   0.732   0.390  11.483  0.6854 -0.6320 -0.5813
 4487TIP3   OH234951   2.495   0.116  13.630 -0.3826  0.2764 -0.4917
 4487TIP3    H134952   2.506   0.073  13.546  2.0006 -0.9481  0.3773
 4487TIP3    H234953   2.485   0.044  13.693  2.0595  0.9590  0.7748
 4488TIP3   OH234954   0.276   6.400  14.727 -0.6923  0.1371  0.4898
 4488TIP3    H134955   0.277   6.478  14.671 -2.1441 -0.3385 -0.2429
 4488TIP3    H234956   0.334   6.422  14.800  1.5039  0.6691 -1.3072
 4489TIP3   OH234957   0.533   5.361   2.244  0.1821  0.4846  0.1661
 4489TIP3    H134958   0.531   5.293   2.176 -0.2468  0.7527 -0.0877
 4489TIP3    H234959   0.517   5.313   2.326 -0.4079  0.3210 -0.0454
 4490TIP3   OH234960   5.430   4.254  11.967 -0.0795  0.0327 -0.2453
 4490TIP3    H134961   5.420   4.336  12.014  0.5165 -0.4051  0.6606
 4490TIP3    H234962   5.348   4.207  11.983 -0.3685  0.3887 -0.6586
 4491TIP3   OH234963   1.195   4.114   5.947  0.6730  0.1693 -0.1558
 4491TIP3    H134964   1.178   4.204   5.918 -0.5413 -0.2502 -0.8075
 4491TIP3    H234965   1.257   4.080   5.882  0.5231  0.2973 -0.3697
 4492TIP3   OH234966   4.982   2.744  12.050  0.0805 -0.7271  0.0648
 4492TIP3    H134967   4.989   2.808  12.121 -0.1783  0.8390 -1.2404
 4492TIP3    H234968   4.936   2.670  12.088  1.4938 -0.6614  1.9770
 4493TIP3   OH234969   1.950   4.641   2.289  0.3744  0.5300 -0.6808
 4493TIP3    H134970   1.955   4.558   2.242 -0.2713  0.2871 -0.3350
 4493TIP3    H234971   1.876   4.687   2.248 -0.0464  0.4120 -0.0696
 4494TIP3   OH234972   0.606   3.679  17.193 -0.1053  0.2242  0.2058
 4494TIP3    H134973   0.551   3.686  17.270 -0.9732 -0.6976 -0.3058
 4494TIP3    H234974   0.552   3.710  17.121 -0.2469 -1.3284 -0.4075
 4495TIP3   OH234975   4.763   2.519  12.832 -0.1573  0.2089  0.4387
 4495TIP3    H134976   4.740   2.481  12.747  0.9796  1.7433 -0.5804
 4495TIP3    H234977   4.712   2.600  12.837 -0.9979 -0.3483  1.7123
 4496TIP3   OH234978   6.694   1.589   5.696  0.4905  0.0717  0.4320
 4496TIP3    H134979   6.710   1.550   5.782  1.3744 -0.3582  0.0815
 4496TIP3    H234980   6.766   1.651   5.684  0.2654  0.2678  0.0798
 4497TIP3   OH234981   5.997   1.317   3.840 -0.6884  0.2918  0.0120
 4497TIP3    H134982   6.085   1.343   3.868  0.2542 -2.8828  0.3977
 4497TIP3    H234983   5.946   1.312   3.920 -0.8527  0.7996 -0.0555
 4498TIP3   OH234984   3.105   4.227  15.283  0.2474  0.2012 -0.2742
 4498TIP3    H134985   3.111   4.322  15.271 -1.4000  0.5699  1.3142
 4498TIP3    H234986   3.015   4.206  15.258 -0.0122 -0.6075  1.2595
 4499TIP3   OH234987   5.402   3.790   4.143 -0.1592  0.3140  0.7575
 4499TIP3    H134988   5.482   3.744   4.169  0.1371 -0.6360 -1.5710
 4499TIP3    H234989   5.433   3.861   4.086 -0.8783  0.9260  1.1236
 4500TIP3   OH234990   2.209   4.174   4.605  0.5099 -0.2467 -0.5236
 4500TIP3    H134991   2.260   4.096   4.583  0.0250 -0.5068 -0.7610
 4500TIP3    H234992   2.228   4.191   4.697 -1.4504 -2.2733  0.3696
 4501TIP3   OH234993   3.419   6.523   1.589 -0.6765 -0.4458  0.1356
 4501TIP3    H134994   3.392   6.441   1.547 -1.3533  0.2463 -0.8167
 4501TIP3    H234995   3.436   6.583   1.516 -0.6267  0.3991  0.8318
 4502TIP3   OH234996   0.374   3.431  10.738 -0.1599 -0.2183 -0.1555
 4502TIP3    H134997   0.301   3.405  10.794 -1.0452  0.8942 -0.7601
 4502TIP3    H234998   0.452   3.413  10.791 -0.8701 -1.1135  0.6257
 4503TIP3   OH234999   6.691   1.843  14.358 -0.2123 -0.8475 -0.7858
 4503TIP3    H135000   6.604   1.882  14.368 -0.4817 -1.2133 -1.6453
 4503TIP3    H235001   6.742   1.910  14.314  0.9967  0.7933  2.7768
 4504TIP3   OH235002   4.301   2.478  16.928  0.0437  0.6657 -0.4157
 4504TIP3    H135003   4.350   2.515  16.855  1.1681 -0.7590 -0.4030
 4504TIP3    H235004   4.365   2.470  16.999 -0.9660  1.7824  0.6778
 4505TIP3   OH235005   1.430   3.349   5.779 -0.0359 -0.3562  0.3824
 4505TIP3    H135006   1.431   3.260   5.816 -0.1803 -0.7407 -0.5107
 4505TIP3    H235007   1.481   3.341   5.698  1.6299  0.8192  1.2586
 4506TIP3   OH235008   4.095   0.190  16.103 -0.5866 -0.2306 -0.1489
 4506TIP3    H135009   4.120   0.194  16.195 -1.1156  1.1447 -0.0399
 4506TIP3    H235010   4.132   0.269  16.065  1.5581 -1.8438 -1.6707
 4507TIP3   OH235011   0.819   2.990  16.381 -0.7893 -0.0149  0.4163
 4507TIP3    H135012   0.907   2.958  16.402 -1.1066 -0.5641  0.9597
 4507TIP3    H235013   0.761   2.918  16.407 -1.4519  0.6374  0.7886
 4508TIP3   OH235014   0.450   4.574   4.891  0.9535 -0.4401  0.1836
 4508TIP3    H135015   0.407   4.506   4.943  0.7351 -0.8057 -0.4751
 4508TIP3    H235016   0.394   4.651   4.902  0.0420 -0.9510 -0.7780
 4509TIP3   OH235017   2.677   4.040   0.890 -0.1001 -0.3458  0.1084
 4509TIP3    H135018   2.669   4.121   0.940  0.1650 -0.4135  0.2623
 4509TIP3    H235019   2.633   4.059   0.807 -1.4108 -0.5450  0.7318
 4510TIP3   OH235020   1.574   1.176  13.776 -0.1679  0.0396 -0.3051
 4510TIP3    H135021   1.545   1.237  13.708  0.6839 -1.3352 -1.9945
 4510TIP3    H235022   1.638   1.224  13.827  0.1983  0.6963 -1.3525
 4511TIP3   OH235023   6.104   5.829  13.671 -0.1586  0.1062 -0.1408
 4511TIP3    H135024   6.104   5.910  13.722  1.8295 -0.2663  0.5096
 4511TIP3    H235025   6.035   5.843  13.606 -1.1180  1.5593  1.1036
 4512TIP3   OH235026   3.106   4.315   6.166  0.2500 -0.3066  0.7643
 4512TIP3    H135027   3.037   4.342   6.227 -0.7919 -2.1874  0.4886
 4512TIP3    H235028   3.126   4.225   6.192  1.6511 -0.2404 -0.0311
 4513TIP3   OH235029   3.783   6.599  16.418 -0.0105  0.0652  0.6729
 4513TIP3    H135030   3.782   6.693  16.431  1.3139  0.8890 -3.6367
 4513TIP3    H235031   3.700   6.579  16.375 -0.1033 -0.6696  1.1667
 4514TIP3   OH235032   5.835   6.563  15.108 -0.5213 -0.1487 -0.5722
 4514TIP3    H135033   5.897   6.526  15.045 -1.4471 -0.2202 -1.4705
 4514TIP3    H235034   5.827   6.496  15.175  0.5888 -0.0154 -0.2930
 4515TIP3   OH235035   0.018   2.016  15.615  0.2826  0.7952 -0.6376
 4515TIP3    H135036  -0.041   2.081  15.654  0.0406 -0.8200  1.9364
 4515TIP3    H235037  -0.034   1.937  15.608  1.1828  0.2720 -1.6797
 4516TIP3   OH235038   5.409   6.047   4.790  0.3264  0.0682  0.4659
 4516TIP3    H135039   5.358   6.095   4.855  0.8283  1.5890 -0.2183
 4516TIP3    H235040   5.381   6.081   4.706 -0.6112 -2.1681 -0.2072
 4517TIP3   OH235041   4.569   5.240  11.946  0.2296  0.0187 -0.6149
 4517TIP3    H135042   4.547   5.149  11.930  0.6530 -0.5599  1.7226
 4517TIP3    H235043   4.664   5.242  11.950  0.2121 -0.2242  2.7865
 4518TIP3   OH235044   1.482   2.042   5.420  0.1970 -0.2169 -0.3871
 4518TIP3    H135045   1.526   1.963   5.452  0.0439 -0.4118 -0.6594
 4518TIP3    H235046   1.445   2.017   5.335  1.0281  0.4349 -0.9613
 4519TIP3   OH235047   0.831   6.103   2.792 -0.1167 -0.0619  0.7930
 4519TIP3    H135048   0.898   6.170   2.804 -1.4351  1.6141 -0.7706
 4519TIP3    H235049   0.749   6.145   2.818 -0.8571 -1.3736  0.6649
 4520TIP3   OH235050   5.486   2.347  16.006 -0.1333 -0.1155  0.1494
 4520TIP3    H135051   5.514   2.256  16.009  2.5810  0.4900 -2.4509
 4520TIP3    H235052   5.422   2.350  15.935 -0.2683 -0.0127  0.2754
 4521TIP3   OH235053   6.511   0.782   0.842 -0.2855  0.5102 -0.1194
 4521TIP3    H135054   6.599   0.797   0.879 -0.2369  1.5990 -0.6240
 4521TIP3    H235055   6.459   0.752   0.917  0.3983  0.3018  0.2906
 4522TIP3   OH235056   6.718   4.010  10.996 -0.5880  0.0578  0.1897
 4522TIP3    H135057   6.807   3.980  10.977 -0.0464  0.7810  1.5117
 4522TIP3    H235058   6.710   4.094  10.951  0.3089  1.2288  2.1160
 4523TIP3   OH235059   3.446   2.051   6.255  0.2120 -0.4229  0.2204
 4523TIP3    H135060   3.526   2.091   6.221  0.7970 -3.1061 -1.9613
 4523TIP3    H235061   3.477   1.980   6.312 -0.7143  0.2268  1.5894
 4524TIP3   OH235062   5.506   4.080  12.976 -0.2917  0.4296 -0.2291
 4524TIP3    H135063   5.415   4.049  12.980  0.3987 -1.6382  0.8068
 4524TIP3    H235064   5.550   4.019  12.917  0.6257  0.8779 -0.0284
 4525TIP3   OH235065   0.827   3.943  13.094  0.1011 -0.5476 -0.1981
 4525TIP3    H135066   0.774   3.869  13.125  1.0143 -0.7170  1.0284
 4525TIP3    H235067   0.804   4.015  13.152 -0.8207  0.1789 -1.4190
 4526TIP3   OH235068   4.313   5.604  12.041 -0.1496  0.3095 -0.1785
 4526TIP3    H135069   4.312   5.645  11.954 -0.8602  2.0178  0.6040
 4526TIP3    H235070   4.232   5.634  12.082  0.5572  0.1363  1.3769
 4527TIP3   OH235071   1.657   4.985  15.588  0.1760 -0.3818  0.1421
 4527TIP3    H135072   1.615   5.042  15.523  0.4992 -0.7560 -0.3974
 4527TIP3    H235073   1.701   5.046  15.648  2.2590 -0.0565 -1.5846
 4528TIP3   OH235074   1.162   0.001   3.448 -0.3972  0.4497 -0.2999
 4528TIP3    H135075   1.196  -0.029   3.532 -1.4461  0.0057 -0.0201
 4528TIP3    H235076   1.182  -0.070   3.387 -0.9366  0.1237 -0.1045
 4529TIP3   OH235077   6.377   2.669   3.783 -0.1464  0.4273 -0.5584
 4529TIP3    H135078   6.377   2.573   3.776 -2.2491  0.1805  1.5433
 4529TIP3    H235079   6.352   2.699   3.695 -0.0656 -0.9722 -1.0912
 4530TIP3   OH235080   5.082   4.255   0.269  0.6786  0.3778 -0.1599
 4530TIP3    H135081   5.027   4.325   0.304  1.0434 -0.4439  2.2042
 4530TIP3    H235082   5.171   4.289   0.274  0.6744  0.5931 -1.2352
 4531TIP3   OH235083   5.120   0.255   0.234  0.2703  0.2268 -0.5641
 4531TIP3    H135084   5.136   0.288   0.322  1.2414  0.2078 -0.7148
 4531TIP3    H235085   5.069   0.175   0.247  1.2984 -0.3580  0.0682
 4532TIP3   OH235086   0.504   2.425  14.890  0.1627 -0.0875 -0.2551
 4532TIP3    H135087   0.425   2.376  14.870  0.6874 -0.6922 -0.9268
 4532TIP3    H235088   0.496   2.449  14.982 -2.3621  2.7729 -1.0783
 4533TIP3   OH235089   4.715   4.867   2.766 -0.1488  0.0758 -0.0608
 4533TIP3    H135090   4.743   4.913   2.846 -0.8949  0.2908  0.0904
 4533TIP3    H235091   4.631   4.907   2.745  0.6248  0.9281 -1.7000
 4534TIP3   OH235092   2.199   4.264  12.334 -0.2569  0.2343  0.2744
 4534TIP3    H135093   2.241   4.182  12.307  0.7392  0.3968  1.2637
 4534TIP3    H235094   2.108   4.254  12.306 -0.1360 -1.1818  0.3136
 4535TIP3   OH235095   2.597   1.903  16.493 -0.1317  0.6752  0.3949
 4535TIP3    H135096   2.591   1.910  16.398  0.3306 -0.2403  0.2827
 4535TIP3    H235097   2.619   1.991  16.523  0.3745  0.8324 -0.4061
 4536TIP3   OH235098   3.651   0.116  15.192  0.1076  0.0722  0.1910
 4536TIP3    H135099   3.744   0.133  15.176  0.0094  1.0677  0.5845
 4536TIP3    H235100   3.614   0.100  15.105  0.4321  0.8799 -0.1133
 4537TIP3   OH235101   2.238   3.732  12.204  0.1317  0.1596 -0.2645
 4537TIP3    H135102   2.217   3.734  12.297  0.3935 -1.0871 -0.1587
 4537TIP3    H235103   2.182   3.663  12.168  1.1801 -0.4870 -0.7122
 4538TIP3   OH235104   4.896   0.962   1.326  0.2184 -0.0521 -0.1718
 4538TIP3    H135105   4.885   0.989   1.234 -2.2247 -1.5552 -0.3900
 4538TIP3    H235106   4.816   0.991   1.369  1.3571  0.6793  1.5546
 4539TIP3   OH235107   1.441   3.885   3.447  0.4668 -0.5989 -0.2118
 4539TIP3    H135108   1.445   3.827   3.523 -0.3824 -0.5487 -0.1246
 4539TIP3    H235109   1.517   3.861   3.395  1.7363  0.1349  1.1960
 4540TIP3   OH235110   4.462   3.504  16.256  0.8603  0.6826  0.3116
 4540TIP3    H135111   4.497   3.579  16.304 -0.6370  0.5666  1.6532
 4540TIP3    H235112   4.379   3.535  16.220  1.3528  0.3648 -1.1729
 4541TIP3   OH235113   1.330   2.315   6.432 -0.0430  0.0110  0.7428
 4541TIP3    H135114   1.409   2.313   6.379  0.2208 -0.6441  1.1507
 4541TIP3    H235115   1.360   2.342   6.519 -0.4759  1.1114  0.5600
 4542TIP3   OH235116   0.545   4.010  15.834  0.0484  0.2059 -0.4294
 4542TIP3    H135117   0.527   4.065  15.758 -2.1288 -1.4224 -1.1972
 4542TIP3    H235118   0.639   4.020  15.849  0.2466  1.8293 -2.3076
 4543TIP3   OH235119   4.440   6.394  10.678 -0.0389  0.2732  0.6678
 4543TIP3    H135120   4.423   6.301  10.665 -0.4882  0.2451  1.3761
 4543TIP3    H235121   4.354   6.435  10.674  0.0949  0.5830  0.8927
 4544TIP3   OH235122   5.944   0.498  16.815 -0.1051 -0.0781  0.2780
 4544TIP3    H135123   6.008   0.557  16.775 -1.5181 -0.5926 -3.0794
 4544TIP3    H235124   5.888   0.555  16.867 -0.3990  1.3279 -1.4958
 4545TIP3   OH235125   4.294   5.701   3.232 -0.7156  0.2141 -0.7892
 4545TIP3    H135126   4.368   5.751   3.200 -0.2729  0.6424  0.8119
 4545TIP3    H235127   4.217   5.747   3.198 -0.2948  1.5411 -0.0150
 4546TIP3   OH235128   3.432   3.809   2.192  0.3884  0.2347  0.5442
 4546TIP3    H135129   3.349   3.799   2.145  0.6820  3.1726 -0.8332
 4546TIP3    H235130   3.499   3.784   2.127  0.6797  1.2291  0.4488
 4547TIP3   OH235131   0.405   2.610  16.205 -0.1161  0.2780  0.5805
 4547TIP3    H135132   0.383   2.578  16.292 -0.9108  1.2105  0.7357
 4547TIP3    H235133   0.333   2.668  16.181  0.5042  0.6979 -0.3488
 4548TIP3   OH235134   3.741   2.222   0.751 -0.0231  0.2758 -0.2059
 4548TIP3    H135135   3.701   2.292   0.700  1.2657  0.9164 -0.3632
 4548TIP3    H235136   3.728   2.248   0.842 -1.8027 -0.5797 -0.1619
 4549TIP3   OH235137   2.081   2.623  16.537 -0.0799 -0.1628  0.3880
 4549TIP3    H135138   2.066   2.717  16.542  0.8687  0.0685 -0.7716
 4549TIP3    H235139   1.993   2.585  16.527 -0.3494  0.7211 -0.7751
 4550TIP3   OH235140   0.840   4.454   6.439 -0.1729 -0.3204  0.2725
 4550TIP3    H135141   0.873   4.364   6.440  0.0436 -0.2570 -0.4031
 4550TIP3    H235142   0.842   4.479   6.346  1.0500  0.8438  0.5700
 4551TIP3   OH235143   5.708   5.651  14.795  0.2689  0.1297 -0.0787
 4551TIP3    H135144   5.774   5.684  14.734  0.2898 -0.3423 -0.3172
 4551TIP3    H235145   5.667   5.578  14.749  1.7404 -1.6333  1.2737
 4552TIP3   OH235146   3.808   6.311   4.689 -0.1604 -0.4583 -0.3644
 4552TIP3    H135147   3.732   6.282   4.741 -0.1896 -2.4187 -1.3904
 4552TIP3    H235148   3.883   6.271   4.733 -0.0219 -0.8103 -0.9136
 4553TIP3   OH235149   3.492   0.664   2.040 -0.2678  0.3222 -0.0426
 4553TIP3    H135150   3.446   0.736   1.997 -0.5914  0.2438  0.1603
 4553TIP3    H235151   3.573   0.702   2.072 -0.6491  0.7172  0.4732
 4554TIP3   OH235152   2.742   3.043   2.893  0.6843 -0.0437 -0.2611
 4554TIP3    H135153   2.794   3.071   2.818  2.1089 -0.4092  0.5667
 4554TIP3    H235154   2.736   3.120   2.949  0.6624 -0.1128 -0.1678
 4555TIP3   OH235155   3.859   3.128   2.787 -0.4913 -0.1368 -0.1908
 4555TIP3    H135156   3.938   3.170   2.820 -0.1861 -0.8912  0.0573
 4555TIP3    H235157   3.846   3.052   2.845 -1.0188 -0.4000 -0.6421
 4556TIP3   OH235158   0.054   6.251   0.194  0.0661  1.0276  0.3465
 4556TIP3    H135159   0.135   6.292   0.164 -0.5565  3.2353  1.4443
 4556TIP3    H235160   0.074   6.221   0.282  0.2126 -0.1726 -0.0794
 4557TIP3   OH235161   6.094   2.981  14.475  0.0080 -0.3608  0.0987
 4557TIP3    H135162   6.055   3.062  14.510  0.0407 -1.0677  1.8946
 4557TIP3    H235163   6.090   2.992  14.380  0.1337  1.8112  0.2810
 4558TIP3   OH235164   4.836   1.343   3.011  0.3212  0.2642  0.5695
 4558TIP3    H135165   4.917   1.380   2.975  1.2795 -1.0999  1.2166
 4558TIP3    H235166   4.825   1.261   2.964 -0.5664  0.3247  0.6620
 4559TIP3   OH235167   3.174   2.050   0.923  0.2330  0.4196 -0.2397
 4559TIP3    H135168   3.168   2.098   0.840  0.2471  2.0034  0.6290
 4559TIP3    H235169   3.083   2.035   0.948  0.2232 -1.1026 -1.0810
 4560TIP3   OH235170   2.751   5.880   0.250  0.2742 -0.5052 -0.2542
 4560TIP3    H135171   2.808   5.870   0.326  0.5159 -0.7109 -0.4626
 4560TIP3    H235172   2.810   5.901   0.178  0.2221 -1.9328 -0.7347
 4561TIP3   OH235173   0.961   0.725   3.794 -0.4431  0.4098  0.3892
 4561TIP3    H135174   1.040   0.779   3.786 -0.3673  0.3327  0.6111
 4561TIP3    H235175   0.890   0.789   3.799 -0.5258  0.4573 -1.1651
 4562TIP3   OH235176   2.904   1.442  12.106  0.0423  0.2888  0.1323
 4562TIP3    H135177   2.817   1.428  12.068  1.2324 -0.8336 -2.4052
 4562TIP3    H235178   2.930   1.355  12.138  0.2098  0.6460  1.0021
 4563TIP3   OH235179   2.556   3.582   4.356 -0.3736  0.1667 -0.0112
 4563TIP3    H135180   2.622   3.634   4.309 -1.6284  0.1829 -1.8370
 4563TIP3    H235181   2.480   3.639   4.362 -1.2433 -0.8874 -0.6548
 4564TIP3   OH235182   2.619   0.832  11.242 -0.0657  0.0071 -0.1524
 4564TIP3    H135183   2.585   0.828  11.152  1.0297  1.6952 -0.6819
 4564TIP3    H235184   2.582   0.913  11.277 -1.1371 -1.0273  1.2505
 4565TIP3   OH235185   4.833   6.642   0.394 -0.0818  0.2474  0.1244
 4565TIP3    H135186   4.915   6.600   0.419 -0.9400 -1.9743 -0.6160
 4565TIP3    H235187   4.789   6.579   0.338 -1.5687  2.0747 -0.8889
 4566TIP3   OH235188   6.045   6.173   4.615  0.0749  0.0326  0.0883
 4566TIP3    H135189   5.990   6.129   4.679  1.1402 -0.3725  0.7458
 4566TIP3    H235190   6.045   6.115   4.539 -1.7666  0.8546 -0.5842
 4567TIP3   OH235191   4.246   2.048   5.417 -0.2915  0.4675  0.0860
 4567TIP3    H135192   4.326   2.007   5.382  0.0691  1.8753 -0.7999
 4567TIP3    H235193   4.201   1.976   5.462 -0.5052 -1.3514 -2.7895
 4568TIP3   OH235194   3.590   4.198   3.460  0.1569  0.3053  0.2444
 4568TIP3    H135195   3.598   4.164   3.371  0.3361 -0.7881  0.6534
 4568TIP3    H235196   3.560   4.123   3.512  2.6672  0.1061  1.5929
 4569TIP3   OH235197   3.487   3.120   3.213  0.0748 -0.1372 -0.4830
 4569TIP3    H135198   3.577   3.151   3.207  0.4026 -1.1908 -1.2283
 4569TIP3    H235199   3.435   3.200   3.227  1.0583  0.5389 -0.5798
 4570TIP3   OH235200   3.755   3.160  11.330  0.5417 -0.1226  0.3200
 4570TIP3    H135201   3.728   3.153  11.238 -0.2761  0.9270  0.4568
 4570TIP3    H235202   3.761   3.070  11.361  0.8079 -0.4871 -0.7530
 4571TIP3   OH235203   1.112   4.402  12.162  0.5672  0.1041 -0.5561
 4571TIP3    H135204   1.033   4.455  12.168  0.9372  0.5350  0.7457
 4571TIP3    H235205   1.157   4.416  12.245  0.9369 -1.8370 -0.3920
 4572TIP3   OH235206   6.273   0.961   2.712  0.1553  0.2591  0.7724
 4572TIP3    H135207   6.349   0.905   2.692 -0.5976 -0.7545  0.6796
 4572TIP3    H235208   6.255   1.007   2.629  1.1435  1.1167  1.0113
 4573TIP3   OH235209   2.532   4.392   1.339 -0.0842 -0.0472  0.2548
 4573TIP3    H135210   2.490   4.444   1.270 -0.2587  1.7283  1.6095
 4573TIP3    H235211   2.611   4.357   1.298 -0.5045  0.4432 -1.0268
 4574TIP3   OH235212   2.315   3.184   3.941  0.1553 -0.5136  0.3339
 4574TIP3    H135213   2.288   3.255   3.883 -1.4225 -0.6655  0.8285
 4574TIP3    H235214   2.346   3.116   3.882  0.7671  0.2007 -0.1939
 4575TIP3   OH235215   0.072   4.874  10.576 -0.2603  0.6911 -0.3512
 4575TIP3    H135216   0.095   4.928  10.651 -0.7052  0.4258 -0.0155
 4575TIP3    H235217  -0.008   4.828  10.603 -0.8770  1.1882 -1.2715
 4576TIP3   OH235218   1.961   0.936   4.918 -0.1462 -0.1300  0.4875
 4576TIP3    H135219   2.001   0.977   4.842  0.7600 -2.4133 -0.3434
 4576TIP3    H235220   1.889   0.884   4.883 -1.6169  1.0907  1.5717
 4577TIP3   OH235221   4.994   0.624  14.580  0.1326  0.5413 -0.5732
 4577TIP3    H135222   4.945   0.588  14.654 -1.6372 -0.4387 -2.1522
 4577TIP3    H235223   4.973   0.718  14.581 -0.0420  0.4998  0.0308
 4578TIP3   OH235224   2.581   6.258   1.441  0.8585 -0.3804 -0.2006
 4578TIP3    H135225   2.653   6.280   1.500  0.1854  1.5991 -0.0491
 4578TIP3    H235226   2.561   6.340   1.396 -1.0730 -0.9580 -0.4850
 4579TIP3   OH235227   5.919   0.021  13.775 -0.1229 -0.3499 -0.4797
 4579TIP3    H135228   5.962   0.040  13.858 -1.1754 -0.1123  0.0288
 4579TIP3    H235229   5.849  -0.040  13.798  0.5301 -1.5066 -1.4352
 4580TIP3   OH235230   4.916   3.771   4.331  0.1863  0.1219  0.4878
 4580TIP3    H135231   4.876   3.744   4.249  2.1873  0.1889 -0.5772
 4580TIP3    H235232   4.981   3.837   4.306 -0.7167  1.8481  2.4069
 4581TIP3   OH235233   2.509   4.939  10.979  0.2836  0.7062 -0.0914
 4581TIP3    H135234   2.419   4.958  11.008 -0.0587 -1.4833  0.4210
 4581TIP3    H235235   2.500   4.862  10.923  1.9834 -0.1803  0.8028
 4582TIP3   OH235236   2.041   4.390   4.287 -0.3843 -0.3324  0.0589
 4582TIP3    H135237   1.984   4.413   4.360 -2.2205  0.0948 -1.4325
 4582TIP3    H235238   2.050   4.295   4.292  0.3001 -0.2155  1.3621
 4583TIP3   OH235239   0.079   6.281  12.170 -0.8702 -0.3265  0.2517
 4583TIP3    H135240   0.065   6.293  12.076 -1.3545 -0.3455  0.3183
 4583TIP3    H235241  -0.008   6.293  12.209 -0.5527  0.3505  0.7693
 4584TIP3   OH235242   0.095   5.225  12.815 -0.0964 -0.2519  0.2548
 4584TIP3    H135243   0.047   5.294  12.862  0.6886  0.0024  0.7052
 4584TIP3    H235244   0.063   5.143  12.853 -0.9258 -0.1355 -0.1760
 4585TIP3   OH235245   1.344   4.262  15.075 -0.0025  0.2883 -0.7821
 4585TIP3    H135246   1.348   4.241  15.168 -1.0985  0.1609 -0.7481
 4585TIP3    H235247   1.372   4.182  15.031  3.2449  1.1869 -0.5627
 4586TIP3   OH235248   6.042   4.652   0.923  0.4399 -0.1148 -0.0677
 4586TIP3    H135249   5.947   4.660   0.912  0.7261 -0.3141 -4.0441
 4586TIP3    H235250   6.053   4.596   0.999 -2.5217  1.5360  1.7824
 4587TIP3   OH235251   3.975   4.107   0.400 -0.1876 -0.5104 -0.1748
 4587TIP3    H135252   3.882   4.114   0.421 -0.4695 -0.3133 -1.4090
 4587TIP3    H235253   3.991   4.012   0.396 -0.6946 -0.5538 -1.4148
 4588TIP3   OH235254   1.708   5.079   4.135 -0.3602 -0.2827 -0.1114
 4588TIP3    H135255   1.675   5.085   4.224 -0.9331 -0.1779 -0.3262
 4588TIP3    H235256   1.665   5.150   4.088  0.7049  0.3012 -0.2417
 4589TIP3   OH235257   0.877   3.005  12.442 -0.5607  0.5761  0.1032
 4589TIP3    H135258   0.798   3.047  12.476 -0.1453  0.9690  0.6063
 4589TIP3    H235259   0.853   2.913  12.430 -0.8693  0.5387  0.9734
 4590TIP3   OH235260   4.587   4.460  16.535  0.0783  0.1035  0.0714
 4590TIP3    H135261   4.511   4.405  16.516  0.9166 -0.3315 -2.2571
 4590TIP3    H235262   4.661   4.399  16.538  0.7350  0.8427 -0.5182
 4591TIP3   OH235263   2.218   2.054  12.364 -0.1164  0.2590  0.1693
 4591TIP3    H135264   2.301   2.008  12.377 -0.9696 -1.9408 -1.4255
 4591TIP3    H235265   2.154   2.003  12.414 -0.3999  2.6809  2.4659
 4592TIP3   OH235266   1.723   0.611   3.737  0.3506  0.4353 -0.2006
 4592TIP3    H135267   1.818   0.601   3.733  0.6044  0.9782  2.5058
 4592TIP3    H235268   1.708   0.705   3.729 -0.0076  0.3323 -0.8390
 4593TIP3   OH235269   6.067   0.729  13.049 -0.1935  0.1804 -0.3850
 4593TIP3    H135270   6.162   0.736  13.043 -0.1975  0.4301 -0.1653
 4593TIP3    H235271   6.045   0.767  13.134 -0.3748 -1.0236  0.1210
 4594TIP3   OH235272   0.692   2.389   6.474 -0.0813  0.1709 -0.0731
 4594TIP3    H135273   0.752   2.379   6.548  0.7107 -0.7190 -0.8077
 4594TIP3    H235274   0.713   2.476   6.439 -0.4393  0.5819  0.7226
 4595TIP3   OH235275   6.683   3.896   0.155  0.3287 -0.1074  0.4123
 4595TIP3    H135276   6.715   3.885   0.066  4.5436  0.6996  1.6059
 4595TIP3    H235277   6.696   3.988   0.175  0.9256 -0.5385  2.2776
 4596TIP3   OH235278   1.364   3.284  11.623 -0.1340 -0.1019 -0.0926
 4596TIP3    H135279   1.349   3.285  11.528 -2.7021  2.7977  0.1596
 4596TIP3    H235280   1.280   3.256  11.660  0.0084  1.2383  1.3242
 4597TIP3   OH235281   5.801   3.657   3.015 -0.6047 -0.1717  0.4713
 4597TIP3    H135282   5.764   3.593   3.076 -0.7310 -0.5697 -0.0135
 4597TIP3    H235283   5.782   3.742   3.054 -1.2760 -0.4009  0.6584
 4598TIP3   OH235284   6.349   5.752   2.881  0.5106  0.3721 -0.1603
 4598TIP3    H135285   6.384   5.666   2.859  0.5864  0.9571 -2.6853
 4598TIP3    H235286   6.283   5.735   2.949  1.8705 -1.3965  0.7908
 4599TIP3   OH235287   1.179   3.102  13.663 -0.1277 -1.0928 -0.8775
 4599TIP3    H135288   1.214   3.016  13.684  0.9073 -0.0605  2.0004
 4599TIP3    H235289   1.256   3.158  13.657 -0.9515  0.3926  1.3914
 4600TIP3   OH235290   5.093   5.384  10.872  0.3121 -0.2185  0.5719
 4600TIP3    H135291   5.165   5.363  10.812  0.2824  1.2345 -0.0127
 4600TIP3    H235292   5.014   5.364  10.822  0.2990  0.1322  0.4471
 4601TIP3   OH235293   6.381   3.007  13.634  0.2995  0.3918 -0.7683
 4601TIP3    H135294   6.329   3.086  13.653  0.5131  0.3299  0.1226
 4601TIP3    H235295   6.317   2.936  13.638  0.2118  0.4567 -0.9964
 4602TIP3   OH235296   1.028   3.799   5.053 -0.2897 -0.7770 -0.2681
 4602TIP3    H135297   1.042   3.829   4.963 -1.3623 -1.4506 -0.6753
 4602TIP3    H235298   1.088   3.726   5.063  0.1889 -0.3856 -0.2722
 4603TIP3   OH235299   6.033   1.795   5.421  0.3280  0.0695 -0.3447
 4603TIP3    H135300   6.117   1.766   5.457 -0.2827  1.6366  2.6440
 4603TIP3    H235301   6.051   1.882   5.386  0.2495 -0.2402 -1.1880
 4604TIP3   OH235302   3.501   6.552   2.607  0.7017 -0.4591  0.1377
 4604TIP3    H135303   3.590   6.540   2.574 -0.1555 -1.2616 -2.0857
 4604TIP3    H235304   3.484   6.646   2.595  0.7844 -0.5519 -0.7612
 4605TIP3   OH235305   2.839   2.594   3.505 -0.1010  0.8285 -0.2860
 4605TIP3    H135306   2.885   2.567   3.585 -3.4562 -0.7927  1.2732
 4605TIP3    H235307   2.892   2.556   3.434  0.9840 -0.9682  1.3540
 4606TIP3   OH235308   5.856   5.835  13.521 -0.0117 -0.2898  0.0440
 4606TIP3    H135309   5.788   5.767  13.528  0.1847 -0.5603 -0.6365
 4606TIP3    H235310   5.811   5.916  13.546 -0.1018 -0.7379  1.4418
 4607TIP3   OH235311   4.286   4.958  13.299 -0.1427  0.3954 -0.4881
 4607TIP3    H135312   4.237   4.970  13.218  1.8314  0.2115 -1.7831
 4607TIP3    H235313   4.375   4.937  13.270  0.9525  1.6384  1.7392
 4608TIP3   OH235314   0.125   5.901   4.741  0.5658  0.1653 -0.2742
 4608TIP3    H135315   0.202   5.906   4.684  1.2293  0.5140  0.6211
 4608TIP3    H235316   0.050   5.905   4.682  1.2361 -0.1058 -1.1579
 4609TIP3   OH235317   4.847   5.120  10.879  0.4274 -0.2297  0.6541
 4609TIP3    H135318   4.867   5.190  10.817  0.1985 -0.0816  0.7457
 4609TIP3    H235319   4.907   5.049  10.856 -1.5404 -1.2966 -1.5794
 4610TIP3   OH235320   3.800   4.289  14.494  0.1465  0.5554  0.1166
 4610TIP3    H135321   3.714   4.311  14.457  0.4450  0.6717 -0.5272
 4610TIP3    H235322   3.846   4.246  14.422  0.3564 -0.2032  0.6954
 4611TIP3   OH235323   1.255   5.672  15.961  0.2758 -0.3412  0.0135
 4611TIP3    H135324   1.265   5.648  16.053  1.5056  1.0628  0.2907
 4611TIP3    H235325   1.231   5.765  15.964  0.5619 -0.2225 -1.0807
 4612TIP3   OH235326   6.778   2.784   1.412 -0.1817  0.5268 -0.0870
 4612TIP3    H135327   6.705   2.823   1.461 -1.0194  0.4266 -1.2038
 4612TIP3    H235328   6.855   2.831   1.442 -0.2463 -1.1466  3.1386
 4613TIP3   OH235329   3.380   4.678   0.057  0.1840 -0.1802 -0.0760
 4613TIP3    H135330   3.380   4.646   0.147 -2.6273  0.2241  0.1483
 4613TIP3    H235331   3.445   4.624   0.012 -0.8866 -2.8482  1.3867
 4614TIP3   OH235332   5.123   1.826   5.497  0.0360 -0.0502 -0.3103
 4614TIP3    H135333   5.071   1.886   5.550  0.2032  0.6844 -0.9495
 4614TIP3    H235334   5.084   1.740   5.512 -3.0095  0.7452 -2.6357
 4615TIP3   OH235335   0.576   0.333   5.260 -0.1567 -0.1977  0.0523
 4615TIP3    H135336   0.589   0.421   5.295 -0.8287 -0.0519 -0.0506
 4615TIP3    H235337   0.482   0.320   5.263  0.0635 -1.6833  1.9352
 4616TIP3   OH235338   6.618   2.171  14.001  0.1015  0.3690 -0.1705
 4616TIP3    H135339   6.642   2.124  14.080  0.2802  0.8568  0.0705
 4616TIP3    H235340   6.682   2.242  13.994  0.3822  0.0510 -1.0122
 4617TIP3   OH235341   1.973   3.304   0.630  0.2863  0.2465  0.3226
 4617TIP3    H135342   2.041   3.308   0.697  1.3369 -0.0950 -0.6869
 4617TIP3    H235343   1.968   3.394   0.596  2.2027 -0.2488 -1.4517
 4618TIP3   OH235344   5.077   1.452   5.031 -0.1934 -0.7486  0.5187
 4618TIP3    H135345   5.009   1.386   5.049  1.7832 -3.4185 -1.0748
 4618TIP3    H235346   5.154   1.401   5.008  1.8261  2.1887  0.2662
 4619TIP3   OH235347   6.495   3.921  15.938  0.4532  0.2199  0.1621
 4619TIP3    H135348   6.452   4.003  15.911 -1.0720 -0.1511  1.3316
 4619TIP3    H235349   6.484   3.863  15.863 -0.5796  0.3403  0.2002
 4620TIP3   OH235350   6.145   4.979   0.248 -0.5360 -0.1403 -0.5208
 4620TIP3    H135351   6.151   4.923   0.325  1.1261  1.1903  0.3725
 4620TIP3    H235352   6.052   5.000   0.240 -1.0796 -2.2083 -0.3416
 4621TIP3   OH235353   0.655   4.477   3.182  0.1053  0.2420  0.5150
 4621TIP3    H135354   0.720   4.527   3.133 -0.9186  0.1014 -1.0690
 4621TIP3    H235355   0.668   4.387   3.154 -0.4004  0.1331  0.6146
 4622TIP3   OH235356   5.860   5.084   5.691  0.1024  0.5457  0.2198
 4622TIP3    H135357   5.817   5.169   5.697 -2.4677 -0.5948 -0.6056
 4622TIP3    H235358   5.814   5.030   5.755 -0.1960 -0.9267 -1.1815
 4623TIP3   OH235359   6.636   6.459  10.846  0.1036 -0.0152  0.1195
 4623TIP3    H135360   6.678   6.545  10.846  0.0085  0.0507  1.6064
 4623TIP3    H235361   6.619   6.441  10.753  0.2693  1.4900 -0.2269
 4624TIP3   OH235362   1.322   2.928  15.760 -0.2325  0.3039 -0.3591
 4624TIP3    H135363   1.376   2.994  15.717  0.5636  0.3509  0.6536
 4624TIP3    H235364   1.352   2.929  15.851  0.6817 -2.3216 -0.5379
 4625TIP3   OH235365   2.469   3.340   2.731  0.1925  0.2673  0.1899
 4625TIP3    H135366   2.425   3.354   2.815 -1.0703  0.5388 -0.4933
 4625TIP3    H235367   2.544   3.399   2.733 -0.2427  0.8086  0.8312
 4626TIP3   OH235368   2.682   3.184   1.211 -0.6844 -0.2616  0.0494
 4626TIP3    H135369   2.658   3.276   1.194 -3.3578 -0.6251  1.3322
 4626TIP3    H235370   2.612   3.133   1.170 -1.0309 -1.5724  2.1481
 4627TIP3   OH235371   5.622   5.063  15.280  0.1769  0.0815 -0.6915
 4627TIP3    H135372   5.559   5.119  15.234  0.6405  0.9151 -0.3247
 4627TIP3    H235373   5.659   5.119  15.348  0.7052 -0.6528 -0.3635
 4628TIP3   OH235374   4.178   6.674   5.639 -0.1724  0.5280  0.5226
 4628TIP3    H135375   4.248   6.610   5.636  0.3200  1.1093 -1.4835
 4628TIP3    H235376   4.097   6.622   5.635  0.2025 -0.0143 -0.0914
 4629TIP3   OH235377   0.492   5.927   4.991  0.6269  0.3627 -0.1538
 4629TIP3    H135378   0.530   5.871   5.058  1.3573  0.1833 -0.7144
 4629TIP3    H235379   0.397   5.917   5.003  0.7445  0.2075  0.7387
 4630TIP3   OH235380   6.101   0.777  14.728 -0.1430  0.1411  0.3732
 4630TIP3    H135381   6.027   0.717  14.730 -1.4321  1.6197 -0.5401
 4630TIP3    H235382   6.149   0.754  14.648  0.1973 -0.5653  0.7662
 4631TIP3   OH235383   1.050   1.018   2.117 -0.5375 -0.2172  0.4564
 4631TIP3    H135384   1.076   0.946   2.059 -2.7543 -0.2538 -0.5889
 4631TIP3    H235385   1.105   1.091   2.091 -0.1883 -0.7648 -0.3838
 4632TIP3   OH235386   0.178   1.565   3.961 -0.0339 -0.1862  0.4618
 4632TIP3    H135387   0.150   1.482   4.001 -0.8528 -1.1646 -1.9649
 4632TIP3    H235388   0.197   1.542   3.870 -0.9280  2.4220 -0.4597
 4633TIP3   OH235389   6.679   3.884  17.116  0.2493 -0.2465 -0.5579
 4633TIP3    H135390   6.735   3.944  17.067 -0.5372 -0.3339 -1.5992
 4633TIP3    H235391   6.638   3.830  17.049 -0.4886 -0.6922  0.2389
 4634TIP3   OH235392   6.105   6.077   3.811  0.4428 -0.0305 -0.6865
 4634TIP3    H135393   6.011   6.086   3.822  0.3552 -1.8330  0.3680
 4634TIP3    H235394   6.138   6.167   3.810 -1.0292  0.6027  1.3235
 4635TIP3   OH235395   2.465   6.315  12.697 -0.0997 -0.0226 -0.6922
 4635TIP3    H135396   2.446   6.403  12.730  1.1808  0.2218 -0.5357
 4635TIP3    H235397   2.521   6.276  12.765 -0.3391 -0.8207 -0.9418
 4636TIP3   OH235398   1.096   2.545  13.588  0.0575  0.0312  0.1870
 4636TIP3    H135399   1.081   2.508  13.501 -3.0013 -1.1630  1.0797
 4636TIP3    H235400   1.092   2.470  13.647 -1.3718  1.1469  1.6122
 4637TIP3   OH235401   2.284   3.285  13.181 -0.5479  0.1117  0.5673
 4637TIP3    H135402   2.267   3.253  13.092 -0.2384 -0.0040  0.5458
 4637TIP3    H235403   2.240   3.370  13.186  0.5195  0.7215 -0.1293
 4638TIP3   OH235404   2.142   6.450   3.905  0.4940  0.5977  0.3721
 4638TIP3    H135405   2.166   6.515   3.972 -0.6824  2.5014 -0.9358
 4638TIP3    H235406   2.075   6.396   3.946  2.2578 -0.5531  1.8541
 4639TIP3   OH235407   5.244   5.213  12.948 -0.3050  0.0979 -0.6196
 4639TIP3    H135408   5.260   5.243  13.038 -1.2312  0.9532 -0.7236
 4639TIP3    H235409   5.276   5.285  12.893 -0.8929  0.1272 -0.9319
 4640TIP3   OH235410   3.712   5.107   0.449  0.2771  0.1523 -0.1905
 4640TIP3    H135411   3.660   5.100   0.529  3.9423 -2.3943  2.2512
 4640TIP3    H235412   3.707   5.020   0.410 -0.2366  0.9565 -2.0172
 4641TIP3   OH235413   2.136   3.332  16.342 -0.0913 -0.4472  0.1606
 4641TIP3    H135414   2.075   3.310  16.412 -0.0426  0.0680  0.3677
 4641TIP3    H235415   2.168   3.419  16.364 -0.5749  0.0018 -0.8588
 4642TIP3   OH235416   3.173   6.523  16.813  0.2520  0.0256  0.5162
 4642TIP3    H135417   3.171   6.549  16.905 -0.8453  1.5765  0.0951
 4642TIP3    H235418   3.199   6.431  16.814 -0.0661 -0.0727  2.3946
 4643TIP3   OH235419   4.444   4.255   4.497 -0.3243  0.3469 -0.4743
 4643TIP3    H135420   4.495   4.192   4.445 -0.0604  0.4924 -0.3925
 4643TIP3    H235421   4.390   4.201   4.555 -1.4373  0.1480 -1.6487
 4644TIP3   OH235422   5.093   4.873  11.981 -0.2616 -0.3592  0.6654
 4644TIP3    H135423   5.052   4.794  12.016 -1.6572  0.0843  0.0697
 4644TIP3    H235424   5.049   4.889  11.898  0.4953  0.6582  0.4337
 4645TIP3   OH235425   3.389   6.562  11.563 -0.3111 -0.2524  0.2869
 4645TIP3    H135426   3.337   6.600  11.492 -0.7993 -0.4625  0.5230
 4645TIP3    H235427   3.457   6.626  11.581 -0.6849  0.1792  0.1844
 4646TIP3   OH235428   0.970   5.434  15.104 -0.2537  0.0748 -0.4645
 4646TIP3    H135429   1.063   5.421  15.122 -0.2031  0.6532 -0.2792
 4646TIP3    H235430   0.951   5.375  15.031  0.3588  0.2713 -0.7912
 4647TIP3   OH235431   2.426   3.867  12.941  0.4491 -0.0860  0.0716
 4647TIP3    H135432   2.509   3.899  12.977  0.5662  0.0771 -0.3278
 4647TIP3    H235433   2.361   3.889  13.007  0.8870 -1.3208  0.9489
 4648TIP3   OH235434   3.437   1.377  15.776  0.3136  0.0226 -0.0692
 4648TIP3    H135435   3.447   1.472  15.790  5.3500 -0.3379  0.6539
 4648TIP3    H235436   3.381   1.348  15.847 -1.1862  2.3569 -0.1829
 4649TIP3   OH235437   6.097   5.610   3.795 -0.5877 -0.3016  0.3323
 4649TIP3    H135438   6.037   5.607   3.720  0.0067 -3.2892 -0.1481
 4649TIP3    H235439   6.146   5.691   3.782 -1.0010 -0.3528 -2.1209
 4650TIP3   OH235440   2.643   6.301  11.852 -0.4373  0.3554  0.1292
 4650TIP3    H135441   2.641   6.231  11.917 -2.6048  1.4170  1.3349
 4650TIP3    H235442   2.604   6.263  11.774 -1.3767  0.1210  0.6974
 4651TIP3   OH235443   6.637   1.171  15.909 -0.6450  0.0035  0.4495
 4651TIP3    H135444   6.696   1.210  15.844 -1.7213 -1.1448 -1.3106
 4651TIP3    H235445   6.598   1.096  15.864 -1.6380 -0.6970  2.3693
 4652TIP3   OH235446   5.148   2.425  13.824 -0.3446  0.4681  0.1212
 4652TIP3    H135447   5.168   2.455  13.912 -0.6560  2.2935 -0.3900
 4652TIP3    H235448   5.199   2.345  13.814 -1.5397 -0.7205  2.5031
 4653TIP3   OH235449   5.224   4.887  12.454 -0.8378  0.1385  0.1856
 4653TIP3    H135450   5.173   4.835  12.392 -0.2417  0.1911 -0.3536
 4653TIP3    H235451   5.187   4.865  12.539 -0.4507 -1.3292 -0.0050
 4654TIP3   OH235452   6.445   4.993  14.764 -0.2680 -0.7194  0.3407
 4654TIP3    H135453   6.497   4.954  14.834  0.7239 -2.3744 -1.2224
 4654TIP3    H235454   6.503   4.992  14.688 -1.1393  1.4453 -0.4413
 4655TIP3   OH235455   3.291   0.263   5.380 -0.0665 -0.0126 -0.1719
 4655TIP3    H135456   3.242   0.181   5.370  1.8827 -1.5352  1.6235
 4655TIP3    H235457   3.360   0.258   5.315  0.5811 -0.2459  0.5188
 4656TIP3   OH235458   2.887   1.465   0.807 -0.1296  0.1106  0.0198
 4656TIP3    H135459   2.849   1.521   0.738  1.4373 -0.1865 -1.1397
 4656TIP3    H235460   2.923   1.390   0.760  1.7474  0.3140  1.0574
 4657TIP3   OH235461   2.129   0.468  12.358 -0.3095  0.8555 -0.2585
 4657TIP3    H135462   2.205   0.467  12.416 -0.0645  0.9961 -0.5744
 4657TIP3    H235463   2.054   0.471  12.417 -0.1779 -1.5485  0.1352
 4658TIP3   OH235464   0.905   2.583   2.087  0.3570 -0.5889  0.0498
 4658TIP3    H135465   0.878   2.553   2.000  0.1717 -1.1162  0.2846
 4658TIP3    H235466   0.823   2.601   2.133  0.4316 -0.8700  0.3026
 4659TIP3   OH235467   0.238   5.199   2.900  0.3585 -0.0325 -0.0392
 4659TIP3    H135468   0.274   5.267   2.843 -3.2717  0.9675 -1.4304
 4659TIP3    H235469   0.172   5.244   2.952 -0.0807 -1.9792  1.1965
 4660TIP3   OH235470   5.583   1.320  13.321 -0.5043 -0.4137  0.2919
 4660TIP3    H135471   5.522   1.348  13.252  0.3141  0.6827 -0.0233
 4660TIP3    H235472   5.632   1.247  13.282 -0.4809 -0.2105 -0.0634
 4661TIP3   OH235473   4.686   2.165   2.118 -0.3539 -0.5076 -0.1488
 4661TIP3    H135474   4.677   2.192   2.210  1.1590 -1.4981  0.3352
 4661TIP3    H235475   4.621   2.097   2.106  0.9379 -2.0214  0.9252
 4662TIP3   OH235476   3.224   4.004  11.197  0.5681  0.2057  0.0331
 4662TIP3    H135477   3.157   3.945  11.230 -0.4618  0.4516 -1.5721
 4662TIP3    H235478   3.307   3.959  11.216 -0.1676 -1.6370 -0.8888
 4663TIP3   OH235479   2.705   3.218   2.126  0.0139 -0.2597 -0.1712
 4663TIP3    H135480   2.659   3.246   2.205  0.0149  1.1049 -0.6248
 4663TIP3    H235481   2.758   3.143   2.154 -1.2141 -0.8195  0.7330
 4664TIP3   OH235482   2.151   1.578   4.965  0.0843 -0.0687 -0.2213
 4664TIP3    H135483   2.160   1.620   4.879  2.1079 -1.5393 -0.8048
 4664TIP3    H235484   2.120   1.490   4.944  0.0542 -0.2577  0.6143
 4665TIP3   OH235485   0.876   5.974  13.590  0.1959  0.1542 -0.7954
 4665TIP3    H135486   0.969   5.954  13.601  0.4399  2.0452  1.5383
 4665TIP3    H235487   0.859   6.042  13.655 -3.6662 -2.5827  1.4200
 4666TIP3   OH235488   4.693   2.633  11.956  0.4052  0.4921 -0.2553
 4666TIP3    H135489   4.672   2.650  11.864  1.3075  0.5356 -0.4571
 4666TIP3    H235490   4.771   2.578  11.954 -0.1341 -0.3424  0.4725
 4667TIP3   OH235491   2.284   1.594  15.124 -0.5219  0.0314  0.5026
 4667TIP3    H135492   2.264   1.514  15.075 -2.2936  0.6276  0.1597
 4667TIP3    H235493   2.198   1.630  15.147  0.2461  1.2798  1.5817
 4668TIP3   OH235494   1.265   3.022   3.089  0.3630 -0.3400  0.2401
 4668TIP3    H135495   1.327   3.041   3.160  2.3291 -1.9839 -0.9130
 4668TIP3    H235496   1.319   2.986   3.020 -1.6593  0.1335 -1.6988
 4669TIP3   OH235497   4.331   3.973   4.136 -0.5705 -0.0058 -0.3306
 4669TIP3    H135498   4.254   3.925   4.105 -0.3625 -0.4671 -0.1488
 4669TIP3    H235499   4.306   4.006   4.222  0.5615 -3.1170  1.3544
 4670TIP3   OH235500   1.571   4.844   3.604 -0.4134  0.0719  0.1470
 4670TIP3    H135501   1.661   4.840   3.636  0.1430  0.5283 -1.2890
 4670TIP3    H235502   1.580   4.864   3.511 -1.9746 -0.8894 -0.2391
 4671TIP3   OH235503   0.712   4.545   5.687 -0.7428  0.1571 -1.1619
 4671TIP3    H135504   0.661   4.621   5.717 -2.8202 -1.9843  1.1615
 4671TIP3    H235505   0.685   4.534   5.596 -4.0321 -0.4165 -0.2435
 4672TIP3   OH235506   0.170   4.234   0.979  0.3491  0.3469 -1.0040
 4672TIP3    H135507   0.262   4.221   0.960  0.9955  1.5284  1.0504
 4672TIP3    H235508   0.143   4.307   0.923  0.6744  0.0583 -1.5371
 4673TIP3   OH235509   6.105   5.946  16.411  0.0608  0.3198  0.0692
 4673TIP3    H135510   6.020   5.911  16.434 -0.3853 -0.1668 -2.0600
 4673TIP3    H235511   6.167   5.876  16.433 -0.4258 -0.4244 -0.8516
 4674TIP3   OH235512   3.616   0.098   0.113 -0.4127  0.1787 -0.3534
 4674TIP3    H135513   3.676   0.106   0.186 -1.4107  0.8808  0.4233
 4674TIP3    H235514   3.629   0.009   0.080  0.5783  0.1106  0.1946
 4675TIP3   OH235515   4.962   0.469  10.903 -0.5413  0.1928  0.4424
 4675TIP3    H135516   5.027   0.480  10.833 -0.9724 -0.2787 -0.0422
 4675TIP3    H235517   4.926   0.557  10.916  0.4431  0.5250  0.9648
 4676TIP3   OH235518   5.990   5.719  14.164  0.0926  0.4096  0.2928
 4676TIP3    H135519   5.938   5.656  14.216 -0.1440  0.5218  0.1932
 4676TIP3    H235520   5.954   5.712  14.076 -0.6114  1.3954  0.4810
 4677TIP3   OH235521   2.033   1.250  12.872 -0.2738  0.1274  0.5214
 4677TIP3    H135522   2.001   1.177  12.819  0.7468  0.5633 -0.7566
 4677TIP3    H235523   1.954   1.288  12.911 -0.9727 -0.7238 -0.0261
 4678TIP3   OH235524   4.627   5.253   2.233 -0.3691  0.3341  0.5260
 4678TIP3    H135525   4.562   5.255   2.163 -0.3343 -1.4731  0.3980
 4678TIP3    H235526   4.585   5.203   2.303  0.0280  1.1357  1.3572
 4679TIP3   OH235527   4.395   0.757  14.004  0.6091  0.2151 -0.4610
 4679TIP3    H135528   4.382   0.789  13.915  1.4294  1.3205 -0.2065
 4679TIP3    H235529   4.357   0.825  14.060  0.4915 -0.2623  0.0449
 4680TIP3   OH235530   3.431   3.847   4.744  0.1327  0.0255 -0.5000
 4680TIP3    H135531   3.411   3.767   4.792  1.4487 -0.0951 -0.1190
 4680TIP3    H235532   3.496   3.892   4.798 -0.0199  0.9729 -1.0865
 4681TIP3   OH235533   0.996   6.153  12.402 -0.5240 -0.5071 -0.0038
 4681TIP3    H135534   1.061   6.139  12.471  0.6769  0.0945 -0.9778
 4681TIP3    H235535   1.001   6.247  12.383 -1.9031 -0.3920  0.0931
 4682TIP3   OH235536   6.228   1.256  14.130  0.3427 -0.2141  0.3431
 4682TIP3    H135537   6.225   1.351  14.139  1.0514  0.0140 -1.4853
 4682TIP3    H235538   6.288   1.240  14.058 -0.3657 -2.0326  0.0963
 4683TIP3   OH235539   2.999   6.247  14.710 -0.3061  0.0401  0.3006
 4683TIP3    H135540   2.991   6.329  14.662 -0.5590 -0.2021 -0.0782
 4683TIP3    H235541   3.080   6.256  14.759  1.0124 -0.4605 -1.6575
 4684TIP3   OH235542   2.539   5.816   4.131  0.5007  0.1374  0.1291
 4684TIP3    H135543   2.490   5.834   4.211  0.3638  0.4940 -0.0301
 4684TIP3    H235544   2.608   5.882   4.131 -0.9794  1.7979 -1.2914
 4685TIP3   OH235545   4.043   0.364  14.706 -0.1788 -0.0641  0.2003
 4685TIP3    H135546   3.963   0.318  14.732 -0.2505 -0.9490 -1.4586
 4685TIP3    H235547   4.096   0.298  14.662  0.4260  1.0574 -0.8279
 4686TIP3   OH235548   6.708   2.939   5.815 -0.8251  0.5063 -0.2543
 4686TIP3    H135549   6.718   2.849   5.845 -1.6055 -0.3336 -2.3160
 4686TIP3    H235550   6.731   2.993   5.891 -0.9654 -1.4219  1.2200
 4687TIP3   OH235551   3.994   4.557   4.567  0.7513 -0.0532 -0.5315
 4687TIP3    H135552   4.021   4.630   4.623  0.7934  0.8325 -1.6628
 4687TIP3    H235553   3.899   4.556   4.573  0.8058 -0.5686  0.2874
 4688TIP3   OH235554   1.052   2.636   3.986 -0.0794 -0.6042  0.2795
 4688TIP3    H135555   1.071   2.557   4.037  2.2043 -0.2440  0.1008
 4688TIP3    H235556   1.129   2.648   3.931 -0.8145  1.1948 -0.4271
 4689TIP3   OH235557   2.733   4.200   6.439  0.3619  0.3433  0.3603
 4689TIP3    H135558   2.709   4.223   6.528  1.4076  0.5271  0.6020
 4689TIP3    H235559   2.828   4.187   6.441  0.4171  0.4254 -0.7331
 4690TIP3   OH235560   0.435   5.169   0.132  0.0820 -0.3878 -0.4768
 4690TIP3    H135561   0.480   5.251   0.151 -1.8863  0.2268  1.9325
 4690TIP3    H235562   0.471   5.107   0.195  0.1873 -0.8924 -1.0230
 4691TIP3   OH235563   0.397   6.712  15.049  0.2698  0.5044 -0.6096
 4691TIP3    H135564   0.478   6.668  15.024  1.5295  2.5045 -0.3242
 4691TIP3    H235565   0.360   6.744  14.967  0.0420  0.0197 -0.6936
 4692TIP3   OH235566   1.689   4.421  16.664  0.2268  0.1441  0.0266
 4692TIP3    H135567   1.727   4.429  16.577  0.9932 -0.6357  0.2741
 4692TIP3    H235568   1.763   4.428  16.724 -0.4485  2.0935  0.7227
 4693TIP3   OH235569   2.475   2.847   0.836 -0.3272 -0.1461 -0.3884
 4693TIP3    H135570   2.544   2.791   0.873 -0.5484  0.3932  0.8881
 4693TIP3    H235571   2.410   2.785   0.802 -0.1186 -0.6656  0.1344
 4694TIP3   OH235572   3.296   1.791  16.826  0.2066  0.0468 -0.1044
 4694TIP3    H135573   3.251   1.875  16.810 -0.0202 -0.1689 -0.6113
 4694TIP3    H235574   3.262   1.733  16.759  2.1977  0.2182 -1.3458
 4695TIP3   OH235575   0.950   0.998   0.123 -0.3709  0.3910  0.2814
 4695TIP3    H135576   0.908   0.985   0.208  0.8892 -1.9000  0.6534
 4695TIP3    H235577   0.905   0.937   0.064 -0.0795  0.6726 -0.2382
 4696TIP3   OH235578   5.221   4.838   1.434  0.1154 -0.3354  0.8047
 4696TIP3    H135579   5.193   4.822   1.524  0.0810  0.5073  0.9549
 4696TIP3    H235580   5.266   4.758   1.407 -0.9249 -1.0508  1.1544
 4697TIP3   OH235581   4.547   4.465   3.538  0.4967 -0.4915 -0.2888
 4697TIP3    H135582   4.579   4.377   3.558 -1.0877 -0.7239  1.3879
 4697TIP3    H235583   4.613   4.523   3.576 -0.5690 -0.9731  2.5049
 4698TIP3   OH235584   5.332   4.100  17.190  0.7215 -0.1228  0.4317
 4698TIP3    H135585   5.301   4.146  17.112  0.9652 -2.1328 -0.9489
 4698TIP3    H235586   5.425   4.122  17.196  0.5268  0.6735  0.6575
 4699TIP3   OH235587   0.668   5.148  13.278  0.8056 -0.2419 -0.3694
 4699TIP3    H135588   0.611   5.224  13.267 -0.1438 -1.0978 -1.5452
 4699TIP3    H235589   0.669   5.105  13.193  0.6659 -2.0051  0.4753
 4700TIP3   OH235590   6.803   4.746   4.902 -0.2000  0.3527 -0.1043
 4700TIP3    H135591   6.776   4.662   4.937 -0.6151 -0.0350 -1.3030
 4700TIP3    H235592   6.786   4.809   4.973  0.2812 -0.5819  0.8606
 4701TIP3   OH235593   4.217   0.119   1.967  0.0337 -0.8488  0.3022
 4701TIP3    H135594   4.126   0.135   1.943  0.1243  0.9357  0.9774
 4701TIP3    H235595   4.218   0.124   2.063  0.6487 -2.1025  0.3808
 4702TIP3   OH235596   6.049   1.997  12.711 -0.6330  0.0611  0.4108
 4702TIP3    H135597   6.087   2.076  12.750 -0.4130 -0.2949  0.9189
 4702TIP3    H235598   5.958   1.997  12.741 -1.4927  1.6439 -1.8929
 4703TIP3   OH235599   2.650   1.023   4.775 -0.3323  0.5249  0.6002
 4703TIP3    H135600   2.617   1.112   4.789 -1.0516  0.6337 -1.4608
 4703TIP3    H235601   2.582   0.966   4.811 -1.0108  0.7998 -0.2189
 4704TIP3   OH235602   5.529   4.869  16.487  0.2020 -0.3390 -0.4993
 4704TIP3    H135603   5.537   4.957  16.523 -0.5127 -0.1596 -0.7476
 4704TIP3    H235604   5.617   4.846  16.459  0.2833  0.5437 -0.9953
 4705TIP3   OH235605   2.250   0.940   4.622  0.0136  0.5164 -0.0741
 4705TIP3    H135606   2.155   0.946   4.621 -0.0344 -0.2260 -0.1705
 4705TIP3    H235607   2.279   1.026   4.654 -0.6305  1.2675 -1.4236
 4706TIP3   OH235608   1.222   0.832  14.687 -0.4357  0.1147  0.1740
 4706TIP3    H135609   1.186   0.849  14.774  1.7490  2.6800  0.7274
 4706TIP3    H235610   1.297   0.774  14.702 -0.7562 -0.3990 -0.1751
 4707TIP3   OH235611   3.271   5.651  13.164  0.5280  0.5114  0.3636
 4707TIP3    H135612   3.215   5.596  13.220  0.5298  0.1480  0.0073
 4707TIP3    H235613   3.352   5.601  13.154  1.6455  1.7658  2.3004
 4708TIP3   OH235614   5.070   6.299  10.979 -0.1786 -0.0087 -0.2732
 4708TIP3    H135615   5.003   6.275  11.043  1.1378 -1.9640  0.4917
 4708TIP3    H235616   5.066   6.229  10.913  1.0389 -0.1224 -0.2443
 4709TIP3   OH235617   1.323   6.539  13.614  0.0544 -0.6072  0.3926
 4709TIP3    H135618   1.415   6.563  13.623 -0.3984  1.2564  0.4264
 4709TIP3    H235619   1.314   6.511  13.523  0.2155  1.4215 -0.2908
 4710TIP3   OH235620   3.190   1.298  10.562 -0.1841  0.1159  0.2627
 4710TIP3    H135621   3.267   1.245  10.542  0.6867  0.7484  1.7506
 4710TIP3    H235622   3.218   1.388  10.545 -0.4450  0.3806  1.1840
 4711TIP3   OH235623   5.639   4.359   4.752  0.3065 -0.6676  0.5715
 4711TIP3    H135624   5.590   4.277   4.750 -0.5884 -0.1428 -0.9289
 4711TIP3    H235625   5.662   4.371   4.844  0.8752 -2.8201  0.7600
 4712TIP3   OH235626   2.254   6.075  12.488  0.4600 -0.2373  0.0971
 4712TIP3    H135627   2.346   6.063  12.465  0.2082  0.7857 -1.5998
 4712TIP3    H235628   2.207   6.066  12.405 -0.8028  0.8582  0.6633
 4713TIP3   OH235629   1.051   0.162   5.931 -0.0182  0.1945  0.2530
 4713TIP3    H135630   0.975   0.104   5.930 -0.0800  0.1862 -2.3350
 4713TIP3    H235631   1.094   0.145   6.015 -2.8431  0.2319  1.8098
 4714TIP3   OH235632   5.616   5.281  14.877  0.0775  0.2229 -0.0698
 4714TIP3    H135633   5.710   5.271  14.896 -0.1086  0.3401  1.0001
 4714TIP3    H235634   5.590   5.197  14.840  0.2423 -0.4550  1.2946
 4715TIP3   OH235635   2.424   4.458  13.253 -0.2656 -0.3342 -0.0620
 4715TIP3    H135636   2.350   4.404  13.223 -0.8016 -0.7503  1.8671
 4715TIP3    H235637   2.384   4.542  13.275 -0.3227 -0.7233  1.4840
 4716TIP3   OH235638   4.038   4.236   3.413 -0.3711  0.8709 -0.0523
 4716TIP3    H135639   4.133   4.250   3.420 -0.4719  1.0748  1.3662
 4716TIP3    H235640   4.006   4.254   3.502 -1.1477 -3.6123  0.8393
 4717TIP3   OH235641   5.465   3.340   4.131  0.2038  0.6481  0.5206
 4717TIP3    H135642   5.469   3.405   4.201  1.8646  0.4915  0.6085
 4717TIP3    H235643   5.451   3.257   4.177 -0.7059  0.7743  0.4952
 4718TIP3   OH235644   1.727   2.360   2.702 -0.0549 -0.1601 -0.0948
 4718TIP3    H135645   1.710   2.431   2.640  1.0230 -0.3710 -0.6530
 4718TIP3    H235646   1.817   2.375   2.732 -0.2755 -0.5415  0.7947
 4719TIP3   OH235647   3.269   4.570   4.765 -0.3295 -0.1825 -0.0442
 4719TIP3    H135648   3.286   4.501   4.830  0.9431  1.1017  1.0612
 4719TIP3    H235649   3.210   4.630   4.810 -0.0322  0.3445 -0.3550
 4720TIP3   OH235650   2.087   1.160   3.044  0.2399  0.3996  0.1389
 4720TIP3    H135651   2.125   1.195   3.124  1.1850 -0.4671  0.0941
 4720TIP3    H235652   2.147   1.189   2.975 -0.1109  0.4391 -0.1535
 4721TIP3   OH235653   2.008   3.428   3.048 -0.0950 -0.0571  0.3803
 4721TIP3    H135654   1.939   3.392   2.992 -0.2813  0.8343  0.0167
 4721TIP3    H235655   1.996   3.523   3.043  0.2413  0.0641  1.4817
 4722TIP3   OH235656   5.146   6.301   5.221  0.3382 -0.1215  0.0577
 4722TIP3    H135657   5.058   6.332   5.241 -0.2770 -2.2581  0.9755
 4722TIP3    H235658   5.204   6.362   5.268 -0.4764  2.3036 -1.8811
 4723TIP3   OH235659   5.641   3.742   4.645  0.1538 -0.0952 -0.2461
 4723TIP3    H135660   5.599   3.697   4.719 -0.0714 -0.3399 -0.5195
 4723TIP3    H235661   5.712   3.792   4.685 -0.0976 -0.0601  0.1646
 4724TIP3   OH235662   0.939   3.178  12.210  0.0712  0.0208 -0.3055
 4724TIP3    H135663   0.976   3.113  12.150 -1.0295  0.5351 -1.5988
 4724TIP3    H235664   0.946   3.137  12.297  0.5888 -1.2722 -0.9294
 4725TIP3   OH235665   0.877   6.676   1.820 -0.2975  0.2686  0.2262
 4725TIP3    H135666   0.908   6.757   1.779  1.3176 -0.4264  0.0295
 4725TIP3    H235667   0.885   6.693   1.914  0.0280  0.3452  0.1865
 4726TIP3   OH235668   2.112   5.513   3.590  0.3154  1.0300 -0.7551
 4726TIP3    H135669   2.045   5.451   3.619  0.8452  1.3585  1.3097
 4726TIP3    H235670   2.187   5.457   3.566 -0.1350  0.7522 -1.5592
 4727TIP3   OH235671   4.868   0.106   3.700  0.5766  0.6996 -0.1758
 4727TIP3    H135672   4.846   0.119   3.608  1.4989  1.1385 -0.3476
 4727TIP3    H235673   4.796   0.148   3.748  0.8136  1.7519 -0.7146
 4728TIP3   OH235674   2.687   5.923   1.584 -0.0516  0.5806  0.2134
 4728TIP3    H135675   2.629   5.926   1.660 -0.4051  2.1495 -0.0727
 4728TIP3    H235676   2.696   5.830   1.564 -1.0003  0.2090  1.3778
 4729TIP3   OH235677   2.454   5.942  11.672 -0.2224  0.5279 -0.1176
 4729TIP3    H135678   2.481   6.026  11.635 -1.1517  0.8297 -0.1472
 4729TIP3    H235679   2.467   5.879  11.601  1.3791  0.4590  0.2019
 4730TIP3   OH235680   1.291   4.771  14.065  0.4250  0.4675 -0.1629
 4730TIP3    H135681   1.287   4.862  14.093 -1.5960 -0.0416  1.4250
 4730TIP3    H235682   1.221   4.764  14.000  0.4770 -0.0031 -0.1669
 4731TIP3   OH235683   1.152   2.096   5.725 -0.5442 -0.4868  0.2237
 4731TIP3    H135684   1.225   2.113   5.784  0.0357  0.1018 -0.6307
 4731TIP3    H235685   1.153   2.001   5.713 -0.2698 -0.5434  0.6539
 4732TIP3   OH235686   4.638   4.962   4.639 -0.1079 -0.1859  0.5618
 4732TIP3    H135687   4.708   4.961   4.704 -0.2334  0.7300  0.7300
 4732TIP3    H235688   4.590   5.042   4.658 -0.0913  0.1448 -0.7138
 4733TIP3   OH235689   2.299   0.801  12.433 -0.0752 -0.2121  0.1382
 4733TIP3    H135690   2.315   0.769  12.345 -1.2180  2.0651 -0.9826
 4733TIP3    H235691   2.380   0.782  12.481  1.4637  0.4943 -2.0190
 4734TIP3   OH235692   2.525   2.566  14.001 -0.2468 -0.4251 -0.3272
 4734TIP3    H135693   2.483   2.622  14.066  0.5243 -1.7854  1.4349
 4734TIP3    H235694   2.613   2.602  13.990  0.7955 -2.0406  1.9630
 4735TIP3   OH235695   1.514   0.835   3.741  0.7931 -0.4566  0.3628
 4735TIP3    H135696   1.462   0.802   3.668  2.8163 -3.4744  0.0960
 4735TIP3    H235697   1.453   0.836   3.815 -0.2264 -1.7368 -0.4170
 4736TIP3   OH235698   0.922   4.013  10.636 -0.0723  0.5722 -0.3208
 4736TIP3    H135699   1.016   3.996  10.636 -0.1848 -0.0861 -0.8368
 4736TIP3    H235700   0.886   3.947  10.696 -0.1919  0.9235 -0.0021
 4737TIP3   OH235701   3.862   0.849  14.274  0.2210  0.2229  0.1024
 4737TIP3    H135702   3.770   0.863  14.252  0.2594  0.5993  0.1643
 4737TIP3    H235703   3.897   0.796  14.202 -0.3432 -1.0043  0.7106
 4738TIP3   OH235704   3.309   2.806   2.267 -0.1860 -0.0819  0.0232
 4738TIP3    H135705   3.261   2.757   2.333  1.5104 -2.7111 -0.5223
 4738TIP3    H235706   3.302   2.753   2.187  1.0369  1.0006 -0.8500
 4739TIP3   OH235707   6.203   6.764  16.083 -0.5908 -0.0662  0.6658
 4739TIP3    H135708   6.225   6.841  16.135  0.9774 -0.8797  1.2505
 4739TIP3    H235709   6.241   6.691  16.131 -1.9365 -1.2101  0.0514
 4740TIP3   OH235710   4.448   4.577   3.025 -0.1283 -0.2143  0.1008
 4740TIP3    H135711   4.431   4.630   3.103 -0.4949 -2.3456  1.5410
 4740TIP3    H235712   4.374   4.596   2.967  0.4253  1.7987 -0.0233
 4741TIP3   OH235713   2.146   2.621  13.274  0.0828  0.9203  0.2790
 4741TIP3    H135714   2.148   2.532  13.239  0.3249  0.6605  0.9386
 4741TIP3    H235715   2.225   2.663  13.239 -0.0186  0.8711 -0.0124
 4742TIP3   OH235716   4.824   1.430   1.489 -0.0380  0.0929 -0.0608
 4742TIP3    H135717   4.805   1.464   1.576  1.0554 -0.1689  0.3000
 4742TIP3    H235718   4.837   1.508   1.435  1.3220  0.2703  0.4998
 4743TIP3   OH235719   4.243   5.150   4.612 -0.1253 -0.1194 -0.2078
 4743TIP3    H135720   4.232   5.218   4.678  1.7844  0.2642 -0.2294
 4743TIP3    H235721   4.303   5.087   4.652 -0.8214 -1.1095 -0.6923
 4744TIP3   OH235722   6.189   1.049  16.581  0.0150 -0.0529  0.2010
 4744TIP3    H135723   6.238   1.129  16.597 -1.2851  0.8331 -0.0587
 4744TIP3    H235724   6.223   1.015  16.499 -0.1551  0.8357 -0.2493
 4745TIP3   OH235725   6.067   3.446   2.542  0.3973  0.0284  0.2369
 4745TIP3    H135726   6.143   3.499   2.566  0.4004 -0.4858  1.4353
 4745TIP3    H235727   6.003   3.510   2.509  1.1499  0.5247 -0.2942
 4746TIP3   OH235728   2.252   3.562  10.767 -0.0102 -0.3487 -0.0066
 4746TIP3    H135729   2.320   3.524  10.822  1.0935  1.3681 -0.1326
 4746TIP3    H235730   2.298   3.597  10.691 -0.8051  2.0005  0.4921
 4747TIP3   OH235731   2.813   0.513   4.423  0.4202  0.2434 -0.2109
 4747TIP3    H135732   2.813   0.440   4.484  3.8890  0.4035  0.1804
 4747TIP3    H235733   2.842   0.475   4.340  0.9316  0.9297 -0.3545
 4748TIP3   OH235734   6.192   0.928   4.889  0.0854 -0.0701 -0.4162
 4748TIP3    H135735   6.217   0.978   4.811  1.0449 -0.0058 -0.0811
 4748TIP3    H235736   6.203   0.837   4.863 -0.2578 -0.0652 -0.5744
 4749TIP3   OH235737   6.770   5.849   2.292 -0.2180 -0.6361 -0.2004
 4749TIP3    H135738   6.768   5.798   2.211 -1.0562 -0.1876 -0.4738
 4749TIP3    H235739   6.756   5.940   2.263 -0.2492 -0.4428  0.4204
 4750TIP3   OH235740   0.223   6.515   5.641 -0.3277 -0.4245  0.4218
 4750TIP3    H135741   0.237   6.420   5.645 -0.6402 -0.4322  2.6590
 4750TIP3    H235742   0.138   6.526   5.599 -1.4396 -1.3113  2.3284
 4751TIP3   OH235743   0.327   5.905  10.973  0.5334  0.4569  0.8378
 4751TIP3    H135744   0.409   5.881  10.929  0.5331  0.4920  0.8187
 4751TIP3    H235745   0.334   5.864  11.060 -1.1237 -2.9557 -0.4460
 4752TIP3   OH235746   3.152   6.269   4.864  0.4845  0.1810 -0.2414
 4752TIP3    H135747   3.154   6.324   4.942 -2.0495 -0.1839  0.1692
 4752TIP3    H235748   3.186   6.185   4.893 -2.7045 -0.7350  1.2724
 4753TIP3   OH235749   2.394   4.855  16.939 -0.4386  0.0880 -0.5475
 4753TIP3    H135750   2.473   4.891  16.897 -0.0317  1.1915  1.0785
 4753TIP3    H235751   2.358   4.928  16.989 -0.4601 -1.3526  1.6402
 4754TIP3   OH235752   3.165   4.402  13.997 -0.3031 -0.1752  0.0255
 4754TIP3    H135753   3.117   4.401  14.079  1.2965  0.4016  1.0152
 4754TIP3    H235754   3.196   4.492  13.988 -0.7802 -0.1352 -1.4215
 4755TIP3   OH235755   0.023   2.675   5.829  0.0889  0.0443 -0.5775
 4755TIP3    H135756  -0.021   2.597   5.862 -0.5032  0.7605  0.3627
 4755TIP3    H235757  -0.012   2.688   5.741 -0.8339  0.0240 -0.2207
 4756TIP3   OH235758   3.985   6.423   1.612 -0.5094 -0.3045 -0.0724
 4756TIP3    H135759   4.017   6.461   1.530  0.4932 -0.0012  0.4398
 4756TIP3    H235760   3.938   6.344   1.585  1.7977 -1.5029 -0.8104
 4757TIP3   OH235761   3.093   0.356  15.833  0.3251 -0.1577  0.0647
 4757TIP3    H135762   3.166   0.295  15.821  2.2657  2.2813 -1.4619
 4757TIP3    H235763   3.124   0.420  15.896 -0.2191  1.3116 -1.1142
 4758TIP3   OH235764   0.540   1.387   0.486  0.3206  0.4239  1.0478
 4758TIP3    H135765   0.576   1.302   0.511 -0.4826 -0.1882  0.2232
 4758TIP3    H235766   0.593   1.415   0.411  0.3596  0.4929  1.1002
 4759TIP3   OH235767   5.089   3.177  17.152  0.2703  0.3703  0.6483
 4759TIP3    H135768   5.059   3.174  17.061  1.3939 -2.0075  0.2607
 4759TIP3    H235769   5.011   3.199  17.203 -0.9715 -0.6757 -0.7186
 4760TIP3   OH235770   2.808   1.512  14.503 -0.2678  0.3162 -0.2732
 4760TIP3    H135771   2.724   1.500  14.459 -0.1425  1.3116 -0.8386
 4760TIP3    H235772   2.788   1.569  14.578 -0.2012  0.0471 -0.0519
 4761TIP3   OH235773   6.283   3.277   5.495 -0.7181  0.3368 -0.0742
 4761TIP3    H135774   6.314   3.262   5.584 -0.0898 -0.5007 -0.4241
 4761TIP3    H235775   6.188   3.274   5.501 -0.6569 -0.7620  0.3944
 4762TIP3   OH235776   5.362   2.131   2.537 -0.1809  0.4626  0.0188
 4762TIP3    H135777   5.440   2.173   2.500 -0.9830  2.2317  0.2274
 4762TIP3    H235778   5.289   2.174   2.494 -1.0816 -1.5811 -0.5962
 4763TIP3   OH235779   2.834   5.947   5.745  0.0105 -0.2878 -0.4818
 4763TIP3    H135780   2.806   5.916   5.831  0.5672 -1.0493 -0.5687
 4763TIP3    H235781   2.822   5.873   5.687  0.7891 -0.1707 -0.8146
 4764TIP3   OH235782   5.425   6.690  12.257  0.5516 -0.5923 -0.1154
 4764TIP3    H135783   5.374   6.627  12.309  0.4683  0.9111  1.6942
 4764TIP3    H235784   5.515   6.678  12.285  0.4985  0.2823  0.4402
 4765TIP3   OH235785   4.017   6.233   4.866 -0.1986  0.0183 -0.7797
 4765TIP3    H135786   4.085   6.299   4.882  1.1166 -1.5956  0.7085
 4765TIP3    H235787   3.956   6.244   4.939  0.0389 -0.4250 -0.5143
 4766TIP3   OH235788   1.600   3.289   0.729 -0.1713 -0.1067 -0.2385
 4766TIP3    H135789   1.521   3.293   0.783 -0.4743 -0.6843 -0.6286
 4766TIP3    H235790   1.654   3.221   0.769  0.0654  0.1875 -0.0562
 4767TIP3   OH235791   3.047   0.808   0.765 -0.9203  0.2021 -0.1997
 4767TIP3    H135792   2.965   0.771   0.731 -2.8273  2.8063  1.1908
 4767TIP3    H235793   3.060   0.888   0.713 -1.1845  1.6055  1.7901
 4768TIP3   OH235794   3.633   6.062  13.808 -0.1439 -0.0904 -0.0999
 4768TIP3    H135795   3.720   6.100  13.818 -1.7789  3.8763  1.4334
 4768TIP3    H235796   3.629   6.035  13.716  1.7439  2.4867 -1.0687
 4769TIP3   OH235797   4.058   3.279   4.903 -0.0657 -0.3594  0.3409
 4769TIP3    H135798   4.132   3.338   4.891 -1.0450  0.5112 -1.8374
 4769TIP3    H235799   4.082   3.199   4.856  0.1652 -0.7411  1.0811
 4770TIP3   OH235800   2.671   6.618   1.474  0.1950 -0.4637 -0.1657
 4770TIP3    H135801   2.673   6.646   1.382  0.4209 -0.0788 -0.0457
 4770TIP3    H235802   2.763   6.611   1.499  0.2052  2.0484  0.8019
 4771TIP3   OH235803   0.915   0.452  17.124 -0.4813 -0.2273 -0.4701
 4771TIP3    H135804   0.971   0.389  17.079  0.3950  0.8983 -1.0324
 4771TIP3    H235805   0.854   0.483  17.058 -2.3587 -2.0122  0.3258
 4772TIP3   OH235806   2.184   4.674   5.283 -0.1662 -0.1055  0.4149
 4772TIP3    H135807   2.163   4.745   5.223  0.0987  0.2254  0.7106
 4772TIP3    H235808   2.208   4.717   5.365  2.3477 -0.4059 -0.0849
 4773TIP3   OH235809   6.374   5.745   4.080 -0.0194  0.2487 -0.8870
 4773TIP3    H135810   6.320   5.672   4.110 -0.1917 -0.9360 -3.8280
 4773TIP3    H235811   6.408   5.784   4.161 -3.7121 -0.0701  1.0511
 4774TIP3   OH235812   1.485   1.158   0.815  0.2721 -0.4738 -0.1427
 4774TIP3    H135813   1.529   1.074   0.825 -0.4504 -0.7394  0.9111
 4774TIP3    H235814   1.480   1.193   0.904  1.8857  1.3827 -0.7021
 4775TIP3   OH235815   2.996   4.056  16.260 -0.2646 -0.0950 -0.1505
 4775TIP3    H135816   3.044   3.993  16.313 -0.0595  0.0261 -0.1910
 4775TIP3    H235817   3.059   4.125  16.242 -1.0894  1.2791  1.8068
 4776TIP3   OH235818   5.764   3.703  13.801 -0.1235 -0.2546 -0.1701
 4776TIP3    H135819   5.702   3.648  13.754  1.4135 -0.2593 -2.3412
 4776TIP3    H235820   5.778   3.778  13.744  0.8560  0.3965  0.8851
 4777TIP3   OH235821   5.330   2.327   4.720 -0.5826  0.0483 -0.5467
 4777TIP3    H135822   5.269   2.256   4.703  2.7241 -3.1466 -0.3689
 4777TIP3    H235823   5.325   2.341   4.814 -1.4766  0.3146 -0.6245
 4778TIP3   OH235824   5.146   3.511  15.729 -0.5398  0.4959  0.5754
 4778TIP3    H135825   5.087   3.584  15.710 -1.6366 -1.0690 -2.6704
 4778TIP3    H235826   5.231   3.540  15.698 -1.2447  0.0057 -2.0546
 4779TIP3   OH235827   2.078   5.585  13.879  0.3557  0.1079  0.4119
 4779TIP3    H135828   2.105   5.673  13.904  1.3132  0.5071 -1.8365
 4779TIP3    H235829   1.983   5.591  13.870  0.1521  0.3259  2.2196
 4780TIP3   OH235830   4.174   2.404   4.429  0.5073 -0.2745 -0.1390
 4780TIP3    H135831   4.149   2.477   4.373  1.9033 -0.1136 -0.5938
 4780TIP3    H235832   4.103   2.340   4.420 -0.2321  0.5908 -0.5277
 4781TIP3   OH235833   2.054   0.749  12.402 -0.1572 -0.3703  0.1503
 4781TIP3    H135834   2.146   0.769  12.420 -0.2340  0.3241 -0.1654
 4781TIP3    H235835   2.052   0.655  12.385  0.4352 -0.4529  0.5148
 4782TIP3   OH235836   5.330   5.982  11.863 -0.2009  0.2172 -0.7656
 4782TIP3    H135837   5.421   5.983  11.893 -0.8255  0.9124  1.2478
 4782TIP3    H235838   5.335   5.951  11.773  1.9133 -1.0611 -0.2858
 4783TIP3   OH235839   3.217   0.483  13.271 -0.0952 -0.1983  0.3151
 4783TIP3    H135840   3.303   0.483  13.313 -0.3112  1.1754  0.8139
 4783TIP3    H235841   3.158   0.518  13.338 -0.8939 -0.3200 -0.3085
 4784TIP3   OH235842   2.229   4.842  11.316  0.2537 -0.2442 -0.1134
 4784TIP3    H135843   2.225   4.916  11.376  0.3159 -1.2672  1.2029
 4784TIP3    H235844   2.227   4.881  11.228 -1.5915  1.2043  0.5226
 4785TIP3   OH235845   1.419   5.457   2.032  0.0989  0.5920  0.5040
 4785TIP3    H135846   1.376   5.479   2.115  0.2990  1.1404  0.4640
 4785TIP3    H235847   1.509   5.434   2.056  0.0843  0.4928  0.4658
 4786TIP3   OH235848   0.721   5.738  11.535 -0.1949  0.2752 -0.5774
 4786TIP3    H135849   0.778   5.757  11.461 -1.5370  0.6654 -1.5545
 4786TIP3    H235850   0.701   5.823  11.574  0.9750  0.0273  0.6370
 4787TIP3   OH235851   5.796   2.283   4.095  0.1583  0.0801  0.2986
 4787TIP3    H135852   5.831   2.241   4.016 -1.2799 -0.7606  0.0748
 4787TIP3    H235853   5.810   2.376   4.081  2.6015 -0.1929  0.3919
 4788TIP3   OH235854   3.871   0.622   5.050 -0.2069 -1.0311 -0.1210
 4788TIP3    H135855   3.872   0.579   5.135 -0.4998 -1.4427 -0.3202
 4788TIP3    H235856   3.956   0.665   5.043 -0.3688 -0.5865  0.5806
 4789TIP3   OH235857   4.394   2.776   0.145  0.3123 -0.0444 -0.2263
 4789TIP3    H135858   4.340   2.699   0.131  1.4081 -0.6479 -1.3377
 4789TIP3    H235859   4.360   2.840   0.081 -1.9779  1.2380  2.0739
 4790TIP3   OH235860   0.476   6.028  12.113 -0.3789  0.9789  0.3960
 4790TIP3    H135861   0.555   5.974  12.118  0.6153  2.1680 -1.2307
 4790TIP3    H235862   0.419   5.995  12.182  1.0505 -0.7109  0.8278
 4791TIP3   OH235863   5.451   3.461   5.681  0.6995  0.2835  0.6013
 4791TIP3    H135864   5.452   3.383   5.736 -2.5823  0.4483  1.1103
 4791TIP3    H235865   5.423   3.429   5.595 -1.2510  0.8936  0.9660
 4792TIP3   OH235866   2.742   0.181  10.992  0.2471  0.0008 -0.1810
 4792TIP3    H135867   2.802   0.219  10.928  1.0383 -0.9224 -0.0117
 4792TIP3    H235868   2.763   0.227  11.074  0.3016  0.1063 -0.2537
 4793TIP3   OH235869   6.460   0.773   3.585 -0.0969  0.2604 -0.4790
 4793TIP3    H135870   6.556   0.771   3.576 -0.0376  1.9924 -0.6256
 4793TIP3    H235871   6.431   0.688   3.554  1.3694 -0.1095 -0.9148
 4794TIP3   OH235872   0.720   0.841  16.689 -0.3706 -0.6628  0.1243
 4794TIP3    H135873   0.641   0.880  16.652  0.9835  1.8920 -0.3114
 4794TIP3    H235874   0.738   0.894  16.766  1.6361 -0.3004 -0.5484
 4795TIP3   OH235875   0.012   0.264  10.818 -0.2010  0.2840 -0.6053
 4795TIP3    H135876   0.003   0.185  10.764  0.6941  0.0671 -0.4420
 4795TIP3    H235877  -0.064   0.317  10.794 -1.7421 -1.3287  0.4987
 4796TIP3   OH235878   3.215   6.362  14.041 -0.1185 -0.5492 -0.1086
 4796TIP3    H135879   3.158   6.300  14.087 -0.1241 -1.1277 -0.8715
 4796TIP3    H235880   3.304   6.332  14.061 -0.0752  0.1572  0.8125
 4797TIP3   OH235881   4.587   0.315  14.569  0.3296  0.0738 -0.4031
 4797TIP3    H135882   4.605   0.408  14.555  0.6544  0.4774  2.2280
 4797TIP3    H235883   4.592   0.276  14.482  3.0551  2.0246 -1.2583
 4798TIP3   OH235884   5.404   4.307  13.877  0.5511 -0.5329 -0.0845
 4798TIP3    H135885   5.445   4.223  13.897  0.7428 -0.7390 -1.3032
 4798TIP3    H235886   5.474   4.359  13.836 -0.1993 -0.6637 -1.5964
 4799TIP3   OH235887   3.222   1.049  12.980 -0.3213  0.0858  0.5842
 4799TIP3    H135888   3.140   1.097  12.992 -0.6088 -0.6070  1.4981
 4799TIP3    H235889   3.200   0.959  13.003  0.1008 -0.6021 -1.4981
 4800TIP3   OH235890   4.322   3.357   4.666  0.1315 -0.4878 -0.3169
 4800TIP3    H135891   4.414   3.357   4.691  1.0702  1.4704 -3.2243
 4800TIP3    H235892   4.286   3.438   4.703  0.5401  0.4940 -1.9843
 4801TIP3   OH235893   6.242   0.521  10.766 -0.1436  0.5245  0.1888
 4801TIP3    H135894   6.175   0.453  10.764  1.8705 -1.6046  0.7827
 4801TIP3    H235895   6.228   0.571  10.685 -2.0956 -0.1652  0.0571
 4802TIP3   OH235896   4.768   4.010  14.117  0.0028  0.4760 -0.4627
 4802TIP3    H135897   4.759   3.996  14.211  1.0879 -2.5707 -0.6932
 4802TIP3    H235898   4.710   4.084  14.098  0.1010  1.4959  2.6229
 4803TIP3   OH235899   5.957   6.255  13.653  0.4717  0.3921 -0.8051
 4803TIP3    H135900   5.905   6.327  13.618  1.3991  1.3402 -0.2673
 4803TIP3    H235901   5.919   6.238  13.740 -0.5193 -0.5998 -1.4074
 4804TIP3   OH235902   5.086   0.338  13.737  0.4256  0.9062  0.5030
 4804TIP3    H135903   5.026   0.333  13.812  0.6466  0.1839  0.6404
 4804TIP3    H235904   5.159   0.390  13.768  0.7284  0.2310  0.9507
 4805TIP3   OH235905   0.269   1.876  14.131  0.4236  0.0901 -0.1742
 4805TIP3    H135906   0.223   1.912  14.206  3.2789  1.6610  0.9835
 4805TIP3    H235907   0.235   1.926  14.056 -1.0092 -0.1084  0.3040
 4806TIP3   OH235908   2.491   2.777   2.308 -0.1595 -0.1722 -0.3548
 4806TIP3    H135909   2.460   2.867   2.309  0.6897  0.2009  3.0026
 4806TIP3    H235910   2.413   2.724   2.292 -0.7623  1.0684 -1.7797
 4807TIP3   OH235911   5.856   2.219   2.544 -0.1157  0.4411 -0.4751
 4807TIP3    H135912   5.772   2.223   2.591  0.7597  0.6804  1.1450
 4807TIP3    H235913   5.832   2.230   2.452 -1.8163  1.1325  0.0005
 4808TIP3   OH235914   1.243   4.373   0.201  0.6526 -0.4821 -0.4484
 4808TIP3    H135915   1.284   4.441   0.148 -1.2819  0.2152 -1.1277
 4808TIP3    H235916   1.178   4.332   0.142  0.4662 -1.6409  0.5193
 4809TIP3   OH235917   4.111   5.506  12.739 -0.2285 -0.1687 -0.0906
 4809TIP3    H135918   4.080   5.483  12.826  0.0651  1.8071  0.5927
 4809TIP3    H235919   4.205   5.517  12.749 -0.2058  0.1556 -0.6210
 4810TIP3   OH235920   5.091   6.074  11.578 -0.0583  0.1422 -0.0892
 4810TIP3    H135921   5.068   5.986  11.607  1.4477 -0.3104 -0.1893
 4810TIP3    H235922   5.168   6.097  11.630  1.0258  0.4161 -1.7531
 4811TIP3   OH235923   4.996   6.129  13.312  0.3469  0.4946 -0.3820
 4811TIP3    H135924   5.030   6.192  13.248 -1.8054  0.8474 -1.2672
 4811TIP3    H235925   5.039   6.047  13.291  2.0414  1.2878 -0.1990
 4812TIP3   OH235926   5.254   6.029  12.657 -0.4862 -0.5358  0.2429
 4812TIP3    H135927   5.244   6.036  12.752 -0.1653 -0.2837  0.2614
 4812TIP3    H235928   5.299   5.946  12.643  1.1272  0.2674  0.4421
 4813TIP3   OH235929   3.350   5.069   6.277 -0.0689  0.1140  0.0370
 4813TIP3    H135930   3.444   5.080   6.290  0.0168 -0.2731 -0.2553
 4813TIP3    H235931   3.311   5.095   6.361  0.4500 -1.8163  0.9306
 4814TIP3   OH235932   6.131   1.085  12.331  0.4580 -0.1161 -0.1882
 4814TIP3    H135933   6.213   1.127  12.305 -1.2353  3.3421 -0.5666
 4814TIP3    H235934   6.071   1.103  12.259 -1.0700 -1.1100  0.7814
 4815TIP3   OH235935   4.476   3.728   3.815  0.0526  0.1124  0.3831
 4815TIP3    H135936   4.485   3.633   3.816  0.6467  0.1519 -0.1498
 4815TIP3    H235937   4.566   3.760   3.814 -0.0616  0.6114 -2.4949
 4816TIP3   OH235938   1.035   6.049   4.977  0.0435 -0.1767  0.3207
 4816TIP3    H135939   1.098   6.099   5.028  2.0198 -2.2472  0.0419
 4816TIP3    H235940   0.959   6.041   5.035 -0.3784  2.9956  0.3890
 4817TIP3   OH235941   0.792   2.822  12.005 -0.5420  0.5078 -0.4618
 4817TIP3    H135942   0.818   2.757  11.939  0.8426  0.4226  0.1152
 4817TIP3    H235943   0.699   2.835  11.991 -0.6423 -0.8675 -1.2455
 4818TIP3   OH235944   5.690   6.016  14.596  0.5996  0.2749  0.1113
 4818TIP3    H135945   5.605   6.037  14.557  0.8225 -0.3976 -0.7579
 4818TIP3    H235946   5.690   6.064  14.679 -0.7635  0.0258  0.2815
 4819TIP3   OH235947   3.457   4.648  13.502  0.3303  0.1498  0.4393
 4819TIP3    H135948   3.419   4.729  13.468  0.9175 -0.2414 -1.3006
 4819TIP3    H235949   3.545   4.673  13.531  0.0547  0.3671  1.0994
 4820TIP3   OH235950   5.830   5.632   5.056 -0.3148 -0.2809  0.2800
 4820TIP3    H135951   5.914   5.606   5.096 -0.1361 -1.5324 -0.8165
 4820TIP3    H235952   5.837   5.727   5.045  0.6859 -0.2722  0.8342
 4821TIP3   OH235953   0.341   3.393   3.989 -0.4794  0.4506 -0.6051
 4821TIP3    H135954   0.250   3.392   3.958 -0.6214  2.8841 -0.4906
 4821TIP3    H235955   0.333   3.384   4.084 -0.5423 -0.0313 -0.6536
 4822TIP3   OH235956   3.723   6.093  12.056 -0.2500  0.1988  0.1463
 4822TIP3    H135957   3.800   6.148  12.068 -1.0996  1.4234  0.2994
 4822TIP3    H235958   3.660   6.151  12.012 -1.1623 -0.6788  0.2643
 4823TIP3   OH235959   3.438   5.389   1.068 -0.2587  0.1577 -0.1405
 4823TIP3    H135960   3.344   5.376   1.058 -0.2770 -0.5488  0.7509
 4823TIP3    H235961   3.467   5.426   0.985 -1.1417 -0.6657 -0.8378
 4824TIP3   OH235962   2.187   0.744  16.400  0.2342 -0.2095 -0.1184
 4824TIP3    H135963   2.197   0.803  16.325 -0.9607  0.8234  0.4880
 4824TIP3    H235964   2.105   0.771  16.440  0.9006 -0.6630  1.6330
 4825TIP3   OH235965   3.824   0.506   3.023  0.3394  0.3115 -0.2408
 4825TIP3    H135966   3.840   0.592   2.984  0.3154  0.2741 -0.3327
 4825TIP3    H235967   3.730   0.505   3.041  0.5367  0.7743  0.8767
 4826TIP3   OH235968   2.162   3.242   2.265  0.0230 -0.2923 -0.2367
 4826TIP3    H135969   2.144   3.295   2.187 -1.8460  1.8574  1.5494
 4826TIP3    H235970   2.224   3.294   2.316 -0.3460 -0.7123  0.6586
 4827TIP3   OH235971   5.537   4.541   2.256  0.2364  0.2675  0.0043
 4827TIP3    H135972   5.460   4.533   2.200  1.4552 -1.7150 -1.5275
 4827TIP3    H235973   5.587   4.613   2.218  1.0942 -1.1151 -1.6176
 4828TIP3   OH235974   3.272   6.790   0.117 -0.1167  0.1838 -0.6751
 4828TIP3    H135975   3.251   6.836   0.035 -0.6055 -1.6026 -1.6171
 4828TIP3    H235976   3.211   6.717   0.119  0.7128 -0.5073  0.6886
 4829TIP3   OH235977   3.837   2.495  13.880  0.2102  0.4201  0.0413
 4829TIP3    H135978   3.780   2.547  13.824  1.4883  1.1338 -0.6512
 4829TIP3    H235979   3.799   2.407  13.880 -0.2736  0.6121 -1.2731
 4830TIP3   OH235980   1.247   6.312  16.913 -0.0443  0.3865  0.7385
 4830TIP3    H135981   1.251   6.381  16.980 -1.0184  0.1237  1.0794
 4830TIP3    H235982   1.197   6.242  16.953  0.0212 -0.0914  0.0057
 4831TIP3   OH235983   6.745   0.959   3.026  0.5768  0.0402  0.1074
 4831TIP3    H135984   6.808   1.030   3.017  0.3090  0.3304  0.4950
 4831TIP3    H235985   6.666   1.001   3.059  0.5571 -0.5025  0.7738
 4832TIP3   OH235986   3.854   2.493  16.381 -0.2378 -0.2479 -0.5122
 4832TIP3    H135987   3.840   2.474  16.288  0.5301 -2.8128 -0.1620
 4832TIP3    H235988   3.920   2.430  16.409  1.3004  1.9880  1.2665
 4833TIP3   OH235989   3.449   6.681   0.323  0.5299  0.3696  0.4519
 4833TIP3    H135990   3.458   6.586   0.319  1.0573  0.4587 -1.2052
 4833TIP3    H235991   3.374   6.701   0.267  0.8472  0.9835  0.2377
 4834TIP3   OH235992   3.349   5.974  11.392 -0.5379 -0.5218  0.4727
 4834TIP3    H135993   3.425   5.964  11.335 -0.5463  1.1382  0.1219
 4834TIP3    H235994   3.385   5.993  11.479 -0.5488 -1.3937  0.6771
 4835TIP3   OH235995   3.694   4.849   1.482 -0.5879 -0.7563 -0.1431
 4835TIP3    H135996   3.747   4.915   1.437 -0.8290 -0.1775  0.4070
 4835TIP3    H235997   3.711   4.768   1.434 -0.4491 -0.2559 -0.9495
 4836TIP3   OH235998   0.758   3.730  16.851 -0.0122 -0.7814  0.0361
 4836TIP3    H135999   0.802   3.740  16.767 -0.1049  0.6135  0.1345
 4836TIP3    H236000   0.828   3.710  16.913  0.6394  1.8999  0.2872
 4837TIP3   OH236001   0.361   5.039  14.057 -0.0877  0.3522 -0.4856
 4837TIP3    H136002   0.419   5.064  14.129  0.2330 -1.1525 -0.1775
 4837TIP3    H236003   0.273   5.062  14.088  0.1472  0.6753 -0.0511
 4838TIP3   OH236004   0.219   2.996  12.848  0.3204  0.3378 -0.0269
 4838TIP3    H136005   0.198   3.089  12.843 -1.0860  0.0697  0.3529
 4838TIP3    H236006   0.247   2.983  12.939 -1.4712  0.0341  0.5087
 4839TIP3   OH236007   4.833   4.197   2.673 -0.2461  0.0334  0.1801
 4839TIP3    H136008   4.916   4.235   2.647 -0.9100  1.2968 -0.1888
 4839TIP3    H236009   4.768   4.265   2.653 -1.2855 -0.6535  1.0840
 4840TIP3   OH236010   2.358   4.134   4.849 -0.2221 -0.3238 -0.2997
 4840TIP3    H136011   2.430   4.196   4.837  1.1312 -1.6105  0.7123
 4840TIP3    H236012   2.329   4.148   4.940 -0.1139 -0.9477 -0.1635
 4841TIP3   OH236013   4.595   4.495  16.986  0.0711 -1.4250 -0.0343
 4841TIP3    H136014   4.558   4.468  16.901  1.6230 -1.5820 -0.6937
 4841TIP3    H236015   4.592   4.590  16.984 -1.2232 -1.4378  0.3685
 4842TIP3   OH236016   5.824   5.727   3.573 -0.9248  0.1780  0.2410
 4842TIP3    H136017   5.744   5.764   3.611 -2.1471 -1.1600 -0.9472
 4842TIP3    H236018   5.817   5.633   3.588 -0.5480 -0.1789 -1.6331
 4843TIP3   OH236019   2.296   0.890   2.420  0.4508 -0.2595 -0.9128
 4843TIP3    H136020   2.329   0.973   2.388  0.4633 -0.4373 -1.3741
 4843TIP3    H236021   2.201   0.894   2.405  0.1475  0.4509  0.8591
 4844TIP3   OH236022   4.398   0.810  11.701 -0.1353 -0.4747 -0.0686
 4844TIP3    H136023   4.349   0.869  11.759 -0.2064  0.0015 -0.6061
 4844TIP3    H236024   4.490   0.823  11.727 -0.0586  0.5705 -0.7852
 4845TIP3   OH236025   0.262   0.564  14.748 -0.3855 -0.0336  0.2060
 4845TIP3    H136026   0.352   0.590  14.725 -0.3571  0.3730  0.7498
 4845TIP3    H236027   0.207   0.616  14.689 -0.3440  1.6419  1.5557
 4846TIP3   OH236028   6.372   1.897  17.094  0.1432 -0.5180  0.4479
 4846TIP3    H136029   6.303   1.834  17.114 -0.1363 -1.0093 -1.8530
 4846TIP3    H236030   6.442   1.844  17.056  0.8629  0.2814  0.6282
 4847TIP3   OH236031   0.837   4.659   3.029  0.5153 -0.3381 -0.4860
 4847TIP3    H136032   0.806   4.728   3.088 -0.7002 -0.1500 -1.3168
 4847TIP3    H236033   0.933   4.669   3.030  0.3517  2.0347 -1.3465
 4848TIP3   OH236034   0.328   5.155   1.028  0.2643  0.2776  0.1447
 4848TIP3    H136035   0.297   5.099   1.099 -0.2893 -1.7900 -1.6176
 4848TIP3    H236036   0.251   5.205   1.002 -0.2488 -0.8931 -0.6757
 4849TIP3   OH236037   2.424   1.628  14.807  0.1683 -0.5238 -0.1986
 4849TIP3    H136038   2.459   1.542  14.783  0.1451 -0.8006  0.7197
 4849TIP3    H236039   2.332   1.624  14.784  0.3489 -0.4212 -0.9782
 4850TIP3   OH236040   6.450   5.099  12.199 -0.3614 -0.1263  0.4802
 4850TIP3    H136041   6.389   5.169  12.175 -1.3780 -1.1753 -0.0767
 4850TIP3    H236042   6.519   5.104  12.132 -1.1769 -0.5527 -0.4225
 4851TIP3   OH236043   1.649   5.914   2.190  0.6414  0.0978 -0.2546
 4851TIP3    H136044   1.592   5.838   2.195 -1.0309  1.2518 -0.9257
 4851TIP3    H236045   1.611   5.977   2.251  1.8036  0.5426  0.0395
 4852TIP3   OH236046   2.799   5.425   0.783  0.1867 -0.0511 -0.6398
 4852TIP3    H136047   2.728   5.446   0.844 -0.8537 -1.0869 -1.4726
 4852TIP3    H236048   2.861   5.375   0.836  0.9667  1.9065  0.4291
 4853TIP3   OH236049   0.409   5.657  15.653  0.4295 -0.0127 -0.0585
 4853TIP3    H136050   0.422   5.587  15.589 -0.4307 -0.2596  0.0125
 4853TIP3    H236051   0.333   5.628  15.704  0.3149  0.7879  0.2389
 4854TIP3   OH236052   2.463   4.211   3.914  0.1195  0.1528  0.1434
 4854TIP3    H136053   2.407   4.137   3.892 -0.5637  0.7545 -0.1606
 4854TIP3    H236054   2.506   4.185   3.996 -1.9739  0.4067  1.3974
 4855TIP3   OH236055   1.064   5.899   0.129  0.3205 -0.3336 -0.4146
 4855TIP3    H136056   1.045   5.820   0.179 -0.0052  1.3331  2.2484
 4855TIP3    H236057   1.156   5.918   0.147  0.1157  0.4719 -0.1728
 4856TIP3   OH236058   6.450   4.350   5.413  0.3891 -0.0998 -0.0519
 4856TIP3    H136059   6.540   4.340   5.382  0.8419 -0.2938  1.2487
 4856TIP3    H236060   6.434   4.444   5.409 -0.1583 -0.2423 -2.3800
 4857TIP3   OH236061   1.623   0.776  11.912  0.3460  0.2080 -0.1252
 4857TIP3    H136062   1.659   0.757  11.825 -1.6141  1.1561 -1.2028
 4857TIP3    H236063   1.657   0.864  11.933  2.8936 -0.9932  1.2964
 4858TIP3   OH236064   1.985   4.275   2.949 -0.1914  0.0338  0.6316
 4858TIP3    H136065   1.957   4.357   2.991  0.3553  0.5221  0.0830
 4858TIP3    H236066   1.980   4.294   2.855 -0.2178 -0.6262  0.4966
 4859TIP3   OH236067   4.904   1.580   4.523  0.0719  0.4814  0.0366
 4859TIP3    H136068   4.902   1.534   4.607 -0.4840  0.5557  0.0660
 4859TIP3    H236069   4.826   1.636   4.524 -1.0537 -0.9527 -1.3406
 4860TIP3   OH236070   6.129   5.310   4.802 -0.3694  1.0225  0.1838
 4860TIP3    H136071   6.159   5.389   4.848 -0.4439  0.5238  1.0982
 4860TIP3    H236072   6.041   5.294   4.836 -0.8708  1.2664 -0.9447
 4861TIP3   OH236073   4.064   1.467  13.169 -0.0984  0.3987 -0.2622
 4861TIP3    H136074   4.133   1.401  13.174 -2.2077 -2.2637 -2.4481
 4861TIP3    H236075   4.088   1.522  13.094  0.6010  0.7626  0.2215
 4862TIP3   OH236076   5.835   0.391   1.444  0.4395  0.1671  0.3538
 4862TIP3    H136077   5.884   0.473   1.447 -0.7576  0.9017  0.6435
 4862TIP3    H236078   5.894   0.329   1.402  1.0641  1.4134 -0.6904
 4863TIP3   OH236079   4.491   2.933   0.624  0.5850  0.3910 -0.0529
 4863TIP3    H136080   4.530   3.020   0.618  0.7958  0.4100  1.2004
 4863TIP3    H236081   4.493   2.899   0.535  1.4525  1.2588 -0.3803
 4864TIP3   OH236082   4.105   4.967   3.953 -0.3200  0.3511  0.1643
 4864TIP3    H136083   4.189   4.933   3.985 -0.8151  0.0153  1.1380
 4864TIP3    H236084   4.123   5.058   3.932 -0.0700  0.7253  1.8706
 4865TIP3   OH236085   0.169   2.874  17.111 -0.0160 -0.4725  0.1283
 4865TIP3    H136086   0.180   2.815  17.037  1.4997  1.2567 -1.0936
 4865TIP3    H236087   0.220   2.951  17.089 -1.1721  0.9520  2.0807
 4866TIP3   OH236088   4.498   0.308  12.322 -0.6153  0.2600 -0.7238
 4866TIP3    H136089   4.434   0.363  12.368 -0.5789  0.7929 -1.2989
 4866TIP3    H236090   4.483   0.327  12.229  1.6534  1.8696 -0.8349
 4867TIP3   OH236091   6.647   3.894   4.620  0.3528 -0.0610 -0.0687
 4867TIP3    H136092   6.676   3.938   4.540 -0.6039 -1.5338 -1.2836
 4867TIP3    H236093   6.571   3.844   4.593 -0.0617 -0.5165  1.8213
 4868TIP3   OH236094   4.136   4.590  14.618 -0.1990 -0.0667 -0.5471
 4868TIP3    H136095   4.153   4.500  14.643 -0.6836 -0.6565 -2.1897
 4868TIP3    H236096   4.205   4.611  14.555 -0.9614  0.1689 -1.3347
 4869TIP3   OH236097   0.396   3.821   3.365  0.0790  0.1438  0.1872
 4869TIP3    H136098   0.356   3.895   3.410 -2.4593 -0.7023 -0.4962
 4869TIP3    H236099   0.379   3.746   3.423 -0.3296 -0.4178 -0.6377
 4870TIP3   OH236100   1.311   0.374   0.099  0.5473  0.4330  0.2412
 4870TIP3    H136101   1.245   0.337   0.157  0.6100 -2.2443 -1.2486
 4870TIP3    H236102   1.369   0.424   0.156  0.9003 -2.4492  2.6442
 4871TIP3   OH236103   3.639   1.455   0.480 -0.2110  0.6810 -0.2834
 4871TIP3    H136104   3.596   1.376   0.514  1.6324 -0.0521  0.4914
 4871TIP3    H236105   3.596   1.472   0.396 -2.5109  0.4880  0.7680
 4872TIP3   OH236106   3.590   4.679  14.343 -0.6435  0.1997  0.2522
 4872TIP3    H136107   3.658   4.620  14.374 -1.4041 -0.8018  0.0805
 4872TIP3    H236108   3.530   4.688  14.417 -1.5765 -0.8512 -0.3502
 4873TIP3   OH236109   5.095   3.888  11.066  0.3516  0.4708 -0.2127
 4873TIP3    H136110   5.117   3.800  11.035  0.0623  0.5602 -0.6787
 4873TIP3    H236111   5.087   3.879  11.161  2.0758  0.3608 -0.0478
 4874TIP3   OH236112   5.291   5.376  10.687  0.5655 -0.1912 -0.2002
 4874TIP3    H136113   5.379   5.353  10.714  0.4949  0.4024  0.5967
 4874TIP3    H236114   5.301   5.458  10.638  0.7167 -1.3706 -2.2286
 4875TIP3   OH236115   4.761   3.915   5.079 -0.1719  0.4931  0.2016
 4875TIP3    H136116   4.766   3.880   5.168 -0.3955 -1.0520 -0.3581
 4875TIP3    H236117   4.679   3.964   5.078  0.7954  2.2594  1.3904
 4876TIP3   OH236118   0.540   3.842   0.551  0.4184  0.0681 -0.4345
 4876TIP3    H136119   0.463   3.887   0.585 -0.3223 -1.3961 -0.1261
 4876TIP3    H236120   0.543   3.868   0.459  0.7280  1.6919 -0.0034
 4877TIP3   OH236121   1.807   6.380   3.242 -0.4437 -0.2132  0.0195
 4877TIP3    H136122   1.783   6.462   3.197  0.1909 -0.0315  0.0055
 4877TIP3    H236123   1.834   6.321   3.172  1.1734  0.2827  0.1897
 4878TIP3   OH236124   2.691   4.166  11.785 -0.0863  0.1124 -0.1266
 4878TIP3    H136125   2.731   4.132  11.865 -0.7454  0.0540  0.1830
 4878TIP3    H236126   2.631   4.097  11.757 -1.4403  0.9792  0.5088
 4879TIP3   OH236127   6.571   1.389   4.889 -0.4314 -0.4382  0.7028
 4879TIP3    H136128   6.615   1.384   4.805  0.7675 -1.1763  1.3454
 4879TIP3    H236129   6.478   1.398   4.867 -0.2635 -1.6474 -0.7058
 4880TIP3   OH236130   5.424   0.189   3.938 -0.5667 -0.2022  0.4194
 4880TIP3    H136131   5.377   0.199   3.855 -1.5230 -0.8833  0.8646
 4880TIP3    H236132   5.447   0.096   3.941  0.6711  0.0736  0.3065
 4881TIP3   OH236133   1.806   4.792   1.783  0.3333 -0.6265  0.4730
 4881TIP3    H136134   1.866   4.851   1.828  0.5487 -0.1995 -0.3424
 4881TIP3    H236135   1.720   4.810   1.822  0.5373 -0.3798  0.8131
 4882TIP3   OH236136   0.654   2.376  12.962  0.1508  0.1324  0.0894
 4882TIP3    H136137   0.691   2.462  12.939  0.1966 -0.2986 -1.5752
 4882TIP3    H236138   0.666   2.370  13.057  0.2897  1.8937  0.2328
 4883TIP3   OH236139   0.025   3.469   4.533 -0.5086 -0.1598 -0.1433
 4883TIP3    H136140  -0.002   3.511   4.451  1.5701  4.0447  1.0240
 4883TIP3    H236141   0.009   3.535   4.600  0.8168 -2.2119  2.3745
 4884TIP3   OH236142   3.974   1.527  17.117 -0.5749 -0.5080  0.4352
 4884TIP3    H136143   3.946   1.598  17.060 -0.5211 -1.7276 -1.1800
 4884TIP3    H236144   4.000   1.570  17.198 -0.8642  1.2667 -0.3706
 4885TIP3   OH236145   3.037   4.975  16.788 -0.4530 -0.4984  0.2390
 4885TIP3    H136146   3.116   5.026  16.806 -1.3330  0.8508  0.3348
 4885TIP3    H236147   3.070   4.895  16.746  1.0784 -0.6834  1.7023
 4886TIP3   OH236148   1.289   6.149   4.864 -0.4494 -0.3700  0.1419
 4886TIP3    H136149   1.282   6.244   4.861  1.4782 -0.2168 -2.1254
 4886TIP3    H236150   1.208   6.117   4.824 -1.1927  0.2704  1.0934
 4887TIP3   OH236151   2.765   3.539  15.893  0.2121 -0.3126  0.4026
 4887TIP3    H136152   2.731   3.601  15.957  0.1349  0.5000 -0.4045
 4887TIP3    H236153   2.860   3.548  15.899  0.2757 -1.6024  1.7056
 4888TIP3   OH236154   6.612   2.758   2.330  0.7971  0.1464 -0.4825
 4888TIP3    H136155   6.559   2.826   2.372  0.1267 -0.1169 -0.9023
 4888TIP3    H236156   6.698   2.767   2.372  0.4310  0.5725  0.2070
 4889TIP3   OH236157   5.698   1.654  11.959  0.0664 -0.0824  0.4877
 4889TIP3    H136158   5.651   1.701  12.028  0.0231  0.7252 -0.0896
 4889TIP3    H236159   5.771   1.612  12.005 -0.3005 -0.0478  1.1205
 4890TIP3   OH236160   4.690   5.669  17.084  0.1593  0.2555 -0.2146
 4890TIP3    H136161   4.667   5.724  17.159  2.4089 -0.4398  1.0973
 4890TIP3    H236162   4.705   5.730  17.013  2.0158  1.3836  1.0526
 4891TIP3   OH236163   6.308   6.222  12.741  0.2678 -1.0056  0.5991
 4891TIP3    H136164   6.350   6.231  12.827  1.4088 -1.4796  0.1185
 4891TIP3    H236165   6.343   6.140  12.706  0.6334 -0.3015 -0.7453
 4892TIP3   OH236166   4.301   1.427  12.245 -0.4261  0.1559 -0.5965
 4892TIP3    H136167   4.273   1.361  12.182  1.5080 -0.5430 -0.7667
 4892TIP3    H236168   4.257   1.403  12.326 -2.5206  0.7530 -1.4599
 4893TIP3   OH236169   1.713   0.792  12.651 -0.0866  0.0118  0.4438
 4893TIP3    H136170   1.789   0.846  12.630 -0.2683  0.3869  0.7264
 4893TIP3    H236171   1.642   0.829  12.599 -0.4628  0.7412  1.4326
 4894TIP3   OH236172   6.170   4.970   4.879 -0.0994 -0.3198  0.0263
 4894TIP3    H136173   6.169   4.931   4.967 -0.0605 -1.7208 -0.5693
 4894TIP3    H236174   6.086   5.015   4.872  0.5778  1.2779  1.3849
 4895TIP3   OH236175   6.747   4.617  16.487  0.3207 -0.6456  0.4838
 4895TIP3    H136176   6.670   4.576  16.525  0.2214 -1.2493 -0.3331
 4895TIP3    H236177   6.801   4.641  16.562 -2.1789  3.0271  1.3887
 4896TIP3   OH236178   2.605   0.430  14.303  0.1094  0.1648 -0.4179
 4896TIP3    H136179   2.652   0.348  14.317  0.3302  0.0217 -1.8305
 4896TIP3    H236180   2.547   0.438  14.379 -1.3272 -2.2789 -1.1368
 4897TIP3   OH236181   2.747   3.739   0.312  0.8440  0.2022 -0.0093
 4897TIP3    H136182   2.741   3.644   0.325 -2.4258  0.1933 -0.7470
 4897TIP3    H236183   2.752   3.776   0.400  1.4232 -0.6027  0.3051
 4898TIP3   OH236184   2.346   2.863   6.518  0.1281  1.0526 -0.9270
 4898TIP3    H136185   2.412   2.932   6.510  0.6314  0.6921  0.0303
 4898TIP3    H236186   2.384   2.788   6.471  0.2742  0.9336 -0.6182
 4899TIP3   OH236187   2.762   5.191  13.920  0.0578  0.5150  0.1776
 4899TIP3    H136188   2.787   5.152  14.003  1.4804  0.3022 -0.3179
 4899TIP3    H236189   2.674   5.158  13.902  0.6260 -1.2527  0.5114
 4900TIP3   OH236190   1.304   0.002   5.003  0.4269  0.2392  0.9403
 4900TIP3    H136191   1.321  -0.083   5.044  0.2430 -0.3597 -0.1906
 4900TIP3    H236192   1.391   0.035   4.981  0.5659  0.8258  2.2834
 4901TIP3   OH236193   0.453   4.552  11.068  0.2152 -0.0605 -0.2676
 4901TIP3    H136194   0.459   4.552  11.164  1.8146  1.0404 -0.3262
 4901TIP3    H236195   0.539   4.583  11.039 -1.2111  2.6134 -1.9857
 4902TIP3   OH236196   0.094   6.574  16.349 -0.4349  0.3358 -0.4239
 4902TIP3    H136197   0.005   6.572  16.386 -0.9996 -0.1656 -1.7366
 4902TIP3    H236198   0.151   6.583  16.425 -1.6110  0.6939  0.4542
 4903TIP3   OH236199   3.407   1.567  15.235 -0.0154 -0.2149  0.0511
 4903TIP3    H136200   3.432   1.507  15.304  0.3576  0.4407  0.4914
 4903TIP3    H236201   3.490   1.602  15.202 -0.1525 -0.8547 -1.0484
 4904TIP3   OH236202   3.908   4.137   2.913 -0.5039  0.0695  0.3557
 4904TIP3    H136203   3.862   4.090   2.982 -0.2584  0.2153  0.6189
 4904TIP3    H236204   3.992   4.091   2.903 -0.8512 -0.4294 -0.3859
 4905TIP3   OH236205   1.281   4.259  11.652  0.0192  0.0822  0.2780
 4905TIP3    H136206   1.205   4.314  11.671  0.8935  1.2564  0.4976
 4905TIP3    H236207   1.267   4.230  11.561 -0.7701  0.1322  0.3758
 4906TIP3   OH236208   3.485   6.762  11.740 -0.5971 -0.2982 -0.0238
 4906TIP3    H136209   3.393   6.787  11.743 -0.3154  0.7357  1.7962
 4906TIP3    H236210   3.505   6.731  11.828  0.9702  0.2504 -0.1375
 4907TIP3   OH236211   0.329   5.299  11.142 -0.1573  0.5328 -0.2398
 4907TIP3    H136212   0.386   5.375  11.152  0.8249 -0.0363 -1.3265
 4907TIP3    H236213   0.386   5.224  11.159 -1.1507  0.0104  0.9787
 4908TIP3   OH236214   2.443   5.349   0.768 -0.2141 -0.0172 -0.5279
 4908TIP3    H136215   2.518   5.387   0.814 -0.9930  1.2632 -0.2653
 4908TIP3    H236216   2.412   5.280   0.827  1.4980 -1.4558 -1.2207
 4909TIP3   OH236217   1.021   3.466  16.586  0.0242  0.4556 -0.8461
 4909TIP3    H136218   1.064   3.550  16.570  2.3277 -0.7694 -1.5683
 4909TIP3    H236219   1.078   3.421  16.648 -0.2041 -1.2316 -1.7962
 4910TIP3   OH236220   6.124   6.558  13.541  0.3685 -0.0805 -0.1011
 4910TIP3    H136221   6.058   6.528  13.479 -0.0802 -0.6845  0.6500
 4910TIP3    H236222   6.205   6.515  13.514  0.6579  1.2449 -1.4826
 4911TIP3   OH236223   1.769   3.677  15.795  0.3936  0.1424  0.1389
 4911TIP3    H136224   1.854   3.631  15.797  0.9569  1.1426 -0.1641
 4911TIP3    H236225   1.706   3.612  15.827  1.1444 -0.8849 -0.4091
 4912TIP3   OH236226   6.137   0.848   1.941 -0.5022  0.0107  0.9644
 4912TIP3    H136227   6.180   0.841   1.856 -0.1787  0.1240  1.1155
 4912TIP3    H236228   6.059   0.794   1.933  0.3563 -1.3130  1.1167
 4913TIP3   OH236229   4.030   5.101  12.250 -0.2492  0.6263  0.2370
 4913TIP3    H136230   4.042   5.195  12.232 -0.8062  0.7425  0.4607
 4913TIP3    H236231   4.097   5.082  12.316 -0.8555  1.1330  1.0204
 4914TIP3   OH236232   3.651   2.319  15.746  0.2987 -0.0716  0.3449
 4914TIP3    H136233   3.654   2.225  15.730  0.6095 -0.2445  1.3490
 4914TIP3    H236234   3.610   2.355  15.667 -0.3947 -1.1069  0.2034
 4915TIP3   OH236235   5.792   1.087   0.990 -0.3265 -0.2908 -0.1455
 4915TIP3    H136236   5.841   1.163   0.959 -0.0557 -0.0762  0.7908
 4915TIP3    H236237   5.760   1.112   1.076 -1.0361 -0.8960 -0.2191
 4916TIP3   OH236238   6.115   6.302  10.872 -0.0559 -0.3174  0.1569
 4916TIP3    H136239   6.146   6.223  10.828 -0.5344 -0.3826 -0.0769
 4916TIP3    H236240   6.027   6.279  10.903 -0.7752  0.5358 -1.1051
 4917TIP3   OH236241   1.467   5.543   4.815 -0.7363  0.1403  0.1620
 4917TIP3    H136242   1.466   5.635   4.841  0.2717  0.1728  0.1479
 4917TIP3    H236243   1.504   5.543   4.727  1.0645 -0.4012  0.8632
 4918TIP3   OH236244   3.030   3.139  14.262 -0.4072 -0.2532  0.5859
 4918TIP3    H136245   2.988   3.107  14.182 -0.9760  0.5670  0.5390
 4918TIP3    H236246   2.985   3.093  14.333  1.4711 -2.5356  0.3980
 4919TIP3   OH236247   0.095   5.323   0.411 -0.6468 -0.3027 -0.4603
 4919TIP3    H136248   0.110   5.238   0.370  3.0544  0.0728 -0.2088
 4919TIP3    H236249   0.150   5.322   0.489 -2.8613  1.2731  1.2717
 4920TIP3   OH236250   4.286   4.353   1.997  0.1564 -0.0696 -0.0022
 4920TIP3    H136251   4.199   4.312   1.988  0.2244  0.1809 -2.2694
 4920TIP3    H236252   4.346   4.292   1.956  0.7210  0.8501 -0.5721
 4921TIP3   OH236253   1.340   0.038   3.808 -0.0971  0.0164 -0.2506
 4921TIP3    H136254   1.428   0.076   3.808  0.2054 -0.6589  0.2707
 4921TIP3    H236255   1.349  -0.043   3.757  0.4650 -1.9194  2.6959
 4922TIP3   OH236256   1.899   6.127  17.146  0.0034 -0.2561  0.0583
 4922TIP3    H136257   1.938   6.040  17.145  0.2302 -0.2479  2.1708
 4922TIP3    H236258   1.806   6.112  17.128 -0.0117 -0.9816  0.6934
 4923TIP3   OH236259   2.729   1.589   5.702 -0.4434 -0.1132 -0.4475
 4923TIP3    H136260   2.762   1.510   5.658  0.0175 -0.7561  0.9808
 4923TIP3    H236261   2.667   1.627   5.640 -2.7570 -3.0612 -0.1795
 4924TIP3   OH236262   1.866   5.569   3.207  0.1595  0.8690  0.0845
 4924TIP3    H136263   1.950   5.531   3.234 -0.6535 -0.2165  1.2433
 4924TIP3    H236264   1.840   5.623   3.281 -0.2797  0.9864 -0.1577
 4925TIP3   OH236265   2.802   0.212  14.629 -0.2366  0.3793  0.2852
 4925TIP3    H136266   2.724   0.158  14.614  1.3143 -1.9788  0.0868
 4925TIP3    H236267   2.875   0.150  14.622  1.6857  2.5402  0.1725
 4926TIP3   OH236268   5.069   5.028  14.402  0.5796 -0.3200 -0.0300
 4926TIP3    H136269   5.082   4.962  14.470 -0.6903  0.8848  1.4570
 4926TIP3    H236270   5.140   5.091  14.415  1.5433 -1.1301 -1.1782
 4927TIP3   OH236271   6.766   4.687   3.646  0.7848  0.3809 -0.2624
 4927TIP3    H136272   6.816   4.692   3.728 -0.7167  3.7871  0.6233
 4927TIP3    H236273   6.833   4.693   3.577  1.9768 -1.1372  0.6993
 4928TIP3   OH236274   6.554   4.899  15.319  0.8161 -0.7636 -0.0430
 4928TIP3    H136275   6.642   4.885  15.356  0.3414 -2.4081  0.5840
 4928TIP3    H236276   6.495   4.865  15.386 -0.1546 -2.3610 -1.6241
 4929TIP3   OH236277   1.685   3.912   4.383  0.0738  0.5706 -0.1168
 4929TIP3    H136278   1.697   4.003   4.359 -0.4048  0.3278 -1.3462
 4929TIP3    H236279   1.755   3.865   4.338  0.4633  0.3468  0.6960
 4930TIP3   OH236280   1.242   4.323  14.607  0.0531 -0.2133  0.1488
 4930TIP3    H136281   1.320   4.284  14.566  2.3488  1.5737  2.5086
 4930TIP3    H236282   1.230   4.272  14.687 -1.9406 -1.1315 -0.6751
 4931TIP3   OH236283   5.374   2.158  13.435  0.0394  0.2672  0.1523
 4931TIP3    H136284   5.452   2.144  13.381 -0.4703  0.0654 -0.5551
 4931TIP3    H236285   5.368   2.253  13.445 -1.5719  0.6349 -2.8407
 4932TIP3   OH236286   2.511   4.658   4.424 -0.5448  0.1798  0.3035
 4932TIP3    H136287   2.450   4.605   4.374  1.3021 -0.6053 -1.2585
 4932TIP3    H236288   2.572   4.595   4.463  1.4217  1.0256 -1.2180
 4933TIP3   OH236289   4.110   6.343   2.399  0.6962 -0.0392 -0.0811
 4933TIP3    H136290   4.065   6.337   2.484  1.7094  1.5355  0.5987
 4933TIP3    H236291   4.080   6.266   2.351 -1.0804 -0.1556  1.1315
 4934TIP3   OH236292   5.497   2.489   4.029 -0.4077 -0.1421  0.1639
 4934TIP3    H136293   5.488   2.498   4.123 -0.6302 -0.1514  0.1442
 4934TIP3    H236294   5.414   2.520   3.993  0.1282  1.0603 -0.1010
 4935TIP3   OH236295   6.369   0.011  12.468 -0.0549  0.4839 -0.1593
 4935TIP3    H136296   6.303  -0.028  12.411 -0.0967 -0.5223  0.5586
 4935TIP3    H236297   6.389  -0.057  12.532  0.5551  1.3204  0.5642
 4936TIP3   OH236298   3.233   1.157   0.536 -0.3860 -0.4192  0.3242
 4936TIP3    H136299   3.153   1.146   0.586 -1.5665  1.6124 -0.9697
 4936TIP3    H236300   3.299   1.180   0.601 -1.4686  0.4065  1.1735
 4937TIP3   OH236301   5.553   2.699   5.511  0.8914 -0.2542 -0.1678
 4937TIP3    H136302   5.617   2.642   5.554  0.2744 -1.1138 -0.3605
 4937TIP3    H236303   5.567   2.684   5.418 -0.6813 -1.7393 -0.2083
 4938TIP3   OH236304   5.091   5.381  14.833 -0.3973 -0.3957 -0.3197
 4938TIP3    H136305   5.018   5.338  14.876 -0.1021  0.1371  0.7469
 4938TIP3    H236306   5.066   5.474  14.831  0.9046  0.0397  1.4977
 4939TIP3   OH236307   1.044   5.196  13.570 -0.0387  0.0705 -0.1958
 4939TIP3    H136308   0.970   5.139  13.551  0.3144 -0.3951 -0.1827
 4939TIP3    H236309   1.041   5.264  13.503 -0.4539  0.0302 -0.2169
 4940TIP3   OH236310   5.944   3.679   5.069  0.1100 -0.0322 -0.4745
 4940TIP3    H136311   5.996   3.752   5.102 -0.2174  0.4455 -0.9811
 4940TIP3    H236312   5.913   3.634   5.147 -1.6023  1.7414 -0.0350
 4941TIP3   OH236313   5.085   4.794   1.673  0.0253 -0.5940  0.5799
 4941TIP3    H136314   5.050   4.752   1.752  0.2465  2.2081  2.3318
 4941TIP3    H236315   5.156   4.850   1.706 -0.1579  1.0167 -1.5279
 4942TIP3   OH236316   2.943   6.036   1.240 -0.1751  0.3353  0.1676
 4942TIP3    H136317   2.998   5.987   1.179 -0.3007  0.4404 -0.0323
 4942TIP3    H236318   2.858   6.040   1.197  0.0752  1.5406 -0.2609
 4943TIP3   OH236319   4.478   0.244  12.790 -0.0113  0.3505  0.6655
 4943TIP3    H136320   4.395   0.255  12.836 -1.4919  0.1300 -1.8023
 4943TIP3    H236321   4.454   0.212  12.704  2.6445  0.5052 -0.2246
 4944TIP3   OH236322   3.016   6.796  16.627  0.3004 -0.4289 -0.1723
 4944TIP3    H136323   3.016   6.866  16.561 -2.4974  0.5117  0.6880
 4944TIP3    H236324   2.924   6.773  16.638  0.8477 -1.9074  2.0588
 4945TIP3   OH236325   5.741   4.065   4.019  0.0815  0.0784 -0.1405
 4945TIP3    H136326   5.741   4.152   3.980  1.0145  0.7137  1.2090
 4945TIP3    H236327   5.795   4.012   3.960 -1.6941 -0.0162 -1.7690
 4946TIP3   OH236328   6.726   2.292  14.925 -0.2058  0.1831  0.5230
 4946TIP3    H136329   6.767   2.221  14.875  0.1953 -0.2942  1.5075
 4946TIP3    H236330   6.646   2.254  14.960 -1.2717  0.9650 -0.9656
 4947TIP3   OH236331   3.006   0.082  14.830  0.0560 -0.4094 -0.0711
 4947TIP3    H136332   2.962   0.146  14.886  0.6721  0.3660 -0.4495
 4947TIP3    H236333   3.051   0.023  14.890 -0.2128 -0.2651  0.2718
 4948TIP3   OH236334   6.722   0.685   5.901 -0.3586  0.6660 -0.6582
 4948TIP3    H136335   6.723   0.597   5.938  2.3107 -1.2430 -4.5135
 4948TIP3    H236336   6.631   0.698   5.873 -0.3798 -2.1801 -2.3829
 4949TIP3   OH236337   0.546   5.615  14.793  0.4146  0.3236  0.0456
 4949TIP3    H136338   0.620   5.641  14.738  0.6705  0.2591  0.3575
 4949TIP3    H236339   0.495   5.696  14.803  0.4088  0.3541 -0.2192
 4950TIP3   OH236340   0.857   6.278  10.436  0.0252 -0.3086  0.7162
 4950TIP3    H136341   0.795   6.330  10.385  0.7294 -0.7810 -0.6664
 4950TIP3    H236342   0.929   6.338  10.455  1.1019 -0.8496 -1.3622
 4951TIP3   OH236343   0.286   5.583   5.039  0.0231 -0.4691  0.0438
 4951TIP3    H136344   0.296   5.528   4.962 -1.1698  0.4412 -0.8025
 4951TIP3    H236345   0.299   5.673   5.007 -0.8544 -0.0448  0.7982
 4952TIP3   OH236346   0.516   5.987  16.525 -0.1795 -0.0780 -0.0560
 4952TIP3    H136347   0.503   5.912  16.584 -0.1410  0.2487  0.3754
 4952TIP3    H236348   0.485   6.062  16.575 -1.8412 -0.0014 -1.1183
 4953TIP3   OH236349   4.570   6.431   2.083  0.2801  0.5002  0.3577
 4953TIP3    H136350   4.552   6.491   2.156 -2.4414 -0.0167  0.2345
 4953TIP3    H236351   4.536   6.476   2.006  0.5329 -0.1458 -0.1429
 4954TIP3   OH236352   3.768   4.046   3.920 -0.0759  0.0983 -0.2993
 4954TIP3    H136353   3.813   3.966   3.947 -0.5974  0.0981  0.6223
 4954TIP3    H236354   3.692   4.051   3.978  0.3164  1.6158  0.1426
 4955TIP3   OH236355   4.069   2.675  15.456 -0.6216  0.5785  0.2487
 4955TIP3    H136356   4.112   2.698  15.374 -2.2671  0.8262 -0.5747
 4955TIP3    H236357   4.121   2.602  15.490 -0.7358 -0.5151 -1.7554
 4956TIP3   OH236358   6.695   5.208  12.369  0.2345 -0.3062  0.0134
 4956TIP3    H136359   6.661   5.214  12.279 -0.3316  0.2919  0.2557
 4956TIP3    H236360   6.748   5.287  12.380  0.3412 -0.4026  0.1918
 4957TIP3   OH236361   4.030   4.807  16.882  0.5990 -0.2225  0.1003
 4957TIP3    H136362   4.055   4.748  16.811 -1.6461  0.7105 -1.5774
 4957TIP3    H236363   3.972   4.755  16.938  0.2358 -0.1997 -0.2512
 4958TIP3   OH236364   2.930   3.430   2.016  0.0425  0.0025  0.0553
 4958TIP3    H136365   2.863   3.497   2.003 -0.2416 -0.2753  0.0621
 4958TIP3    H236366   2.896   3.354   1.970  0.1064 -0.2959  0.4916
 4959TIP3   OH236367   2.088   0.294  15.587  0.1683  0.1071  0.0255
 4959TIP3    H136368   2.152   0.253  15.528  0.7812 -0.0576  0.7952
 4959TIP3    H236369   2.140   0.353  15.641 -0.7153  2.0580 -1.1547
 4960TIP3   OH236370   4.156   3.667  12.093  0.0165  0.0696  0.1083
 4960TIP3    H136371   4.078   3.708  12.057  0.4528  1.8432  1.0410
 4960TIP3    H236372   4.214   3.741  12.114  1.0244 -1.0726  1.5186
 4961TIP3   OH236373   3.630   6.301  16.538  0.7301  0.3863  0.1736
 4961TIP3    H136374   3.658   6.301  16.446 -0.6351 -2.0113 -0.3352
 4961TIP3    H236375   3.704   6.264  16.586  1.3744  1.4657  0.0336
 4962TIP3   OH236376   2.165   3.067   5.395  0.0962 -0.0985  0.0297
 4962TIP3    H136377   2.159   3.158   5.423 -0.2993 -0.4409  1.1195
 4962TIP3    H236378   2.236   3.065   5.331 -1.4834  1.4232 -1.9272
 4963TIP3   OH236379   6.282   6.774  12.114 -0.3076  0.0619 -0.0164
 4963TIP3    H136380   6.305   6.685  12.086  0.6074 -0.1527  1.3411
 4963TIP3    H236381   6.204   6.762  12.169  0.2127  0.0132  0.7155
 4964TIP3   OH236382   3.380   4.683   5.905 -0.2464  0.1413 -0.2507
 4964TIP3    H136383   3.349   4.636   5.982  0.9799  0.5604  0.5295
 4964TIP3    H236384   3.386   4.774   5.933  1.3757  0.1286 -0.4149
 4965TIP3   OH236385   2.646   5.995  16.082  0.1996  0.8752  0.9341
 4965TIP3    H136386   2.688   5.976  16.166 -1.1094 -0.5390  1.3065
 4965TIP3    H236387   2.613   5.910  16.052  1.4788  1.1550 -1.5004
 4966TIP3   OH236388   2.712   6.735   2.968 -0.1409  0.0387  0.1559
 4966TIP3    H136389   2.685   6.820   2.936  0.1756 -0.3543 -1.2076
 4966TIP3    H236390   2.700   6.675   2.894  1.2905 -0.7627  0.5210
 4967TIP3   OH236391   4.185   5.653   3.514  0.6168  0.1151  0.7796
 4967TIP3    H136392   4.271   5.611   3.510 -0.5469 -2.3702 -0.3600
 4967TIP3    H236393   4.178   5.698   3.430  0.3559 -0.6988  0.3542
 4968TIP3   OH236394   6.008   5.690  11.273  0.1037 -0.2734  0.0215
 4968TIP3    H136395   5.950   5.762  11.298  0.8626  0.1101  0.7227
 4968TIP3    H236396   6.094   5.715  11.308  1.0598 -0.1119 -2.2413
 4969TIP3   OH236397   6.567   1.184   1.398 -0.2817 -0.0849  0.1184
 4969TIP3    H136398   6.599   1.266   1.360 -1.0318  0.6927  1.1001
 4969TIP3    H236399   6.483   1.207   1.438 -0.9069 -1.5308 -0.2891
 4970TIP3   OH236400   4.672   5.268   4.439  0.2899 -0.3226  0.5105
 4970TIP3    H136401   4.595   5.318   4.414  0.4019 -0.2956  0.2035
 4970TIP3    H236402   4.659   5.245   4.531  0.5090  0.7722  0.8232
 4971TIP3   OH236403   3.914   4.125  16.307 -0.0812 -0.0758  0.0095
 4971TIP3    H136404   3.895   4.064  16.379 -1.4211 -0.3052 -0.5184
 4971TIP3    H236405   3.863   4.204  16.329  2.3688  1.3142  1.1974
 4972TIP3   OH236406   3.865   3.221   3.529 -0.1777  0.0795 -0.2961
 4972TIP3    H136407   3.875   3.128   3.510 -0.9798  0.0275 -0.5133
 4972TIP3    H236408   3.882   3.228   3.623  0.0325 -0.2657 -0.3072
 4973TIP3   OH236409   3.683   5.414   1.583  0.2841 -0.4013  0.0115
 4973TIP3    H136410   3.622   5.443   1.650 -0.6446 -1.2139 -0.4477
 4973TIP3    H236411   3.757   5.474   1.589 -1.8063  2.5440 -1.3755
 4974TIP3   OH236412   2.314   5.407  14.379  0.1565 -0.0004  0.2479
 4974TIP3    H136413   2.380   5.445  14.321 -0.6183 -0.4966 -0.9752
 4974TIP3    H236414   2.234   5.455  14.359 -0.2363 -0.5278  0.5411
 4975TIP3   OH236415   3.847   4.228  13.684  0.4800  0.3687 -0.6149
 4975TIP3    H136416   3.825   4.136  13.690 -1.8493  0.9062 -0.2071
 4975TIP3    H236417   3.772   4.274  13.721  1.1511  2.4823 -1.7053
 4976TIP3   OH236418   4.852   0.164   2.070 -0.0191  0.2031  0.4399
 4976TIP3    H136419   4.862   0.170   2.165  0.2509  1.9634  0.3333
 4976TIP3    H236420   4.937   0.192   2.035 -0.1992 -0.1933 -0.3401
 4977TIP3   OH236421   2.678   4.616   6.074  0.0625 -0.9507  0.3822
 4977TIP3    H136422   2.668   4.667   6.154  2.6463 -1.5809  1.2149
 4977TIP3    H236423   2.708   4.530   6.105  0.2376 -1.4865 -1.2119
 4978TIP3   OH236424   2.631   5.584   4.065  0.1067 -0.0403  0.2342
 4978TIP3    H136425   2.614   5.678   4.075  1.2831  0.4135 -1.6708
 4978TIP3    H236426   2.721   5.572   4.096  0.2857 -0.3667 -0.3985
 4979TIP3   OH236427   0.029   4.500  15.865  0.1563 -0.3787  1.3003
 4979TIP3    H136428   0.038   4.414  15.824 -0.9507 -1.0480  2.4064
 4979TIP3    H236429  -0.056   4.498  15.909 -0.3815  1.6659  0.4967
 4980TIP3   OH236430   0.385   2.264  13.141  0.0940  0.0813  0.8975
 4980TIP3    H136431   0.481   2.265  13.133 -0.0066 -1.0548 -1.2749
 4980TIP3    H236432   0.362   2.171  13.134 -1.2676  0.4977 -1.2084
 4981TIP3   OH236433   4.517   0.670  16.134 -0.5596  0.1477  0.3846
 4981TIP3    H136434   4.583   0.641  16.197 -1.2047 -0.2378  0.8838
 4981TIP3    H236435   4.437   0.681  16.185 -1.4709 -1.5618 -0.5708
 4982TIP3   OH236436   1.675   1.655   1.971  0.0718  0.2385 -0.2230
 4982TIP3    H136437   1.679   1.608   1.888 -1.5894 -1.7918  0.7395
 4982TIP3    H236438   1.767   1.666   1.997  0.6186  0.7758 -2.1855
 4983TIP3   OH236439   2.163   4.116  11.043  0.5266 -0.3448  0.0921
 4983TIP3    H136440   2.120   4.099  11.127  1.2398 -1.1169  0.3216
 4983TIP3    H236441   2.101   4.083  10.977  0.4051 -0.6886  0.3757
 4984TIP3   OH236442   2.149   6.506  12.847  0.0533  0.2170  0.3432
 4984TIP3    H136443   2.182   6.423  12.881  0.7918  0.9116  1.3772
 4984TIP3    H236444   2.058   6.486  12.821 -0.6564 -0.3295  2.9550
 4985TIP3   OH236445   4.624   4.371   3.024  0.5275  0.2471 -0.1098
 4985TIP3    H136446   4.604   4.462   3.046  1.2754  0.2371  0.6603
 4985TIP3    H236447   4.539   4.326   3.028  0.0980  0.9728 -0.8572
 4986TIP3   OH236448   2.695   6.679   4.096  0.1710  0.0880 -0.4514
 4986TIP3    H136449   2.599   6.683   4.086 -0.0376  1.4471  1.5872
 4986TIP3    H236450   2.726   6.765   4.069  0.5653  0.4012  0.9204
 4987TIP3   OH236451   6.210   5.209   0.535 -0.2565  0.0205  0.0414
 4987TIP3    H136452   6.304   5.227   0.532 -0.5758  2.1520  0.7008
 4987TIP3    H236453   6.189   5.211   0.629 -1.0785  0.4329 -0.1387
 4988TIP3   OH236454   2.830   4.206   5.508  0.5853 -0.1730 -0.0057
 4988TIP3    H136455   2.896   4.272   5.484  1.1510 -0.5167  0.5759
 4988TIP3    H236456   2.748   4.242   5.475  1.0200  0.3960 -0.5052
 4989TIP3   OH236457   3.172   4.888   1.135  0.0478 -0.2077 -0.5092
 4989TIP3    H136458   3.171   4.938   1.053  0.2302  0.6544  0.0009
 4989TIP3    H236459   3.263   4.893   1.165  0.0659 -0.8454 -0.4468
 4990TIP3   OH236460   1.347   2.982   4.381 -0.2779 -0.5318 -0.2794
 4990TIP3    H136461   1.305   2.936   4.308 -0.0870 -0.0388 -0.7133
 4990TIP3    H236462   1.418   2.924   4.408 -1.6683 -1.7190  0.9535
 4991TIP3   OH236463   0.299   4.908   0.158 -0.0900  0.4726  0.4384
 4991TIP3    H136464   0.355   4.843   0.201 -0.9544 -1.1481 -0.7690
 4991TIP3    H236465   0.360   4.976   0.128  0.8779  0.0807  1.4469
 4992TIP3   OH236466   6.446   4.471   4.389 -0.4718  0.1994 -0.7381
 4992TIP3    H136467   6.438   4.400   4.452 -0.7812  0.5527 -0.3693
 4992TIP3    H236468   6.481   4.545   4.440 -2.5436  1.0905 -0.4830
 4993TIP3   OH236469   4.269   0.985   4.829 -0.2456  0.1769  0.3119
 4993TIP3    H136470   4.339   0.932   4.868  1.5047  2.0234 -0.1883
 4993TIP3    H236471   4.246   1.048   4.898 -0.5783  0.3506  0.0442
 4994TIP3   OH236472   4.397   4.118  14.550  0.7622 -0.3613 -0.0538
 4994TIP3    H136473   4.403   4.110  14.645  0.3953  0.3612  0.0361
 4994TIP3    H236474   4.333   4.052  14.524 -0.7741  0.8663  0.4509
 4995TIP3   OH236475   6.430   1.834   3.729  0.2877 -0.3067  0.2103
 4995TIP3    H136476   6.341   1.870   3.723  0.3424 -0.4260 -2.9634
 4995TIP3    H236477   6.484   1.908   3.757 -0.2157  1.1306 -2.2723
 4996TIP3   OH236478   5.898   0.631   0.445  0.5730 -0.3367 -0.1476
 4996TIP3    H136479   5.924   0.722   0.460  1.0676 -0.5554  0.3411
 4996TIP3    H236480   5.813   0.623   0.489  0.6461 -0.1831  0.0192
 4997TIP3   OH236481   0.950   5.868  14.376  0.4196  0.6354 -0.1507
 4997TIP3    H136482   0.903   5.786  14.390  1.6230  0.1276  1.1317
 4997TIP3    H236483   0.952   5.878  14.281 -2.4723  0.8510 -0.2983
 4998TIP3   OH236484   0.374   5.941   4.586  0.2087 -0.0695  0.7353
 4998TIP3    H136485   0.398   5.950   4.494  1.4450  0.1664  1.0575
 4998TIP3    H236486   0.377   6.031   4.620 -0.6990 -0.0987  0.8986
 4999TIP3   OH236487   2.267   1.755  12.080 -0.1845 -0.5404  0.3807
 4999TIP3    H136488   2.359   1.737  12.059 -0.4417 -0.5140 -0.8220
 4999TIP3    H236489   2.245   1.833  12.029 -0.8021 -0.3835  0.8733
 5000TIP3   OH236490   6.496   6.711   4.645  0.6046  0.0722 -0.5088
 5000TIP3    H136491   6.506   6.636   4.703  0.4959  0.1712 -0.3586
 5000TIP3    H236492   6.533   6.683   4.562 -2.0924 -1.1982 -1.3762
 5001TIP3   OH236493   3.897   6.187  11.791  0.1807  0.4911  0.8622
 5001TIP3    H136494   3.943   6.227  11.717 -0.3230 -0.2298  0.1244
 5001TIP3    H236495   3.849   6.259  11.832 -0.3143  0.7439 -0.1244
 5002TIP3   OH236496   4.809   5.507  15.381  0.0685 -0.2020  0.7059
 5002TIP3    H136497   4.804   5.425  15.332  1.0794 -0.6023  1.2408
 5002TIP3    H236498   4.721   5.544  15.376 -0.6077 -1.7012  1.1193
 5003TIP3   OH236499   4.546   0.349   0.294  0.2548 -0.4404  0.3975
 5003TIP3    H136500   4.573   0.300   0.371  0.4008 -1.1026 -0.0677
 5003TIP3    H236501   4.624   0.354   0.240  0.2047  0.1921  0.3714
 5004TIP3   OH236502   2.339   6.788   2.139  0.1153 -0.4506  0.5098
 5004TIP3    H136503   2.266   6.850   2.142  1.9880  1.9046  0.2484
 5004TIP3    H236504   2.403   6.829   2.082  1.4939 -2.6712  0.3421
 5005TIP3   OH236505   1.721   0.962   1.329 -0.2992  0.0726 -0.3346
 5005TIP3    H136506   1.764   0.886   1.367  0.2313 -0.4337 -1.8691
 5005TIP3    H236507   1.666   0.997   1.399 -2.0537 -2.8364 -0.1056
 5006TIP3   OH236508   3.664   6.462   1.761  0.0612  0.3939 -0.9375
 5006TIP3    H136509   3.709   6.404   1.699  1.0347  1.7219 -1.5143
 5006TIP3    H236510   3.606   6.515   1.706 -1.4516 -0.5742 -0.3156
 5007TIP3   OH236511   1.990   0.267   6.462 -0.3576  0.1013  0.2051
 5007TIP3    H136512   2.011   0.360   6.458 -0.3320  0.0564 -1.7507
 5007TIP3    H236513   2.069   0.225   6.496  0.2584  0.6377 -0.5414
 5008TIP3   OH236514   2.294   6.655   0.231 -0.5306 -0.0130 -0.0385
 5008TIP3    H136515   2.294   6.642   0.326 -1.1408  1.2145  0.1405
 5008TIP3    H236516   2.271   6.568   0.196  1.8839 -1.0723  0.8025
 5009TIP3   OH236517   2.386   0.215  11.884 -1.1529 -0.0973  0.4504
 5009TIP3    H136518   2.352   0.257  11.963  1.3122 -0.9704  2.0663
 5009TIP3    H236519   2.322   0.147  11.864 -1.8909  0.2156  1.6157
 5010TIP3   OH236520   1.772   1.538  10.995  0.2651  0.0935 -0.5066
 5010TIP3    H136521   1.806   1.625  11.017  0.4445 -0.1555  0.2335
 5010TIP3    H236522   1.677   1.551  10.986  0.1456  0.1581  0.7184
 5011TIP3   OH236523   5.515   6.733  13.678  0.6514 -0.1338 -0.6461
 5011TIP3    H136524   5.460   6.811  13.689  0.8057  0.2859 -2.4337
 5011TIP3    H236525   5.474   6.685  13.606 -0.6077 -2.8168  1.7062
 5012TIP3   OH236526   5.537   4.112   0.929  0.2659  0.1768 -0.1398
 5012TIP3    H136527   5.486   4.046   0.976  1.0418 -2.8856 -3.1738
 5012TIP3    H236528   5.473   4.159   0.876  0.1174 -1.4767 -1.5205
 5013TIP3   OH236529   4.874   3.728   6.090 -0.0338  0.3848 -0.1143
 5013TIP3    H136530   4.896   3.645   6.131  0.6948 -0.9469 -2.9431
 5013TIP3    H236531   4.905   3.795   6.151  0.7612 -1.4234  1.5375
 5014TIP3   OH236532   0.138   0.265  12.992  0.0452  0.2372  0.0065
 5014TIP3    H136533   0.125   0.227  13.079  1.0254  0.5562  0.3000
 5014TIP3    H236534   0.092   0.348  12.996  0.2278  0.3277  0.2799
 5015TIP3   OH236535   2.934   3.353   2.287 -0.7734 -0.2432 -0.5939
 5015TIP3    H136536   3.027   3.334   2.298 -0.3926  1.9810  0.7826
 5015TIP3    H236537   2.923   3.373   2.195  0.2802  0.2014 -0.6289
 5016TIP3   OH236538   4.654   3.500  14.557 -0.5464 -0.1997 -0.5921
 5016TIP3    H136539   4.606   3.418  14.547 -2.0917  0.4313  1.1553
 5016TIP3    H236540   4.587   3.568  14.553  0.2660  0.7691  1.2348
 5017TIP3   OH236541   6.373   2.815   3.497 -0.1636 -0.3631 -0.8137
 5017TIP3    H136542   6.367   2.907   3.522 -2.3044 -0.8634  0.8109
 5017TIP3    H236543   6.464   2.803   3.469  0.3085  2.0809 -0.5152
 5018TIP3   OH236544   3.490   2.733   5.832  0.0649  0.5855 -0.2879
 5018TIP3    H136545   3.411   2.759   5.784 -0.4089  0.5239  0.4359
 5018TIP3    H236546   3.503   2.803   5.897 -0.0968  0.0048  0.3880
 5019TIP3   OH236547   5.960   0.033   0.929  0.2288 -0.4089  0.1710
 5019TIP3    H136548   5.878   0.081   0.921 -1.0968 -2.4861  0.4273
 5019TIP3    H236549   6.009   0.054   0.850 -0.7671  0.4825 -0.2283
 5020TIP3   OH236550   6.679   1.407   1.245 -0.4538 -0.4398  1.0273
 5020TIP3    H136551   6.734   1.483   1.266  1.3508 -1.9954  2.2695
 5020TIP3    H236552   6.639   1.429   1.161  2.3641  0.6848 -0.1478
 5021TIP3   OH236553   5.106   4.962  12.957 -0.4681  0.1688 -0.0336
 5021TIP3    H136554   5.089   4.951  13.051 -2.1368  1.7646 -0.0918
 5021TIP3    H236555   5.179   5.023  12.953 -0.6044  0.3564  0.2443
 5022TIP3   OH236556   4.122   1.924   2.634  0.1809 -0.0755  0.1115
 5022TIP3    H136557   4.104   1.963   2.548  0.4199  0.1256  0.1530
 5022TIP3    H236558   4.041   1.878   2.656  0.1425 -0.1930 -0.2556
 5023TIP3   OH236559   3.199   3.441  13.836 -0.2637 -0.0196  0.3854
 5023TIP3    H136560   3.126   3.502  13.826  0.6158  1.0574  0.5052
 5023TIP3    H236561   3.186   3.378  13.765 -1.8459 -0.4195  0.9804
 5024TIP3   OH236562   4.964   2.844  14.490  0.4278  0.4152 -0.3590
 5024TIP3    H136563   5.018   2.787  14.435  0.3623 -0.5067  0.4964
 5024TIP3    H236564   4.881   2.852  14.444  0.6943  0.4242 -0.8412
 5025TIP3   OH236565   0.413   0.730  14.350  0.6846 -0.3638 -0.7415
 5025TIP3    H136566   0.425   0.806  14.406  2.0188 -1.2929  0.2929
 5025TIP3    H236567   0.356   0.761  14.279  0.6167  1.3787  0.0310
 5026TIP3   OH236568   4.225   4.963  12.397 -0.3041 -0.5279  0.0973
 5026TIP3    H136569   4.165   4.908  12.448 -0.7023  0.4727  0.7373
 5026TIP3    H236570   4.255   5.030  12.459 -1.2669  1.0938 -1.1047
 5027TIP3   OH236571   1.317   5.127  12.425 -0.1308  0.1455  0.2006
 5027TIP3    H136572   1.370   5.069  12.481 -0.1913 -0.2549 -0.1578
 5027TIP3    H236573   1.234   5.081  12.414 -1.6232  1.9103  2.9196
 5028TIP3   OH236574   2.354   1.769   6.933 -0.5206 -0.0315  0.0562
 5028TIP3    H136575   2.391   1.681   6.931 -0.1254  0.0711  1.6424
 5028TIP3    H236576   2.430   1.827   6.925 -0.7925  0.1989 -1.1337
 5029TIP3   OH236577   3.475   0.320  17.125  0.0172  0.1832 -0.8635
 5029TIP3    H136578   3.478   0.374  17.204 -0.2943 -0.2060 -0.5770
 5029TIP3    H236579   3.561   0.280  17.120 -0.1520 -0.2515 -0.3850
 5030TIP3   OH236580   1.093   1.983  13.196 -0.3617 -0.0655  0.1171
 5030TIP3    H136581   1.176   1.979  13.149 -0.3577  1.9167 -0.1575
 5030TIP3    H236582   1.079   1.895  13.230  1.7565 -0.4790  0.0048
 5031TIP3   OH236583   1.032   1.796  10.821  0.2643 -0.1497  0.1247
 5031TIP3    H136584   0.977   1.873  10.836  1.6717  0.6660  1.3769
 5031TIP3    H236585   1.046   1.796  10.726  0.5092  1.3697  0.1221
 5032TIP3   OH236586   5.062   0.566  16.770 -0.6271 -0.3148  0.2176
 5032TIP3    H136587   5.102   0.558  16.857 -0.5105 -0.8252  0.1198
 5032TIP3    H236588   5.069   0.478  16.733 -1.0703 -0.1986 -0.1373
 5033TIP3   OH236589   6.191   4.674   6.026  0.2166  0.0791  0.0508
 5033TIP3    H136590   6.166   4.605   6.088 -0.3479  0.4109  0.2051
 5033TIP3    H236591   6.107   4.711   5.997  0.4507 -0.4171 -1.3194
 5034TIP3   OH236592   2.022   1.569  12.273 -0.1173 -0.2131  0.0595
 5034TIP3    H136593   1.974   1.492  12.244 -0.0996 -0.2093  0.0200
 5034TIP3    H236594   1.958   1.639  12.273  0.1718  0.0903 -1.2588
 5035TIP3   OH236595   5.914   6.429  12.204  0.1375  0.4607  0.2190
 5035TIP3    H136596   5.902   6.335  12.193  2.2155  0.0178  1.2169
 5035TIP3    H236597   5.920   6.463  12.115 -1.1106 -0.2572 -0.1564
 5036TIP3   OH236598   2.057   3.428  13.408 -0.7504 -0.2110 -0.4844
 5036TIP3    H136599   2.120   3.421  13.479  0.3098  1.8303 -1.1521
 5036TIP3    H236600   2.033   3.521  13.405  0.1067  0.0342 -3.4591
 5037TIP3   OH236601   5.558   1.193  11.512 -0.4070 -0.2011 -0.9338
 5037TIP3    H136602   5.470   1.226  11.530 -0.4553 -1.0708  0.6291
 5037TIP3    H236603   5.600   1.263  11.462 -0.6915  1.9781  1.6652
 5038TIP3   OH236604   1.817   4.008   4.878 -0.2238  0.5125 -0.0279
 5038TIP3    H136605   1.843   3.917   4.865  2.1722  1.3349 -1.4874
 5038TIP3    H236606   1.782   4.036   4.794 -0.9438  0.9851  0.4090
 5039TIP3   OH236607   2.651   1.385  12.064 -0.0098 -0.2841  0.9172
 5039TIP3    H136608   2.574   1.436  12.090  0.6511  0.5961  1.1955
 5039TIP3    H236609   2.649   1.387  11.968  0.8439  1.6150  0.8983
 5040TIP3   OH236610   6.037   0.875   5.710 -0.2675 -0.0446  0.4622
 5040TIP3    H136611   6.067   0.845   5.796 -0.0098  0.0579  0.4101
 5040TIP3    H236612   5.950   0.911   5.727  0.0042  0.4815  0.7895
 5041TIP3   OH236613   1.252   5.359   2.788 -0.5345  0.2992 -0.4350
 5041TIP3    H136614   1.244   5.450   2.816 -1.4351 -0.1929  0.9774
 5041TIP3    H236615   1.170   5.341   2.742  0.0684  0.4767 -1.6248
 5042TIP3   OH236616   5.546   4.213  14.956  0.0495 -0.2260  0.4929
 5042TIP3    H136617   5.513   4.266  15.028  1.1720 -1.2184  1.8014
 5042TIP3    H236618   5.637   4.194  14.980  0.1096 -1.5211 -0.6221
 5043TIP3   OH236619   6.723   5.303   4.050  0.2156 -0.3357 -0.0785
 5043TIP3    H136620   6.742   5.217   4.011  1.1349 -0.3306  0.3485
 5043TIP3    H236621   6.725   5.288   4.144 -0.5934 -0.0406 -0.0013
 5044TIP3   OH236622   4.800   0.388  16.148 -0.2956  0.3691 -0.2359
 5044TIP3    H136623   4.881   0.426  16.182 -0.6801  0.8024  0.2092
 5044TIP3    H236624   4.735   0.407  16.215 -0.8358  0.3040 -0.7363
 5045TIP3   OH236625   6.029   6.571   0.697  0.1438  0.2420 -0.2436
 5045TIP3    H136626   6.086   6.647   0.708 -2.8410  2.5453  0.8265
 5045TIP3    H236627   5.973   6.572   0.774 -1.3914 -1.8114 -1.2297
 5046TIP3   OH236628   5.963   2.938   2.464  0.0033  0.0288  0.1139
 5046TIP3    H136629   5.914   2.876   2.519 -0.8313  0.5221 -0.0475
 5046TIP3    H236630   5.929   2.923   2.376  0.6795 -0.1242 -0.1268
 5047TIP3   OH236631   5.519   4.282   0.657 -0.0315 -0.4584 -0.2806
 5047TIP3    H136632   5.569   4.349   0.704  0.6610 -0.8091 -0.5154
 5047TIP3    H236633   5.440   4.270   0.710  0.1451  0.0641  0.1146
 5048TIP3   OH236634   0.265   5.494  17.226  0.5850  0.1728  0.2109
 5048TIP3    H136635   0.253   5.536  17.311 -1.1177 -0.3738  0.2666
 5048TIP3    H236636   0.243   5.402  17.241  1.2688 -0.1356 -0.5969
 5049TIP3   OH236637   3.688   5.087  16.621  0.1841  0.0609  0.0924
 5049TIP3    H136638   3.779   5.074  16.647 -0.3627  1.5331  3.0865
 5049TIP3    H236639   3.652   5.148  16.685 -3.8684 -2.9717  1.1074
 5050TIP3   OH236640   0.708   4.626   0.713 -0.6422  0.1686 -0.3758
 5050TIP3    H136641   0.774   4.563   0.743  0.3063  1.0444 -0.5475
 5050TIP3    H236642   0.692   4.603   0.622  0.5047  0.8034 -0.7608
 5051TIP3   OH236643   0.975   6.401   4.197  0.3023  0.2133 -0.2474
 5051TIP3    H136644   1.006   6.315   4.226 -0.4345 -0.0464 -0.2095
 5051TIP3    H236645   0.880   6.391   4.191  0.3078  0.6459 -1.4718
 5052TIP3   OH236646   3.235   6.210   2.045  0.2874  0.0646 -0.7895
 5052TIP3    H136647   3.218   6.214   1.951  0.8059  1.7055 -0.8604
 5052TIP3    H236648   3.315   6.263   2.056 -0.6557  1.2352  0.7377
 5053TIP3   OH236649   0.745   0.800  13.138  0.2547 -0.3042  0.2951
 5053TIP3    H136650   0.824   0.750  13.158  1.0892  0.7504 -0.2331
 5053TIP3    H236651   0.716   0.767  13.053  0.1230 -0.6965  0.4917
 5054TIP3   OH236652   3.861   3.760  15.131 -0.1640  0.0792 -0.1885
 5054TIP3    H136653   3.796   3.822  15.097 -0.2933  0.0956  0.0814
 5054TIP3    H236654   3.887   3.707  15.056 -0.2350  0.3021 -0.3697
 5055TIP3   OH236655   0.935   5.562   4.959  0.0315  0.1324  0.3298
 5055TIP3    H136656   1.011   5.591   5.008  0.3858 -2.1269  1.2487
 5055TIP3    H236657   0.971   5.532   4.875  0.2819 -1.5206  1.0034
 5056TIP3   OH236658   2.348   4.380   2.915 -0.0077 -0.5433  0.2413
 5056TIP3    H136659   2.297   4.460   2.926 -1.8313 -1.5473 -0.5518
 5056TIP3    H236660   2.363   4.373   2.821  1.2198 -0.5194  0.4168
 5057TIP3   OH236661   1.443   5.849   3.062  0.2264  0.1051 -0.0693
 5057TIP3    H136662   1.474   5.896   2.985  0.0561 -0.9553 -0.7999
 5057TIP3    H236663   1.518   5.848   3.121  0.6132  0.2313 -0.5518
 5058TIP3   OH236664   2.135   4.366  16.506 -0.3254  0.4864 -0.2590
 5058TIP3    H136665   2.223   4.376  16.471 -0.5061  1.6826 -0.3934
 5058TIP3    H236666   2.083   4.336  16.432  0.4781 -3.2511  0.4515
 5059TIP3   OH236667   4.877   4.651   1.483 -0.5945  0.0211  0.1058
 5059TIP3    H136668   4.934   4.727   1.480 -1.5129  0.6966 -0.8460
 5059TIP3    H236669   4.826   4.655   1.402 -1.1829 -1.1909  0.3875
 5060TIP3   OH236670   2.783   4.734   2.002 -0.8321 -0.0212  0.2222
 5060TIP3    H136671   2.874   4.710   1.983  0.1555  2.0662  1.9366
 5060TIP3    H236672   2.736   4.714   1.921  1.6716  1.4397 -1.7516
 5061TIP3   OH236673   0.144   1.024   4.516  0.2942 -0.2966 -0.5529
 5061TIP3    H136674   0.089   1.045   4.592 -0.0778  0.5723 -1.0346
 5061TIP3    H236675   0.195   0.948   4.542  0.0206 -0.1328  0.4937
 5062TIP3   OH236676   5.250   2.703   2.581  0.0014  0.4644 -0.4044
 5062TIP3    H136677   5.197   2.678   2.505 -0.5458 -0.1199  0.1470
 5062TIP3    H236678   5.295   2.622   2.605  0.6516  0.8047 -0.4824
 5063TIP3   OH236679   3.807   5.714  14.335 -0.2730 -0.3030 -0.1271
 5063TIP3    H136680   3.737   5.746  14.391 -0.3052  0.0226 -0.3464
 5063TIP3    H236681   3.786   5.749  14.248  1.2940  1.6345  0.2069
 5064TIP3   OH236682   5.973   1.701  12.970 -0.2628  0.0712 -0.3763
 5064TIP3    H136683   6.068   1.704  12.973 -0.2639 -0.6932  0.8705
 5064TIP3    H236684   5.948   1.632  13.031 -1.6908  1.3827  0.6088
 5065TIP3   OH236685   3.019   6.763   3.492 -0.6926  0.3178  0.1271
 5065TIP3    H136686   2.935   6.721   3.476 -0.2465 -0.5978  0.0970
 5065TIP3    H236687   3.013   6.795   3.582 -0.8105 -0.4145  0.3897
 5066TIP3   OH236688   5.669   0.953  14.547  0.0688  0.3764  0.0604
 5066TIP3    H136689   5.663   0.934  14.641 -2.6041 -0.7768 -0.2436
 5066TIP3    H236690   5.622   0.881  14.506  0.1525  1.4844 -2.0915
 5067TIP3   OH236691   2.697   3.038  12.393 -0.6772 -1.2289  0.5319
 5067TIP3    H136692   2.691   3.124  12.352 -2.8875 -1.5486  0.0489
 5067TIP3    H236693   2.790   3.017  12.391 -0.3358  0.1738 -1.3565
 5068TIP3   OH236694   6.290   5.386  16.309  0.2105 -0.1522 -0.0290
 5068TIP3    H136695   6.197   5.380  16.286  0.7920 -0.5726 -2.6311
 5068TIP3    H236696   6.328   5.443  16.242  1.9718 -0.6067  0.5241
 5069TIP3   OH236697   2.921   6.390   1.455  0.0364  0.2769  0.2393
 5069TIP3    H136698   2.903   6.303   1.489  2.2716 -0.8296 -1.1292
 5069TIP3    H236699   2.889   6.388   1.365 -0.4478  1.1033  0.3844
 5070TIP3   OH236700   3.565   0.187  15.669 -0.0117 -0.4930 -0.0004
 5070TIP3    H136701   3.556   0.153  15.758  1.1981 -0.3270  0.2121
 5070TIP3    H236702   3.530   0.275  15.673  2.9312  0.7586  1.1891
 5071TIP3   OH236703   0.448   6.804  13.361  0.7911  0.1845  0.0612
 5071TIP3    H136704   0.435   6.710  13.352 -1.9539  0.4713  0.3290
 5071TIP3    H236705   0.485   6.815  13.448 -2.0106 -0.4953  1.4439
 5072TIP3   OH236706   0.332   4.441  14.759  0.3321  0.6406 -0.3746
 5072TIP3    H136707   0.373   4.460  14.675  0.8797  1.8352  0.1508
 5072TIP3    H236708   0.298   4.525  14.790  1.2865  0.4974  1.2048
 5073TIP3   OH236709   6.217   3.331  14.258 -0.0676 -0.7150 -0.2141
 5073TIP3    H136710   6.251   3.258  14.207 -0.3635 -1.1955  0.2584
 5073TIP3    H236711   6.160   3.379  14.197 -1.3325 -1.9369 -0.0468
 5074TIP3   OH236712   6.816   4.057  16.926  0.0887 -0.8893  0.0489
 5074TIP3    H136713   6.799   4.069  16.833 -0.4674  0.6442  0.3242
 5074TIP3    H236714   6.882   4.123  16.948 -2.3480  1.2855  1.4194
 5075TIP3   OH236715   2.490   2.383   1.995  0.0052  0.6451 -0.3547
 5075TIP3    H136716   2.453   2.320   1.934  0.1661  1.2859 -1.1285
 5075TIP3    H236717   2.530   2.330   2.064 -0.4645 -0.0787 -0.6353
 5076TIP3   OH236718   3.470   1.591   4.401 -0.2566  0.1890 -0.1068
 5076TIP3    H136719   3.465   1.631   4.314 -1.6648 -0.4196 -0.3352
 5076TIP3    H236720   3.446   1.500   4.387  0.9980 -0.2937  0.7061
 5077TIP3   OH236721   3.608   4.588   1.800  0.0134 -0.2440 -0.0169
 5077TIP3    H136722   3.681   4.594   1.738  0.1159 -1.5759 -0.0573
 5077TIP3    H236723   3.619   4.664   1.857  1.4623 -0.4355 -0.0021
 5078TIP3   OH236724   2.421   4.408  12.417  0.0807 -0.5228  0.0659
 5078TIP3    H136725   2.353   4.350  12.382  0.3680  0.2096 -1.7997
 5078TIP3    H236726   2.453   4.456  12.341  2.1741 -0.2959  1.0269
 5079TIP3   OH236727   4.540   5.055  13.003  0.1280 -0.5492  0.0830
 5079TIP3    H136728   4.632   5.075  12.986  0.1346 -0.3674  0.3234
 5079TIP3    H236729   4.492   5.125  12.960  0.1520  0.0151  0.9464
 5080TIP3   OH236730   5.148   2.681   3.279  0.1741  0.4519  0.1555
 5080TIP3    H136731   5.129   2.642   3.194  1.7873 -0.9392  0.3794
 5080TIP3    H236732   5.197   2.761   3.259 -1.0289  1.1159 -0.2387
 5081TIP3   OH236733   0.556   5.188   2.059 -0.0073  0.2001  0.6485
 5081TIP3    H136734   0.570   5.226   1.972 -1.6428  1.3760  0.8404
 5081TIP3    H236735   0.581   5.097   2.049 -0.4802  0.2163 -1.1801
 5082TIP3   OH236736   1.877   3.032  15.435 -1.4127 -0.0580 -0.1873
 5082TIP3    H136737   1.818   3.044  15.361 -2.6915 -0.1638  0.7768
 5082TIP3    H236738   1.833   2.967  15.490 -0.7603  0.4279  0.9405
 5083TIP3   OH236739   2.834   6.674  11.982 -0.0104  0.2898  0.0244
 5083TIP3    H136740   2.784   6.754  11.971  0.2291  0.5885  0.9869
 5083TIP3    H236741   2.768   6.606  11.996 -0.1631  0.7337  1.5995
 5084TIP3   OH236742   1.932   6.261   6.543  0.4498  0.5854  0.5524
 5084TIP3    H136743   1.968   6.175   6.563 -1.7802 -1.0176 -1.7772
 5084TIP3    H236744   2.002   6.305   6.494  0.7872 -0.7970 -0.2386
 5085TIP3   OH236745   1.947   1.603   2.738 -0.0964  0.3820 -0.4324
 5085TIP3    H136746   1.932   1.551   2.658 -1.5213  0.3085 -0.1539
 5085TIP3    H236747   1.876   1.667   2.738 -0.1495  0.3488  0.8046
 5086TIP3   OH236748   3.756   1.708   3.106  0.1364 -0.8449  0.3413
 5086TIP3    H136749   3.668   1.688   3.074  0.4045 -0.9474 -0.3445
 5086TIP3    H236750   3.813   1.647   3.059  0.4667 -1.5032  1.5621
 5087TIP3   OH236751   2.182   0.569   2.237  0.3284 -0.3841  0.4088
 5087TIP3    H136752   2.134   0.651   2.248 -1.0374 -0.6757 -2.4014
 5087TIP3    H236753   2.247   0.587   2.169 -1.0711 -1.9054 -1.4885
 5088TIP3   OH236754   1.197   4.433  16.281 -0.0093  0.2556 -0.6563
 5088TIP3    H136755   1.102   4.425  16.266  0.0737  0.8628 -1.5951
 5088TIP3    H236756   1.206   4.430  16.376 -0.9232 -0.3124 -0.5710
 5089TIP3   OH236757   0.552   1.279  15.032  0.5336  0.1173  0.2350
 5089TIP3    H136758   0.483   1.222  15.065 -0.6730  0.1754 -1.9707
 5089TIP3    H236759   0.634   1.235  15.056 -0.3314 -1.4965  0.3542
 5090TIP3   OH236760   5.037   3.260   4.389  0.8877  0.5609  0.5727
 5090TIP3    H136761   5.054   3.345   4.429  2.7342 -0.6759  2.6395
 5090TIP3    H236762   5.065   3.196   4.455 -0.1912 -1.6726 -0.9955
 5091TIP3   OH236763   5.387   2.350  14.866 -0.6083 -0.0228  0.4283
 5091TIP3    H136764   5.459   2.404  14.900 -0.9152 -0.1374  1.2673
 5091TIP3    H236765   5.323   2.414  14.834  0.4453  0.0995 -1.6695
 5092TIP3   OH236766   5.581   3.559  14.140 -0.3739  0.2381 -0.9793
 5092TIP3    H136767   5.512   3.498  14.112 -0.3701  0.3222 -1.1730
 5092TIP3    H236768   5.661   3.506  14.139 -0.9357 -1.0909  3.2417
 5093TIP3   OH236769   5.420   1.131  13.579  0.9685 -0.1045  0.0250
 5093TIP3    H136770   5.373   1.151  13.660  0.4895 -0.7038 -0.0924
 5093TIP3    H236771   5.364   1.167  13.510  2.2312  2.0048  0.0137
 5094TIP3   OH236772   4.049   4.234  16.616 -0.3867  0.2181  0.0008
 5094TIP3    H136773   4.132   4.194  16.639 -0.3773 -0.8233 -1.7309
 5094TIP3    H236774   3.999   4.164  16.574 -1.8845  1.0004  0.4038
 5095TIP3   OH236775   5.930   1.403   1.342  0.3857  0.3616 -0.4955
 5095TIP3    H136776   5.989   1.426   1.270 -0.6095  1.6765 -0.9461
 5095TIP3    H236777   5.905   1.487   1.380 -0.9627 -0.1714 -0.1424
 5096TIP3   OH236778   3.259   2.380   3.687 -0.1493  0.2352 -0.2437
 5096TIP3    H136779   3.285   2.374   3.780  0.9329 -0.4673 -0.5695
 5096TIP3    H236780   3.285   2.296   3.650  1.7176  1.3911 -1.7207
 5097TIP3   OH236781   1.547   2.587   0.794  0.5593  0.4712  0.3053
 5097TIP3    H136782   1.538   2.623   0.706  0.3397  0.8646  0.4847
 5097TIP3    H236783   1.623   2.633   0.831 -0.5065  1.7510  1.0048
 5098TIP3   OH236784   1.256   4.296  16.979  0.2118 -0.8848 -0.4123
 5098TIP3    H136785   1.231   4.380  16.942  0.1209 -1.1558 -0.9848
 5098TIP3    H236786   1.337   4.273  16.934 -0.2016 -1.4838 -0.8873
 5099TIP3   OH236787   6.477   6.345   5.480 -0.9918  0.7487  0.0867
 5099TIP3    H136788   6.517   6.310   5.559 -0.3025  0.8633 -0.2079
 5099TIP3    H236789   6.416   6.412   5.511  0.2838  1.7709  0.4490
 5100TIP3   OH236790   2.938   2.621   2.627  0.2729  0.1756 -0.0742
 5100TIP3    H136791   2.847   2.605   2.601  0.8447 -1.7899 -1.1133
 5100TIP3    H236792   2.942   2.592   2.719  0.2814 -1.8499 -0.6617
 5101TIP3   OH236793   2.567   5.739  15.244  0.0517  0.5541 -0.3785
 5101TIP3    H136794   2.542   5.793  15.169 -0.2362  1.0254  0.0490
 5101TIP3    H236795   2.521   5.656  15.230 -0.3180  0.7790 -0.5264
 5102TIP3   OH236796   6.366   2.093   4.878 -0.0303 -0.1686  0.5376
 5102TIP3    H136797   6.461   2.095   4.880  0.0405  0.3392 -1.2084
 5102TIP3    H236798   6.344   2.006   4.843 -0.0790  0.4753 -1.1599
 5103TIP3   OH236799   1.254   0.371  11.780  0.5432 -0.9243  0.3512
 5103TIP3    H136800   1.341   0.360  11.742  0.6473  1.5695 -0.3761
 5103TIP3    H236801   1.199   0.401  11.707 -0.7616 -1.7414  0.9499
 5104TIP3   OH236802   3.927   0.170   1.288 -0.5791 -0.3385 -0.0994
 5104TIP3    H136803   4.011   0.210   1.308 -0.5546 -0.1429 -0.5929
 5104TIP3    H236804   3.940   0.077   1.304 -0.7259 -0.1374  1.3714
 5105TIP3   OH236805   2.504   0.443   2.536  0.1765 -0.2357 -0.5005
 5105TIP3    H136806   2.488   0.412   2.446 -1.9382 -2.9567  0.6433
 5105TIP3    H236807   2.593   0.414   2.556  0.6872  0.4391 -1.7108
 5106TIP3   OH236808   3.278   4.888  16.395 -0.0711  0.1066 -0.6049
 5106TIP3    H136809   3.358   4.840  16.373 -0.9556 -1.6028 -0.3076
 5106TIP3    H236810   3.209   4.845  16.343 -1.1683 -0.0313  0.8698
 5107TIP3   OH236811   1.010   3.629   2.198 -0.5493  0.2589  0.2254
 5107TIP3    H136812   0.966   3.616   2.282 -1.1935 -0.1794 -0.1776
 5107TIP3    H236813   1.086   3.570   2.202  0.1281  1.1593  0.9967
 5108TIP3   OH236814   3.051   3.517  15.886  0.0950 -0.3690  0.1549
 5108TIP3    H136815   3.090   3.569  15.817 -0.6513 -0.9569 -0.7417
 5108TIP3    H236816   3.124   3.471  15.927  0.6486  0.7027  0.3854
 5109TIP3   OH236817   3.875   3.770   1.592  0.0794  0.2887 -0.1189
 5109TIP3    H136818   3.914   3.817   1.665 -0.6783  1.5990 -0.5354
 5109TIP3    H236819   3.783   3.759   1.617 -0.1885  0.7650 -0.8818
 5110TIP3   OH236820   5.780   6.659  13.439 -0.1897 -0.0516  0.0580
 5110TIP3    H136821   5.836   6.719  13.488  0.1226  0.0733 -0.4470
 5110TIP3    H236822   5.827   6.644  13.357  0.3796 -1.9709  0.6749
 5111TIP3   OH236823   6.159   4.524  14.209  0.0284  0.6142 -0.5716
 5111TIP3    H136824   6.109   4.561  14.282  2.3914  2.3097  0.3432
 5111TIP3    H236825   6.246   4.565  14.217  1.3959 -1.6710 -2.3914
 5112TIP3   OH236826   6.599   2.265  15.325 -0.0259  0.3700 -0.3824
 5112TIP3    H136827   6.650   2.196  15.284  1.8818  2.3054 -1.4497
 5112TIP3    H236828   6.519   2.272  15.272  0.2360 -0.3153 -0.8697
 5113TIP3   OH236829   2.589   4.211   1.930  0.1495  0.0045  0.6153
 5113TIP3    H136830   2.529   4.216   2.005 -0.0798  1.5588  0.3628
 5113TIP3    H236831   2.630   4.297   1.926  1.3441 -0.5778 -0.0953
 5114TIP3   OH236832   0.981   5.548  17.109  0.4213  0.2218 -0.3010
 5114TIP3    H136833   1.073   5.529  17.127  0.3311 -1.7415 -1.5634
 5114TIP3    H236834   0.932   5.485  17.162 -0.0379 -0.7661 -1.8003
 5115TIP3   OH236835   3.443   3.430   0.306 -0.6491  0.3495 -0.1044
 5115TIP3    H136836   3.360   3.477   0.298  0.4165  1.9478 -4.1272
 5115TIP3    H236837   3.421   3.339   0.284 -1.6204  0.3686  0.7506
 5116TIP3   OH236838   3.676   2.066   3.491  0.1033  0.5651  0.4009
 5116TIP3    H136839   3.691   1.972   3.491  0.8866  0.6652 -0.9032
 5116TIP3    H236840   3.754   2.103   3.450 -1.2125  1.5640 -1.3716
 5117TIP3   OH236841   5.566   3.219  14.715 -0.4783 -0.0856 -0.0084
 5117TIP3    H136842   5.487   3.209  14.768 -0.4502 -0.7282 -0.0789
 5117TIP3    H236843   5.629   3.159  14.754 -0.1252  0.1972 -0.1415
 5118TIP3   OH236844   4.846   1.265  11.827  0.0723  0.0426  0.3291
 5118TIP3    H136845   4.810   1.332  11.886  0.4315 -0.5989  1.2897
 5118TIP3    H236846   4.809   1.287  11.741 -0.7811  0.7556  0.8610
 5119TIP3   OH236847   2.264   1.485  14.123  0.8144 -0.4782  0.1727
 5119TIP3    H136848   2.305   1.535  14.193  0.1710  0.6580 -0.2194
 5119TIP3    H236849   2.322   1.411  14.108  1.8311  0.1872  0.7511
 5120TIP3   OH236850   5.540   5.282  12.263 -0.2950  0.2074 -0.3942
 5120TIP3    H136851   5.446   5.274  12.248 -0.4843 -0.3482  0.9548
 5120TIP3    H236852   5.550   5.365  12.310 -0.1625  0.0681 -0.1736
 5121TIP3   OH236853   4.242   1.591  15.489  0.7207  0.2411  0.1046
 5121TIP3    H136854   4.318   1.548  15.529 -0.6485 -2.2896  0.1643
 5121TIP3    H236855   4.176   1.594  15.558  0.1940  0.9524 -0.4049
 5122TIP3   OH236856   3.657   0.174  16.567  0.2975 -0.0620  0.3637
 5122TIP3    H136857   3.592   0.133  16.624 -1.3103  1.5732 -0.2176
 5122TIP3    H236858   3.726   0.203  16.627  0.7287 -2.1007  0.9555
 5123TIP3   OH236859   4.123   6.167   0.933 -0.6753  0.5223 -0.1053
 5123TIP3    H136860   4.151   6.254   0.902 -0.3961  1.3613  2.2516
 5123TIP3    H236861   4.034   6.181   0.965 -1.6198 -0.7211 -2.0339
 5124TIP3   OH236862   6.532   1.219  13.416 -0.1480  0.0380 -0.2000
 5124TIP3    H136863   6.575   1.189  13.496 -0.1440 -1.6235 -0.7845
 5124TIP3    H236864   6.444   1.182  13.420 -0.6721  1.2069 -0.2762
 5125TIP3   OH236865   0.834   3.445  15.898  0.4233 -0.5445  0.0575
 5125TIP3    H136866   0.806   3.454  15.989 -2.9164 -1.2734 -0.7778
 5125TIP3    H236867   0.903   3.380  15.900  0.7818 -0.1613  2.1050
 5126TIP3   OH236868   4.264   1.227   0.864  0.0480  0.2621 -0.2447
 5126TIP3    H136869   4.215   1.181   0.932  0.0498  1.0934  0.3298
 5126TIP3    H236870   4.207   1.222   0.787 -1.8082  2.6394  0.8215
 5127TIP3   OH236871   5.533   1.788   2.437 -0.2378  0.2272  0.3109
 5127TIP3    H136872   5.563   1.702   2.465  0.9508  1.4441  3.2513
 5127TIP3    H236873   5.439   1.788   2.458 -0.0003  0.0188  1.4362
 5128TIP3   OH236874   0.822   2.617  16.952  0.0729  0.7733 -0.2484
 5128TIP3    H136875   0.786   2.611  17.041  0.1512  1.7069 -0.1437
 5128TIP3    H236876   0.745   2.631  16.896  0.0532  0.4832 -0.2963
 5129TIP3   OH236877   1.041   5.438   3.127  0.1025  0.1806  0.0603
 5129TIP3    H136878   0.977   5.418   3.058  0.1531 -1.2186  0.3941
 5129TIP3    H236879   1.052   5.533   3.122  0.2700  0.1095 -2.0125
 5130TIP3   OH236880   1.020   5.417  14.424  0.6358 -0.0634  0.3594
 5130TIP3    H136881   1.070   5.499  14.421 -0.3872  0.5778  0.7448
 5130TIP3    H236882   0.956   5.426  14.353 -1.6023  0.8765  2.3901
 5131TIP3   OH236883   2.334   0.121  16.755 -0.0043 -1.0354 -0.7702
 5131TIP3    H136884   2.325   0.141  16.848  0.8875 -1.7572 -0.5056
 5131TIP3    H236885   2.409   0.173  16.726  0.5976 -1.8543 -0.7318
 5132TIP3   OH236886   3.827   0.885   2.761 -0.1865 -0.4385  0.4278
 5132TIP3    H136887   3.897   0.903   2.698 -1.1563 -1.3057 -0.9518
 5132TIP3    H236888   3.824   0.789   2.766 -2.0251 -0.4812 -0.4897
 5133TIP3   OH236889   1.175   3.538  14.510 -0.3208 -0.2038  0.3536
 5133TIP3    H136890   1.091   3.514  14.550 -0.5246  0.3857  0.2853
 5133TIP3    H236891   1.157   3.620  14.464  0.7241  0.9323  1.8583
 5134TIP3   OH236892   4.676   2.314  15.392 -0.2481 -0.5982 -0.1717
 5134TIP3    H136893   4.751   2.319  15.332 -0.7998 -1.5351 -0.9618
 5134TIP3    H236894   4.681   2.227  15.430 -0.0753 -0.1141  0.9555
 5135TIP3   OH236895   2.183   3.607   2.465  0.5200  0.4364  0.8768
 5135TIP3    H136896   2.248   3.639   2.402  0.8135 -1.7628 -0.0595
 5135TIP3    H236897   2.154   3.685   2.511  0.7807  2.0994 -1.5436
 5136TIP3   OH236898   2.876   6.196   2.259  0.2320  0.3734 -0.0849
 5136TIP3    H136899   2.789   6.174   2.224  0.0273 -0.5423  0.9612
 5136TIP3    H236900   2.858   6.243   2.340  0.7079 -0.0809  0.2883
 5137TIP3   OH236901   2.282   2.291  16.020  0.6884 -0.5182  0.0292
 5137TIP3    H136902   2.236   2.207  16.027 -1.2469  0.4078 -0.9142
 5137TIP3    H236903   2.265   2.334  16.104  0.4025 -0.4580 -0.0586
 5138TIP3   OH236904   1.362   4.960   3.777  0.1257  0.0623 -0.2707
 5138TIP3    H136905   1.297   4.890   3.769 -0.1101  0.3995 -1.6795
 5138TIP3    H236906   1.442   4.923   3.740  0.3346  0.1233  0.1210
 5139TIP3   OH236907   5.952   6.099  14.465 -0.6757 -0.4268  0.3031
 5139TIP3    H136908   5.883   6.090  14.399 -1.2085  1.3518  0.5703
 5139TIP3    H236909   5.911   6.148  14.536  0.4767 -0.5429  1.0726
 5140TIP3   OH236910   4.734   1.447  14.904 -0.3764 -0.2465  0.4293
 5140TIP3    H136911   4.801   1.418  14.966 -1.3749 -0.7091  1.3143
 5140TIP3    H236912   4.653   1.448  14.955 -0.9750  0.7335 -0.5092
 5141TIP3   OH236913   2.095   2.589   3.847 -0.1086 -0.4518  0.4311
 5141TIP3    H136914   2.040   2.622   3.918  0.6386  1.8665 -0.0002
 5141TIP3    H236915   2.035   2.537   3.793 -1.5288  0.7090  0.8207
 5142TIP3   OH236916   5.076   0.402  14.252  0.0643 -0.2169  0.0144
 5142TIP3    H136917   5.042   0.313  14.247  1.3278 -0.7393  0.4699
 5142TIP3    H236918   5.094   0.416  14.345  2.2144 -0.4215 -0.3163
 5143TIP3   OH236919   0.446   0.698   2.005 -0.0811 -0.0292 -0.0645
 5143TIP3    H136920   0.406   0.614   1.986 -0.5217  0.3367 -0.7782
 5143TIP3    H236921   0.522   0.676   2.059 -1.1931 -0.7397  1.2949
 5144TIP3   OH236922   6.700   2.673   0.152  0.0163  0.3383  0.3684
 5144TIP3    H136923   6.722   2.767   0.148 -2.3549  0.9859  1.2882
 5144TIP3    H236924   6.646   2.659   0.074  0.4543 -0.3190  0.1782
 5145TIP3   OH236925   4.256   0.055  13.563  0.1584 -0.2896 -0.0163
 5145TIP3    H136926   4.282   0.144  13.589 -1.0503  0.2922 -0.7367
 5145TIP3    H236927   4.223   0.064  13.474 -2.1247 -1.0331  0.6896
 5146TIP3   OH236928   1.432   3.679   3.630 -0.3461 -0.2034  0.0314
 5146TIP3    H136929   1.391   3.600   3.595  0.6507 -0.8874  0.3502
 5146TIP3    H236930   1.408   3.679   3.723 -0.3383 -0.1468  0.0335
 5147TIP3   OH236931   2.569   3.730   0.620 -0.6917 -0.6479  0.4983
 5147TIP3    H136932   2.658   3.729   0.656 -0.4283 -0.7436 -0.1465
 5147TIP3    H236933   2.542   3.639   0.621  0.3641 -1.0492 -2.0752
 5148TIP3   OH236934   1.169   2.565  13.056  0.1932  0.3524  0.1677
 5148TIP3    H136935   1.104   2.594  13.121  1.3654  0.6008  1.2709
 5148TIP3    H236936   1.213   2.645  13.029  0.3384  0.1344 -0.2507
 5149TIP3   OH236937   2.259   1.188  15.282  0.2981 -0.1760  0.3870
 5149TIP3    H136938   2.332   1.127  15.297  1.4214  0.6044 -1.4860
 5149TIP3    H236939   2.287   1.269  15.323  0.3527  0.0303 -0.0519
 5150TIP3   OH236940   4.640   6.085  16.303  0.3243 -0.4011 -0.7431
 5150TIP3    H136941   4.710   6.019  16.302  1.6446  0.9071  0.5806
 5150TIP3    H236942   4.595   6.071  16.386  0.5882  0.3195 -0.4700
 5151TIP3   OH236943   1.835   3.718  14.317 -0.5794  0.1324  0.3807
 5151TIP3    H136944   1.774   3.769  14.371 -0.7365  1.4524 -0.9864
 5151TIP3    H236945   1.895   3.783  14.280 -0.5869 -0.6995 -1.1750
 5152TIP3   OH236946   5.110   6.638   5.347 -0.0863 -0.2913  0.3543
 5152TIP3    H136947   5.147   6.685   5.422  1.4223  0.3940 -0.7755
 5152TIP3    H236948   5.057   6.704   5.302  0.2495 -0.2755 -0.0188
 5153TIP3   OH236949   5.755   2.808   5.975  0.3718  0.1385 -0.1446
 5153TIP3    H136950   5.734   2.868   6.048 -1.6192 -0.3500 -0.2628
 5153TIP3    H236951   5.848   2.788   5.987  0.6441  1.8124  0.9572
 5154TIP3   OH236952   6.692   3.415  15.928  0.1897  0.2889 -0.2291
 5154TIP3    H136953   6.632   3.487  15.946 -1.8800 -1.4278  0.1380
 5154TIP3    H236954   6.655   3.340  15.975  1.7020 -1.2534 -1.3597
 5155TIP3   OH236955   1.836   5.963  16.705  0.1619  0.1325 -0.1791
 5155TIP3    H136956   1.831   5.879  16.659 -0.6512 -0.1352  0.3689
 5155TIP3    H236957   1.783   6.023  16.653  0.8639  0.3633 -0.6526
 5156TIP3   OH236958   3.905   4.809  11.061 -0.1425  0.1228 -0.5266
 5156TIP3    H136959   3.949   4.879  11.014 -0.8950  0.5524 -0.6083
 5156TIP3    H236960   3.815   4.809  11.027 -0.3303 -0.4383 -0.0558
 5157TIP3   OH236961   6.388   0.403   5.437 -0.0779  0.2576  0.1716
 5157TIP3    H136962   6.471   0.395   5.389  0.9557  1.6155  1.6339
 5157TIP3    H236963   6.409   0.458   5.512 -2.9454  3.1894 -0.9279
 5158TIP3   OH236964   4.523   3.318   1.117 -0.1924  0.0083 -0.0466
 5158TIP3    H136965   4.609   3.333   1.157 -0.5045  0.6410  0.4105
 5158TIP3    H236966   4.470   3.393   1.145 -1.4408 -1.2805  1.2268
 5159TIP3   OH236967   3.891   0.869  16.141 -0.2482  0.1834  0.0902
 5159TIP3    H136968   3.917   0.789  16.095  1.6730  1.2495 -0.7920
 5159TIP3    H236969   3.870   0.932  16.072 -0.4424  0.8554  0.7411
 5160TIP3   OH236970   5.223   0.541   4.035  0.2942 -0.1381 -0.3000
 5160TIP3    H136971   5.223   0.528   3.940  0.1084  0.3760 -0.3765
 5160TIP3    H236972   5.162   0.476   4.069 -0.3213  0.2557 -0.6265
 5161TIP3   OH236973   2.417   2.260  11.274 -0.1235 -0.1357  0.1922
 5161TIP3    H136974   2.382   2.190  11.328 -0.3683 -1.2122 -1.2849
 5161TIP3    H236975   2.457   2.215  11.199  0.2437  1.2766 -0.5067
 5162TIP3   OH236976   3.689   6.432  13.914 -0.8351 -0.0508 -0.4572
 5162TIP3    H136977   3.684   6.527  13.925 -1.0425  0.0399 -1.2660
 5162TIP3    H236978   3.643   6.415  13.832 -1.5412 -0.9500  0.1082
 5163TIP3   OH236979   5.277   1.086   1.912  0.1751 -0.5569  0.3667
 5163TIP3    H136980   5.367   1.063   1.891  0.0457 -1.3570  0.6274
 5163TIP3    H236981   5.225   1.041   1.845 -0.0067  0.3873 -0.1455
 5164TIP3   OH236982   1.652   4.487   1.883 -0.4133  0.6888 -0.3156
 5164TIP3    H136983   1.564   4.524   1.890  0.3946  2.5706  0.4888
 5164TIP3    H236984   1.683   4.515   1.797 -0.4150  0.4400 -0.3983
 5165TIP3   OH236985   5.660   6.528  12.214  0.0834 -0.7496 -0.1943
 5165TIP3    H136986   5.725   6.458  12.216  1.5117  0.5187 -0.1517
 5165TIP3    H236987   5.649   6.547  12.121  0.8415 -0.0488 -0.1549
 5166TIP3   OH236988   0.125   2.243   1.242 -0.2669  0.1249 -0.0250
 5166TIP3    H136989   0.036   2.277   1.251 -0.4659 -0.5275  0.6444
 5166TIP3    H236990   0.114   2.161   1.193  0.1546  0.7932 -1.2634
 5167TIP3   OH236991   0.707   5.896  13.986  0.0787 -0.0467  0.0758
 5167TIP3    H136992   0.744   5.842  13.916 -0.3749  0.9304 -0.9535
 5167TIP3    H236993   0.649   5.957  13.941 -1.1909 -0.1729  1.4361
 5168TIP3   OH236994   5.940   0.665  16.000  0.4098 -0.0016  0.3569
 5168TIP3    H136995   5.906   0.576  15.986  1.7368 -0.3183 -1.2421
 5168TIP3    H236996   5.927   0.681  16.093 -0.5926 -1.5633  0.5369
 5169TIP3   OH236997   6.164   2.863  13.727 -0.1493 -0.1871 -0.0509
 5169TIP3    H136998   6.079   2.906  13.725 -0.5553 -0.9553  0.2048
 5169TIP3    H236999   6.144   2.771  13.745  0.8419 -0.0881  1.7856
 5170TIP3   OH237000   4.923   3.317   2.037  0.1601 -0.2187 -0.6476
 5170TIP3    H137001   4.878   3.397   2.062  1.8771 -0.1872  2.8390
 5170TIP3    H237002   4.856   3.249   2.042 -1.1343  0.7448 -2.9441
 5171TIP3   OH237003   3.299   2.706  16.812  0.1530 -0.0281 -0.2040
 5171TIP3    H137004   3.219   2.759  16.815 -0.1884 -0.5380  3.6998
 5171TIP3    H237005   3.365   2.759  16.856  1.8299 -0.0412 -2.4900
 5172TIP3   OH237006   5.985   4.666  13.590 -0.8586  0.4430  0.1147
 5172TIP3    H137007   6.034   4.749  13.594  1.5696 -0.9468  1.3921
 5172TIP3    H237008   6.027   4.617  13.520 -3.4546  0.8659 -1.8882
 5173TIP3   OH237009   5.049   1.494  17.152  0.1382 -0.8528  0.2670
 5173TIP3    H137010   5.034   1.409  17.192  0.7429 -1.7819 -1.3978
 5173TIP3    H237011   5.021   1.484  17.061  1.2176  0.3798 -0.2368
 5174TIP3   OH237012   0.018   3.346  11.989  0.1287 -0.0060  0.7573
 5174TIP3    H137013   0.029   3.400  12.068 -0.6650  0.2307  0.7172
 5174TIP3    H237014  -0.077   3.344  11.975  0.2167 -0.6726  0.2373
 5175TIP3   OH237015   2.963   0.168   5.863  0.2907  0.3369 -0.4967
 5175TIP3    H137016   2.966   0.165   5.767 -0.4235  2.9223 -0.6575
 5175TIP3    H237017   3.027   0.234   5.887  1.1922 -0.9836  0.9364
 5176TIP3   OH237018   5.602   0.567  15.466 -0.2156  0.1689  0.3466
 5176TIP3    H137019   5.649   0.492  15.503 -1.9659 -0.0832  2.1711
 5176TIP3    H237020   5.624   0.640  15.523  2.3520  1.4757 -2.0196
 5177TIP3   OH237021   1.440   1.615   2.078  0.1756  0.0512  0.2354
 5177TIP3    H137022   1.527   1.625   2.039  0.2686  0.4839  0.5447
 5177TIP3    H237023   1.384   1.675   2.029 -0.3708 -1.5514 -1.1842
 5178TIP3   OH237024   0.422   4.210   1.787  0.1103 -0.7049  0.3096
 5178TIP3    H137025   0.375   4.254   1.717  0.9797 -0.3542 -0.0746
 5178TIP3    H237026   0.431   4.119   1.757  0.5059 -0.5501 -0.0658
 5179TIP3   OH237027   2.991   3.930   1.842 -0.0192  0.1266  0.1645
 5179TIP3    H137028   2.996   3.843   1.804 -0.6399 -0.5205  1.4708
 5179TIP3    H237029   2.900   3.958   1.828 -0.7872 -0.8624  2.5639
 5180TIP3   OH237030   3.269   5.101   4.825  0.7979 -0.0793 -0.2705
 5180TIP3    H137031   3.295   5.089   4.917  1.2458  0.7918 -0.2783
 5180TIP3    H237032   3.205   5.172   4.828  1.9106  0.9757 -0.7906
 5181TIP3   OH237033   0.000   6.505   1.428  0.7793 -0.1615  0.3234
 5181TIP3    H137034  -0.045   6.473   1.350  0.5822 -1.2484  0.8649
 5181TIP3    H237035  -0.067   6.551   1.478  0.2614 -1.6972  1.0836
 5182TIP3   OH237036   6.399   5.544  11.220  0.4378  0.1209  0.1186
 5182TIP3    H137037   6.433   5.510  11.303  1.3966  0.3722 -0.1592
 5182TIP3    H237038   6.346   5.472  11.184 -3.0985  1.1866  2.6196
 5183TIP3   OH237039   1.782   0.249   3.334 -0.2494  0.0976 -0.2125
 5183TIP3    H137040   1.813   0.164   3.363  0.3999  0.5153  0.3377
 5183TIP3    H237041   1.688   0.236   3.318 -0.2234 -0.6304  0.1978
 5184TIP3   OH237042   6.828   2.072  14.150 -0.1808  0.2825 -0.3806
 5184TIP3    H137043   6.908   2.109  14.112 -0.6111  0.5947 -0.9852
 5184TIP3    H237044   6.807   2.131  14.222 -0.4350  0.7874 -0.8613
 5185TIP3   OH237045   0.655   6.528  15.684 -0.0148  0.1561 -0.6084
 5185TIP3    H137046   0.743   6.565  15.689 -0.2155  0.6722 -0.8796
 5185TIP3    H237047   0.669   6.433  15.675  0.4923 -0.0670  1.8082
 5186TIP3   OH237048   1.462   3.956  15.705  0.6021  0.5582 -0.1057
 5186TIP3    H137049   1.431   3.880  15.754  0.8933  0.4438 -0.0944
 5186TIP3    H237050   1.518   3.919  15.637  0.1052  0.7073 -0.5987
 5187TIP3   OH237051   1.083   2.364  14.665 -0.2813 -0.2965 -0.7689
 5187TIP3    H137052   1.013   2.329  14.612 -0.2500  2.2610 -2.6810
 5187TIP3    H237053   1.148   2.396  14.602  1.7051 -0.8068  0.9000
 5188TIP3   OH237054   3.438   6.736   1.391  0.0295  0.6164 -0.1682
 5188TIP3    H137055   3.356   6.783   1.405  1.5719  3.6403 -0.5066
 5188TIP3    H237056   3.425   6.689   1.309 -1.8840 -0.3380  0.6215
 5189TIP3   OH237057   2.797   0.400  16.408 -0.2384 -0.3601 -0.2348
 5189TIP3    H137058   2.740   0.471  16.380  0.1571 -0.8314 -2.4363
 5189TIP3    H237059   2.818   0.420  16.499 -1.0632  1.7066 -0.4467
 5190TIP3   OH237060   6.117   1.504  13.646 -0.4406 -0.4534 -0.0411
 5190TIP3    H137061   6.063   1.471  13.574 -0.3591 -0.8754  0.0895
 5190TIP3    H237062   6.083   1.592  13.664 -2.1252 -1.3109  1.1132
 5191TIP3   OH237063   5.856   0.309   1.713 -0.3120 -0.3551  0.4544
 5191TIP3    H137064   5.819   0.349   1.634  2.2976  0.8091 -0.2710
 5191TIP3    H237065   5.781   0.265   1.754 -2.3228  1.2790 -1.2176
 5192TIP3   OH237066   0.652   1.788  11.747 -0.3279 -0.6862  0.2196
 5192TIP3    H137067   0.689   1.844  11.679 -1.4015  0.9922  0.9655
 5192TIP3    H237068   0.567   1.760  11.711  0.3322 -2.1760 -0.2866
 5193TIP3   OH237069   3.880   2.221  16.812 -0.5784  0.1600  0.3846
 5193TIP3    H137070   3.870   2.221  16.717 -0.0183 -0.7126  0.3145
 5193TIP3    H237071   3.966   2.182  16.827 -1.7404 -2.2238  1.3454
 5194TIP3   OH237072   1.391   4.733  16.629 -0.1654  0.3818 -0.2862
 5194TIP3    H137073   1.319   4.790  16.657 -0.7052 -0.4577  0.0706
 5194TIP3    H237074   1.393   4.742  16.534  2.0150  3.6762 -0.1243
 5195TIP3   OH237075   2.627   5.177   4.580  0.1767  0.3940  0.1854
 5195TIP3    H137076   2.615   5.180   4.485 -0.9386 -1.0795  0.2511
 5195TIP3    H237077   2.722   5.183   4.591  0.2427  2.0002 -0.9231
 5196TIP3   OH237078   1.247   4.287  13.189  0.0091 -0.2130  0.0292
 5196TIP3    H137079   1.290   4.253  13.268  0.8053  0.1283 -0.2514
 5196TIP3    H237080   1.166   4.326  13.221 -0.4870 -1.5335  0.4750
 5197TIP3   OH237081   4.008   6.791  12.274 -0.3186  0.5680 -0.0203
 5197TIP3    H137082   3.952   6.744  12.212  1.9075 -2.7135  0.2009
 5197TIP3    H237083   4.055   6.854  12.220  1.0796 -1.7472 -1.7180
 5198TIP3   OH237084   2.103   3.334  14.270 -0.6709 -0.3593  0.2818
 5198TIP3    H137085   2.194   3.359  14.253 -0.9794  1.4074  1.0770
 5198TIP3    H237086   2.083   3.271  14.201  0.1745  1.5823 -1.8585
 5199TIP3   OH237087   5.429   6.262  11.350  0.2383 -0.2289  0.2128
 5199TIP3    H137088   5.521   6.238  11.354  0.3429 -0.6904 -2.5509
 5199TIP3    H237089   5.394   6.211  11.277 -1.8738  0.9569  0.3028
 5200TIP3   OH237090   3.135   0.152   3.078 -0.0556  0.8749  0.0297
 5200TIP3    H137091   3.045   0.121   3.065  0.0249  0.5743  0.1918
 5200TIP3    H237092   3.124   0.244   3.102 -0.2691  1.0961 -0.8608
 5201TIP3   OH237093   1.317   4.946  12.912 -0.4272  0.1920  0.0299
 5201TIP3    H137094   1.256   4.975  12.844  3.0717  3.2261 -2.2499
 5201TIP3    H237095   1.363   4.871  12.873  0.4253  0.8825 -0.3444
 5202TIP3   OH237096   3.672   6.551   4.392 -0.1104 -0.5637 -0.2095
 5202TIP3    H137097   3.590   6.501   4.383 -0.2997 -0.8267  2.3825
 5202TIP3    H237098   3.651   6.637   4.356 -1.1467 -0.9768 -0.6632
 5203TIP3   OH237099   6.183   1.723  17.214 -0.2184 -0.2177 -0.3264
 5203TIP3    H137100   6.109   1.741  17.271 -0.1160 -0.7283 -0.0283
 5203TIP3    H237101   6.224   1.645  17.251  1.1446  0.7039  0.1911
 5204TIP3   OH237102   5.880   3.487  16.637 -0.0097 -0.6348  0.3781
 5204TIP3    H137103   5.949   3.538  16.680 -0.5570 -0.2879  0.8577
 5204TIP3    H237104   5.889   3.399  16.674  1.9783 -1.3590 -1.6366
 5205TIP3   OH237105   4.605   1.471  14.462  0.0169 -0.0952  0.0361
 5205TIP3    H137106   4.661   1.464  14.385  0.3866  1.7831  0.1089
 5205TIP3    H237107   4.657   1.518  14.526 -0.9903  0.0932  0.7388
 5206TIP3   OH237108   6.758   5.489  15.092 -0.1162  0.5316  0.2321
 5206TIP3    H137109   6.835   5.455  15.047 -0.9391 -2.0713  0.6178
 5206TIP3    H237110   6.708   5.534  15.024  0.6292  0.2594 -0.5152
 5207TIP3   OH237111   4.988   1.982  10.517  0.0901 -0.2301 -0.3517
 5207TIP3    H137112   5.034   1.989  10.600  0.3074 -0.2200 -0.4734
 5207TIP3    H237113   4.895   1.977  10.541  0.0992  0.4599 -0.1380
 5208TIP3   OH237114   0.584   1.633  13.392  0.1441 -0.1397  0.2516
 5208TIP3    H137115   0.594   1.556  13.448  1.8582  0.4191  0.7859
 5208TIP3    H237116   0.615   1.605  13.307 -0.0135 -0.2633  0.2341
 5209TIP3   OH237117   3.451   6.273   0.097  0.0348 -0.0875  0.7281
 5209TIP3    H137118   3.431   6.347   0.040  1.7697  0.6279  0.9709
 5209TIP3    H237119   3.471   6.201   0.038  2.2366  0.7601  0.3481
 5210TIP3   OH237120   0.409   2.885  13.344  0.4458 -0.3390 -0.4179
 5210TIP3    H137121   0.379   2.880  13.434 -0.3625  0.1481 -0.6498
 5210TIP3    H237122   0.446   2.973  13.336  1.4480 -0.7390 -0.2885
 5211TIP3   OH237123   3.033   0.396  12.350 -0.3597 -0.1840  0.4856
 5211TIP3    H137124   2.955   0.450  12.337 -0.5746 -0.2552  1.4153
 5211TIP3    H237125   3.005   0.330  12.413  0.0280 -1.1233 -0.3115
 5212TIP3   OH237126   6.113   5.653   5.872 -0.0517  0.1477 -0.1446
 5212TIP3    H137127   6.062   5.644   5.953 -1.4330 -0.1175 -1.0204
 5212TIP3    H237128   6.201   5.678   5.902 -0.8803  1.4153  1.3653
 5213TIP3   OH237129   1.390   4.847  11.213  0.4609  0.5110  0.1847
 5213TIP3    H137130   1.357   4.934  11.234 -0.1577  0.1065  0.9747
 5213TIP3    H237131   1.456   4.829  11.281  0.1270  0.1183  0.4123
 5214TIP3   OH237132   4.942   3.090   2.400 -0.7913  0.4203  0.5310
 5214TIP3    H137133   5.017   3.068   2.455  0.5729  0.0569 -1.3674
 5214TIP3    H237134   4.939   3.186   2.402 -0.5070  0.4252  0.9225
 5215TIP3   OH237135   3.573   5.703   0.604  0.2827  0.0778  0.6368
 5215TIP3    H137136   3.491   5.657   0.621  0.7486 -2.0571 -2.1412
 5215TIP3    H237137   3.556   5.756   0.526  1.2077  0.5845  0.7569
 5216TIP3   OH237138   3.359   1.413   1.045 -0.3737 -0.0282  0.0246
 5216TIP3    H137139   3.446   1.430   1.008 -0.3035  0.6490  0.4988
 5216TIP3    H237140   3.301   1.413   0.969  0.1048 -1.0104 -0.3622
 5217TIP3   OH237141   3.261   0.125  17.096 -0.7527  0.4711 -0.1152
 5217TIP3    H137142   3.331   0.190  17.087  0.1403 -0.5652 -0.9245
 5217TIP3    H237143   3.245   0.095  17.006  1.8343 -3.4552  0.5069
 5218TIP3   OH237144   4.250   1.879   3.630  0.2049  0.2092 -0.5571
 5218TIP3    H137145   4.261   1.958   3.576 -0.1633  0.5370 -0.1644
 5218TIP3    H237146   4.159   1.884   3.661  1.0643  1.3471  2.1058
 5219TIP3   OH237147   5.809   5.556   3.103  0.3774  0.9769 -0.3349
 5219TIP3    H137148   5.741   5.537   3.167  0.5167  0.6170 -0.2880
 5219TIP3    H237149   5.869   5.615   3.149 -0.4500  2.1611 -0.7292
 5220TIP3   OH237150   1.173   2.773   3.770 -0.3289 -0.3369 -0.0291
 5220TIP3    H137151   1.178   2.789   3.676 -0.6956 -0.7259 -0.1208
 5220TIP3    H237152   1.085   2.737   3.783 -1.5073  2.5652  0.8887
 5221TIP3   OH237153   6.785   5.932   5.014  0.4885 -0.4570 -0.2649
 5221TIP3    H137154   6.840   5.940   5.092 -2.8045 -0.4425  2.2788
 5221TIP3    H237155   6.727   6.007   5.018 -0.7451 -1.2600 -1.9350
 5222TIP3   OH237156   5.561   2.940   5.671  0.7936  0.3723  0.4193
 5222TIP3    H137157   5.575   2.883   5.595  0.4752  2.6161 -1.4247
 5222TIP3    H237158   5.494   2.894   5.722  2.2372 -2.0323  0.2997
 5223TIP3   OH237159   3.067   3.748  15.686 -0.5322  0.1710  0.0913
 5223TIP3    H137160   2.983   3.785  15.713 -0.0780  1.1652  0.1863
 5223TIP3    H237161   3.100   3.809  15.620 -0.5104 -0.9450 -0.9766
 5224TIP3   OH237162   3.458   6.038   5.163  0.3833 -0.0213 -0.0627
 5224TIP3    H137163   3.493   6.113   5.116 -0.4444  0.7288  0.4863
 5224TIP3    H237164   3.454   6.066   5.254  0.8220 -1.0249  0.2802
 5225TIP3   OH237165   3.015   6.544  13.892 -0.1493 -0.4866 -0.0683
 5225TIP3    H137166   2.964   6.492  13.831 -1.1206 -0.4586  0.6978
 5225TIP3    H237167   3.090   6.488  13.913 -1.0330 -1.4954  0.5322
 5226TIP3   OH237168   4.440   4.287   2.739  0.2005  0.6180  0.0966
 5226TIP3    H137169   4.482   4.373   2.741  0.5313  0.4599 -0.0110
 5226TIP3    H237170   4.381   4.291   2.663 -0.5257  1.0922  0.6716
 5227TIP3   OH237171   2.113   0.461  16.494  0.0577  0.1980  0.2042
 5227TIP3    H137172   2.051   0.435  16.563  1.0094  1.1315  1.4787
 5227TIP3    H237173   2.096   0.554  16.482  1.4458  0.5731  0.8832
 5228TIP3   OH237174   6.053   6.225  11.788 -0.1740 -0.1860  0.1280
 5228TIP3    H137175   6.001   6.172  11.728 -0.3255  0.2872 -0.1560
 5228TIP3    H237176   6.092   6.161  11.848 -0.2177 -0.6366 -0.3204
 5229TIP3   OH237177   6.079   5.946   5.165  0.4152 -0.2841 -0.0914
 5229TIP3    H137178   6.079   5.895   5.246  0.9260 -2.0413 -1.1367
 5229TIP3    H237179   6.170   5.974   5.153  0.0356  1.4747  0.7831
 5230TIP3   OH237180   0.047   5.992   4.399  0.2279 -0.2123  0.4410
 5230TIP3    H137181   0.000   6.023   4.322 -0.7697 -0.4065  0.9433
 5230TIP3    H237182   0.133   6.032   4.394  0.1333 -0.1381 -0.7095
 5231TIP3   OH237183   3.842   3.418   1.540 -0.7392 -0.0207 -0.0796
 5231TIP3    H137184   3.750   3.415   1.567 -1.3083 -0.3547 -1.8887
 5231TIP3    H237185   3.882   3.481   1.600 -1.6824 -1.2300  1.9409
 5232TIP3   OH237186   0.582   2.023  16.973  0.4435 -0.1089 -0.1627
 5232TIP3    H137187   0.620   2.042  17.059  2.4488  0.6434 -1.1426
 5232TIP3    H237188   0.489   2.045  16.982  0.9699  1.8004  1.2833
 5233TIP3   OH237189   5.208   0.479   6.594  0.2283 -0.1927  0.2730
 5233TIP3    H137190   5.216   0.496   6.688 -1.2178  0.3635  0.3236
 5233TIP3    H237191   5.210   0.566   6.554 -2.2450 -0.1342  0.0947
 5234TIP3   OH237192   0.319   2.073  10.473 -0.1945 -0.5351 -0.4761
 5234TIP3    H137193   0.285   2.162  10.477 -2.9141 -1.5033  2.6139
 5234TIP3    H237194   0.255   2.025  10.421  0.2186 -1.1030 -0.4742
 5235TIP3   OH237195   3.973   3.017  11.494 -0.5738  0.3556  0.6601
 5235TIP3    H137196   4.064   2.987  11.485 -0.7752  0.0913 -0.6609
 5235TIP3    H237197   3.979   3.113  11.492 -0.3337  0.3391  0.5341
 5236TIP3   OH237198   1.677   3.348  11.442  0.0782 -1.1367 -0.4082
 5236TIP3    H137199   1.610   3.411  11.416  0.3659 -1.0852 -1.0533
 5236TIP3    H237200   1.668   3.340  11.537 -0.3190 -0.5383 -0.3924
 5237TIP3   OH237201   1.791   5.528  15.744 -0.0139 -0.3914  0.7809
 5237TIP3    H137202   1.864   5.471  15.721 -0.0998 -1.0621  2.0499
 5237TIP3    H237203   1.721   5.504  15.683  0.9094  0.5169 -0.6921
 5238TIP3   OH237204   5.237   2.923  12.790 -0.3556 -0.7615  0.0631
 5238TIP3    H137205   5.275   2.860  12.729  0.6220  0.0473 -0.1911
 5238TIP3    H237206   5.299   2.996  12.791 -1.3811  0.1331  0.4659
 5239TIP3   OH237207   1.755   0.957   5.780  0.1269 -0.4819 -0.5064
 5239TIP3    H137208   1.806   0.897   5.835 -0.2983  0.4920  1.0148
 5239TIP3    H237209   1.817   0.987   5.714  2.0674  1.7467  2.1116
 5240TIP3   OH237210   2.930   4.612  17.148  0.2190 -0.3195  0.0019
 5240TIP3    H137211   3.019   4.578  17.137  0.5907 -0.4171  2.6132
 5240TIP3    H237212   2.935   4.703  17.122  0.7204 -0.6622 -1.1807
 5241TIP3   OH237213   2.153   4.553   5.673 -0.0821  0.6988 -0.1222
 5241TIP3    H137214   2.174   4.642   5.643  0.8770  0.6982  0.5102
 5241TIP3    H237215   2.165   4.557   5.768 -1.2746  0.2168  0.0632
 5242TIP3   OH237216   6.358   0.050   2.061  1.2034  0.1155  0.1948
 5242TIP3    H137217   6.386   0.077   2.148  1.8553  1.5570 -0.4341
 5242TIP3    H237218   6.386   0.121   2.003 -0.0731 -0.3583 -1.0611
 5243TIP3   OH237219   3.338   3.947   3.808 -0.1453 -0.1952  0.2667
 5243TIP3    H137220   3.254   3.991   3.825 -0.7514 -0.7527 -1.1642
 5243TIP3    H237221   3.366   3.981   3.723 -0.0034 -1.6273 -0.2738
 5244TIP3   OH237222   5.099   1.901  15.742  0.0837 -0.5145 -0.2854
 5244TIP3    H137223   5.158   1.910  15.816 -2.0308  0.9734  1.3386
 5244TIP3    H237224   5.083   1.991  15.712 -0.6571 -0.9365 -1.2410
 5245TIP3   OH237225   2.636   1.960   0.334 -0.0373  0.1705 -0.3494
 5245TIP3    H137226   2.582   1.881   0.329  1.3379 -0.8503  0.1104
 5245TIP3    H237227   2.605   2.006   0.412  0.9566 -1.3791  1.0286
 5246TIP3   OH237228   2.508   3.743   5.506 -0.1443  0.0892  0.4859
 5246TIP3    H137229   2.459   3.719   5.427 -0.3629 -0.2877  0.7332
 5246TIP3    H237230   2.550   3.826   5.484  0.3643 -0.3536 -0.2729
 5247TIP3   OH237231   6.256   6.021  11.034  0.0896 -0.1789 -0.5353
 5247TIP3    H137232   6.291   6.082  11.099  0.8160 -1.0083 -0.1224
 5247TIP3    H237233   6.275   6.063  10.950 -0.1954  0.5602 -0.2405
 5248TIP3   OH237234   3.620   2.098   0.173 -0.6222 -0.1153  0.0734
 5248TIP3    H137235   3.711   2.124   0.185 -1.1198  1.2001  1.4182
 5248TIP3    H237236   3.623   2.024   0.113  1.4216 -0.8379  0.9834
 5249TIP3   OH237237   3.259   4.558   4.493 -0.6713 -0.1509  0.7854
 5249TIP3    H137238   3.261   4.566   4.588  0.6644  1.4052  0.6644
 5249TIP3    H237239   3.308   4.477   4.476 -1.6640 -0.9081  1.4423
 5250TIP3   OH237240   3.921   2.718   2.610 -0.5229 -0.0802  0.6429
 5250TIP3    H137241   3.853   2.663   2.650  1.0825 -2.1728  0.6537
 5250TIP3    H237242   4.003   2.682   2.644  0.7001  0.7507 -1.3149
 5251TIP3   OH237243   0.907   0.791   3.034 -0.3284  0.6565  0.6712
 5251TIP3    H137244   0.993   0.754   3.015 -0.5018  0.8476 -0.6318
 5251TIP3    H237245   0.898   0.785   3.129  0.3199 -1.1092  0.6520
 5252TIP3   OH237246   2.525   0.998  12.160  0.4363 -0.2985  0.1798
 5252TIP3    H137247   2.484   0.912  12.165  3.6329 -2.1334 -1.9290
 5252TIP3    H237248   2.614   0.985  12.193  0.8008  2.4359  0.5567
 5253TIP3   OH237249   1.001   1.842   1.422  0.1677 -0.1299 -0.2417
 5253TIP3    H137250   0.980   1.756   1.460 -0.7089 -0.3649 -1.2102
 5253TIP3    H237251   0.959   1.841   1.336 -1.4834  1.9998  0.4586
 5254TIP3   OH237252   0.908   3.162   5.422  0.2093 -0.3552  0.3677
 5254TIP3    H137253   0.904   3.097   5.352  0.7014  0.8040 -0.7711
 5254TIP3    H237254   0.964   3.232   5.388  0.1188  0.4425  1.7535
 5255TIP3   OH237255   4.973   3.529  15.351 -0.2247 -0.1399 -0.6990
 5255TIP3    H137256   4.941   3.523  15.441 -1.2946 -0.2100 -1.0789
 5255TIP3    H237257   5.034   3.603  15.353 -1.0250  0.5290 -0.1483
 5256TIP3   OH237258   6.541   4.865   3.998  0.1071 -0.2214 -0.1925
 5256TIP3    H137259   6.496   4.786   3.969 -2.7145  1.5006 -0.8966
 5256TIP3    H237260   6.526   4.928   3.928 -0.4026  1.8287  1.6507
 5257TIP3   OH237261   3.312   2.665   1.654 -0.0826  0.0721  0.1044
 5257TIP3    H137262   3.241   2.728   1.650  0.3191  0.4556 -1.2464
 5257TIP3    H237263   3.372   2.691   1.585 -0.0026 -1.9133 -0.6424
 5258TIP3   OH237264   4.754   0.550   5.293  0.4284  0.2742  0.2613
 5258TIP3    H137265   4.660   0.548   5.308  0.5724  0.0251  1.1508
 5258TIP3    H237266   4.775   0.464   5.256  0.2111  0.5815 -0.6157
 5259TIP3   OH237267   1.540   0.911  14.036  0.1394 -0.6388 -0.0534
 5259TIP3    H137268   1.574   0.980  14.093 -0.5148  0.2498 -0.7118
 5259TIP3    H237269   1.468   0.871  14.085 -0.2981 -0.0047 -0.1774
 5260TIP3   OH237270   4.725   0.650   4.586 -0.9270 -0.5432  0.1500
 5260TIP3    H137271   4.709   0.736   4.624 -0.5149 -1.4091  2.3835
 5260TIP3    H237272   4.820   0.640   4.588 -0.8720 -0.5862 -1.2824
 5261TIP3   OH237273   3.163   0.007   1.493 -0.9373  0.1068  0.1494
 5261TIP3    H137274   3.121  -0.052   1.555 -1.4653 -1.5490 -1.6798
 5261TIP3    H237275   3.121  -0.012   1.409  0.2739  1.6987 -0.8888
 5262TIP3   OH237276   6.346   6.233  15.413 -0.3123 -0.0225 -0.3507
 5262TIP3    H137277   6.340   6.171  15.486 -0.2429 -0.3648 -0.6343
 5262TIP3    H237278   6.440   6.242  15.396 -0.3410 -0.1834 -0.6005
 5263TIP3   OH237279   1.833   2.067   2.841 -0.4067 -0.0891 -0.1808
 5263TIP3    H137280   1.775   2.141   2.859  1.0382  0.7091  1.6387
 5263TIP3    H237281   1.868   2.084   2.754 -1.4057  0.4448 -0.4875
 5264TIP3   OH237282   4.020   5.036  13.174  0.0269  0.0684  0.7653
 5264TIP3    H137283   3.952   5.049  13.108  1.8477  1.2315 -1.0220
 5264TIP3    H237284   3.976   5.052  13.257 -2.1765 -0.5832 -0.1912
 5265TIP3   OH237285   3.067   1.199   1.859 -0.2362  0.2153  0.3619
 5265TIP3    H137286   3.114   1.220   1.940 -0.1582  0.8854  0.1539
 5265TIP3    H237287   3.133   1.208   1.790  0.1339 -2.0011  0.3525
 5266TIP3   OH237288   5.988   0.718   2.672 -0.3205 -0.6181  0.6669
 5266TIP3    H137289   5.973   0.811   2.686 -3.3741 -0.8313 -0.5960
 5266TIP3    H237290   5.945   0.676   2.747 -1.4071 -1.0906 -0.2078
 5267TIP3   OH237291   5.274   5.147   1.554 -0.8820  0.3291 -0.5971
 5267TIP3    H137292   5.194   5.109   1.590 -0.6888 -0.4267 -0.9381
 5267TIP3    H237293   5.301   5.211   1.619 -1.1295 -0.2470  0.0877
 5268TIP3   OH237294   0.872   5.406   1.999  0.3139  0.5458 -0.0065
 5268TIP3    H137295   0.931   5.437   1.931 -0.1174 -0.5290 -0.9070
 5268TIP3    H237296   0.908   5.441   2.080  1.9998  0.1903 -0.5581
 5269TIP3   OH237297   3.160   6.340  12.658 -0.1072 -0.5729  0.3091
 5269TIP3    H137298   3.211   6.328  12.578  0.3681 -0.7478  0.6321
 5269TIP3    H237299   3.106   6.261  12.664  0.9082 -1.2471  0.9123
 5270TIP3   OH237300   6.430   1.003  12.666 -0.3972  0.4626  0.0133
 5270TIP3    H137301   6.338   0.979  12.661  0.0859 -1.2970 -2.1416
 5270TIP3    H237302   6.434   1.091  12.629 -1.2323  0.6868  0.4350
 5271TIP3   OH237303   4.435   5.440  16.230  0.4675 -0.4606  0.1443
 5271TIP3    H137304   4.364   5.491  16.192 -0.7731 -2.7313 -0.8389
 5271TIP3    H237305   4.483   5.407  16.154 -0.6156 -3.1432  0.5028
 5272TIP3   OH237306   3.264   6.373  16.354 -0.3049 -0.2644  0.0042
 5272TIP3    H137307   3.196   6.434  16.382 -0.3503 -0.8728  1.2954
 5272TIP3    H237308   3.281   6.319  16.431  2.5563  0.7009  0.1823
 5273TIP3   OH237309   6.477   5.924  17.159 -0.4584 -0.7663  0.0485
 5273TIP3    H137310   6.489   6.019  17.153 -1.3095 -0.6294  0.2861
 5273TIP3    H237311   6.409   5.905  17.095 -0.3651 -1.1984  0.0786
 5274TIP3   OH237312   4.487   1.758  16.085  0.2651  0.2569 -0.4032
 5274TIP3    H137313   4.448   1.676  16.054 -1.3647  0.3199  1.3390
 5274TIP3    H237314   4.560   1.774  16.024  0.5162 -2.3563 -0.9114
 5275TIP3   OH237315   6.313   0.292   4.267 -0.7077 -0.7496 -0.7994
 5275TIP3    H137316   6.401   0.284   4.306 -0.0052  0.4293 -2.0621
 5275TIP3    H237317   6.306   0.217   4.209 -0.8218 -1.2187 -0.1942
 5276TIP3   OH237318   3.828   0.967  13.399  0.3491  0.1577 -0.4749
 5276TIP3    H137319   3.744   0.964  13.444 -0.5023  2.1260 -1.7950
 5276TIP3    H237320   3.887   0.915  13.454 -1.3278  0.0402  1.3090
 5277TIP3   OH237321   1.951   4.163  11.248  0.0587  0.1422  0.3316
 5277TIP3    H137322   1.865   4.175  11.207 -0.1016 -1.4551  0.1596
 5277TIP3    H237323   1.940   4.087  11.304  1.2504  0.1889  0.6405
 5278TIP3   OH237324   4.607   5.317  10.323  0.0608 -0.0372  0.2810
 5278TIP3    H137325   4.531   5.307  10.267  1.1817 -0.9656 -1.1600
 5278TIP3    H237326   4.586   5.268  10.402 -0.4455 -1.1659 -0.5355
 5279TIP3   OH237327   6.523   1.623   3.884 -0.1359  0.1027  0.4283
 5279TIP3    H137328   6.564   1.658   3.963  0.3756  0.1983  0.1243
 5279TIP3    H237329   6.521   1.696   3.822  2.3077 -0.6991 -0.7469
 5280TIP3   OH237330   4.812   4.182   0.465  0.4000  0.1554 -0.2872
 5280TIP3    H137331   4.760   4.249   0.511 -1.1263 -1.3584  0.3275
 5280TIP3    H237332   4.833   4.222   0.381 -0.3544  1.4607  0.1057
 5281TIP3   OH237333   1.287   4.532  11.465  0.2088  0.2892 -0.5159
 5281TIP3    H137334   1.233   4.517  11.543 -0.0159  1.1918 -0.4857
 5281TIP3    H237335   1.377   4.519  11.495  0.0310 -1.7775 -0.6895
 5282TIP3   OH237336   1.114   3.441  12.461  0.3982 -0.2610  0.5975
 5282TIP3    H137337   1.053   3.412  12.393  0.2225 -0.5644  0.8840
 5282TIP3    H237338   1.113   3.537  12.454  0.4870 -0.2902  0.0823
 5283TIP3   OH237339   6.000   0.167   1.355 -0.0229 -0.3784 -0.4266
 5283TIP3    H137340   6.087   0.200   1.330  0.2095  0.2638  1.1393
 5283TIP3    H237341   6.019   0.095   1.416 -0.5748  0.8475  1.2436
 5284TIP3   OH237342   2.551   3.069   5.661  0.1063  0.4086 -0.2101
 5284TIP3    H137343   2.510   3.032   5.740  3.0646  0.0418  1.2782
 5284TIP3    H237344   2.493   3.141   5.635 -2.7747 -1.5756  0.1947
 5285TIP3   OH237345   6.084   2.596   4.713  0.0179 -0.3335  0.0603
 5285TIP3    H137346   6.108   2.682   4.678  1.1229 -0.9037 -0.6317
 5285TIP3    H237347   5.990   2.588   4.695  0.1804  0.1732 -1.1143
 5286TIP3   OH237348   4.702   2.521  13.659 -0.0554  0.2492  0.2979
 5286TIP3    H137349   4.772   2.581  13.634  0.0598 -0.4416 -1.0863
 5286TIP3    H237350   4.681   2.547  13.749  1.2559  1.1413  0.3859
 5287TIP3   OH237351   0.075   0.241   5.483  0.1741  0.3916  0.3081
 5287TIP3    H137352   0.160   0.200   5.466 -0.4665 -0.1288 -2.1292
 5287TIP3    H237353   0.025   0.225   5.402 -1.7774  1.8327  1.1596
 5288TIP3   OH237354   3.479   3.871  13.213  0.5399  0.5028 -0.6707
 5288TIP3    H137355   3.438   3.863  13.127  1.6924  1.7296 -1.3867
 5288TIP3    H237356   3.557   3.816  13.207  0.5227  0.4416 -0.3371
 5289TIP3   OH237357   1.459   6.808  17.026 -0.0794  0.2341  0.2444
 5289TIP3    H137358   1.498   6.848  17.104  0.6052  0.5578 -0.2521
 5289TIP3    H237359   1.492   6.861  16.954 -1.6053  0.6260 -0.1835
 5290TIP3   OH237360   0.964   0.420  15.016 -0.4970 -0.5543 -0.1242
 5290TIP3    H137361   0.938   0.352  15.078  0.7207 -0.6915  0.2506
 5290TIP3    H237362   0.905   0.493  15.034 -0.7311 -0.9104  0.5831
 5291TIP3   OH237363   5.132   6.225  12.422  0.5670  0.2839 -0.6441
 5291TIP3    H137364   5.149   6.257  12.511 -1.8080  1.5017 -0.5215
 5291TIP3    H237365   5.080   6.146  12.435  0.0124  0.5943 -0.9162
 5292TIP3   OH237366   1.310   4.044   1.707 -0.2204 -0.2867  0.0419
 5292TIP3    H137367   1.354   3.960   1.697 -0.5030 -0.8450  2.5923
 5292TIP3    H237368   1.255   4.052   1.630  1.0642 -1.6466 -1.0733
 5293TIP3   OH237369   0.310   4.584   2.664  0.5410 -0.3307 -0.0349
 5293TIP3    H137370   0.341   4.563   2.576  1.0566 -1.5194  0.4083
 5293TIP3    H237371   0.235   4.525   2.678  2.2497 -2.3088  1.3803
 5294TIP3   OH237372   3.728   0.233  17.072  1.0193  0.4888 -0.0491
 5294TIP3    H137373   3.745   0.275  16.988  0.4849 -0.4520 -0.6408
 5294TIP3    H237374   3.804   0.256  17.126  1.5050  0.8647 -0.8771
 5295TIP3   OH237375   3.987   5.104   4.817 -0.1100 -0.1242  0.4240
 5295TIP3    H137376   3.912   5.152   4.852  0.4597  2.3288 -1.4510
 5295TIP3    H237377   3.956   5.069   4.733  0.0361 -1.5646  0.9480
 5296TIP3   OH237378   5.773   3.976   5.507  0.0741  0.0794 -0.4521
 5296TIP3    H137379   5.777   3.887   5.473  0.7654 -0.6801  1.5343
 5296TIP3    H237380   5.685   4.006   5.483 -0.3902 -1.3513 -0.6429
 5297TIP3   OH237381   3.815   2.780   3.567 -0.1035  0.4362  0.1486
 5297TIP3    H137382   3.755   2.799   3.495  0.2393 -0.3592 -0.3605
 5297TIP3    H237383   3.870   2.709   3.534  0.1562  0.1589  1.1490
 5298TIP3   OH237384   1.180   4.577   5.864 -0.1585  0.5429  0.4736
 5298TIP3    H137385   1.219   4.654   5.904 -1.8003  1.3109  0.6822
 5298TIP3    H237386   1.086   4.597   5.859 -0.4404 -0.8758 -0.7324
 5299TIP3   OH237387   0.013   6.464  15.030 -0.2016  0.0849 -0.4108
 5299TIP3    H137388   0.038   6.397  15.094 -0.9956 -0.5209 -0.7206
 5299TIP3    H237389   0.055   6.544  15.061  0.0652 -0.3745  0.4304
 5300TIP3   OH237390   1.830   6.451  13.500  0.0428 -0.4688  0.4357
 5300TIP3    H137391   1.850   6.360  13.480  0.0761 -0.3092 -0.3059
 5300TIP3    H237392   1.913   6.497  13.487 -0.0852 -0.2655  0.3261
 5301TIP3   OH237393   1.335   0.210  12.338 -0.0690  0.1066  0.2842
 5301TIP3    H137394   1.271   0.213  12.409  0.3140 -2.6284  0.8695
 5301TIP3    H237395   1.419   0.225  12.381 -0.1563  3.6383 -0.4741
 5302TIP3   OH237396   5.680   1.416  11.369  0.1643  0.4813 -0.8321
 5302TIP3    H137397   5.609   1.453  11.316 -1.0527 -0.9741 -0.2929
 5302TIP3    H237398   5.739   1.376  11.305  0.9572  2.3562 -1.3439
 5303TIP3   OH237399   4.957   1.623  11.891 -0.1158 -0.0550  0.5260
 5303TIP3    H137400   4.944   1.636  11.985  1.0001 -0.2328  0.7095
 5303TIP3    H237401   4.967   1.711  11.855 -1.5144  0.0875  0.3992
 5304TIP3   OH237402   3.482   0.157  14.271  0.1304  0.3112  0.0534
 5304TIP3    H137403   3.393   0.175  14.241  0.6207  2.8028 -0.1068
 5304TIP3    H237404   3.509   0.081  14.220 -1.4882  0.1933 -0.7102
 5305TIP3   OH237405   3.632   4.198  11.872 -0.4558 -0.4162  0.2072
 5305TIP3    H137406   3.560   4.258  11.854  0.2052  0.6817  1.0417
 5305TIP3    H237407   3.593   4.128  11.925 -1.0349 -0.1822  0.0947
 5306TIP3   OH237408   1.013   5.849   0.692 -0.2038  0.6317  0.2854
 5306TIP3    H137409   0.988   5.820   0.780  0.0524 -0.3495  0.0468
 5306TIP3    H237410   1.093   5.899   0.706  1.5955 -2.0458  0.3590
 5307TIP3   OH237411   5.236   6.584  15.351 -0.0420  0.1992  0.1299
 5307TIP3    H137412   5.204   6.661  15.305 -0.2576 -0.8722 -1.6096
 5307TIP3    H237413   5.278   6.618  15.429 -2.0336  1.9230  0.5246
 5308TIP3   OH237414   4.085   3.696  17.145  0.3395 -0.2852 -0.0035
 5308TIP3    H137415   4.056   3.718  17.234  1.4340 -0.2837  0.3778
 5308TIP3    H237416   4.142   3.769  17.120  0.3557 -0.4836 -0.5492
 5309TIP3   OH237417   0.444   2.555   3.867  0.1189 -0.2946  0.1963
 5309TIP3    H137418   0.402   2.534   3.951 -1.6975  0.2335 -0.5306
 5309TIP3    H237419   0.455   2.471   3.824  1.4745 -0.6234  1.0976
 5310TIP3   OH237420   6.307   2.817  10.833 -0.0288  0.3049  0.3553
 5310TIP3    H137421   6.296   2.726  10.806 -0.8239  0.3417  0.5308
 5310TIP3    H237422   6.332   2.864  10.753 -0.3327  0.0551  0.1117
 5311TIP3   OH237423   2.142   0.957  14.815  0.0397 -0.6771  0.0559
 5311TIP3    H137424   2.218   0.899  14.820  1.1271  0.7425  0.7202
 5311TIP3    H237425   2.174   1.034  14.769 -1.5427 -0.8037 -1.3390
 5312TIP3   OH237426   2.225   6.111  14.939 -0.5490 -0.0491 -0.3699
 5312TIP3    H137427   2.216   6.046  14.870 -0.6425 -3.3533  2.5238
 5312TIP3    H237428   2.141   6.108  14.986  0.5577 -0.1961  1.7025
 5313TIP3   OH237429   3.450   3.472   4.392  0.1893 -0.4432  0.1296
 5313TIP3    H137430   3.388   3.419   4.442 -1.0140 -0.0671 -0.9139
 5313TIP3    H237431   3.431   3.562   4.417  0.3198 -0.3275 -0.1760
 5314TIP3   OH237432   2.419   4.004   4.359  0.0943  0.5305  0.6997
 5314TIP3    H137433   2.421   4.004   4.455  1.1079 -0.5680  0.6956
 5314TIP3    H237434   2.509   3.985   4.333 -0.5823 -1.4390 -0.4218
 5315TIP3   OH237435   0.524   3.525  11.740 -0.2810 -0.3439  0.1340
 5315TIP3    H137436   0.528   3.620  11.733  1.6419 -0.3609  0.5169
 5315TIP3    H237437   0.600   3.501  11.793  0.6245 -2.2739 -1.8648
 5316TIP3   OH237438   0.943   3.294   5.678  0.3676  0.3611  0.0963
 5316TIP3    H137439   0.958   3.226   5.612  1.3303  1.2228 -0.6064
 5316TIP3    H237440   0.920   3.372   5.627  1.1196  1.0404  0.7806
 5317TIP3   OH237441   3.566   3.776   3.834 -0.3694 -0.6613  0.0631
 5317TIP3    H137442   3.619   3.804   3.908  1.6326  1.4659 -1.9894
 5317TIP3    H237443   3.518   3.855   3.807 -1.0091 -1.3590 -0.9235
 5318TIP3   OH237444   1.597   6.194   1.294  0.0888 -0.1836 -0.0443
 5318TIP3    H137445   1.655   6.209   1.369 -0.0797  0.7463 -0.0952
 5318TIP3    H237446   1.653   6.152   1.229  0.5272  0.0499  0.1758
 5319TIP3   OH237447   5.242   2.243   6.173  0.4776 -0.1101 -0.4877
 5319TIP3    H137448   5.226   2.265   6.081  1.0322 -2.9151 -1.3372
 5319TIP3    H237449   5.312   2.302   6.199  0.1485  0.9180 -1.7700
 5320TIP3   OH237450   3.365   5.624   0.231  1.0213  0.2959  0.1080
 5320TIP3    H137451   3.440   5.595   0.282  1.2828  0.7587 -0.0151
 5320TIP3    H237452   3.378   5.586   0.144  1.1402  0.4246  0.0703
 5321TIP3   OH237453   6.089   5.430   1.883  0.0317  0.3306  0.5599
 5321TIP3    H137454   6.101   5.367   1.812  3.0639 -0.0466  1.2774
 5321TIP3    H237455   6.107   5.381   1.963  0.3132  1.5956  1.3050
 5322TIP3   OH237456   3.877   1.401   0.192  0.0792  0.4431 -0.3072
 5322TIP3    H137457   3.905   1.428   0.280 -0.7214  1.3620 -0.3131
 5322TIP3    H237458   3.947   1.344   0.161  0.3267  0.0018  0.9725
 5323TIP3   OH237459   6.243   3.463   3.986  0.1403 -0.2538 -0.0883
 5323TIP3    H137460   6.292   3.512   4.052 -1.7702  1.9039 -0.1276
 5323TIP3    H237461   6.184   3.407   4.037 -0.3624  0.3798  0.0365
 5324TIP3   OH237462   0.063   6.390  10.546 -0.0813  0.4842 -0.0445
 5324TIP3    H137463   0.078   6.301  10.514 -0.7194  1.0596 -2.0983
 5324TIP3    H237464  -0.030   6.393  10.567 -0.2632  0.8858 -0.8469
 5325TIP3   OH237465   4.914   6.237  12.261 -0.3718  0.1210 -0.5203
 5325TIP3    H137466   4.987   6.260  12.318 -1.0798 -0.4031  0.6295
 5325TIP3    H237467   4.913   6.141  12.260 -0.8983  0.1234 -0.7162
 5326TIP3   OH237468   2.942   1.941  14.753  0.6600  0.0375  0.3154
 5326TIP3    H137469   2.933   1.901  14.666  1.1676  1.1448 -0.2680
 5326TIP3    H237470   2.857   1.982  14.768  0.7941  0.4383  0.0176
 5327TIP3   OH237471   2.379   6.306  14.400 -0.1984  0.1207  0.2273
 5327TIP3    H137472   2.429   6.276  14.324  0.2695  1.5567 -0.0640
 5327TIP3    H237473   2.445   6.319  14.469 -0.4248  0.1988  0.4324
 5328TIP3   OH237474   5.654   6.604   5.505  0.4502 -0.0793 -0.3885
 5328TIP3    H137475   5.645   6.601   5.410  0.2583  0.1130 -0.3778
 5328TIP3    H237476   5.655   6.698   5.526 -0.5773 -0.1199 -0.0988
 5329TIP3   OH237477   4.643   3.501   2.599  0.2298  0.0529  0.5022
 5329TIP3    H137478   4.678   3.585   2.630 -1.0657  1.5018 -1.5994
 5329TIP3    H237479   4.712   3.466   2.543  0.2062  0.4805  0.1989
 5330TIP3   OH237480   0.921   3.865   1.905 -0.5246  0.3131 -0.5997
 5330TIP3    H137481   0.958   3.928   1.967 -0.1582 -0.5621  0.0941
 5330TIP3    H237482   0.847   3.911   1.865  0.3608  1.5498 -0.8880
 5331TIP3   OH237483   4.036   5.894   2.278  0.4286 -0.0328  0.2170
 5331TIP3    H137484   4.063   5.843   2.201  0.1856 -1.0756  0.8082
 5331TIP3    H237485   4.118   5.919   2.320  0.5463 -0.0656  0.0076
 5332TIP3   OH237486   6.827   1.246  13.306  0.1400  0.3192 -0.4514
 5332TIP3    H137487   6.847   1.153  13.305  0.3244  0.3516 -0.1234
 5332TIP3    H237488   6.740   1.253  13.266 -1.3818 -0.3775  2.4276
 5333TIP3   OH237489   3.292   3.872   5.354 -0.3264 -0.3008  0.0438
 5333TIP3    H137490   3.370   3.868   5.409 -0.3516 -0.1732  0.0894
 5333TIP3    H237491   3.311   3.813   5.281  0.2529  0.5564 -0.5134
 5334TIP3   OH237492   3.638   0.475   6.038  0.2612 -0.2968  0.1734
 5334TIP3    H137493   3.706   0.530   6.078  0.2652 -0.4205  0.3377
 5334TIP3    H237494   3.560   0.492   6.090  0.2846 -0.5140  0.2813
 5335TIP3   OH237495   4.497   2.311  12.687  0.1196  0.5773 -0.1101
 5335TIP3    H137496   4.428   2.334  12.748  1.1318  1.7930  0.6278
 5335TIP3    H237497   4.540   2.235  12.726  0.3377  0.9421  0.3728
 5336TIP3   OH237498   5.231   6.520  13.257 -0.1036  0.0783 -0.0503
 5336TIP3    H137499   5.191   6.451  13.204 -0.3759  0.5390 -0.4521
 5336TIP3    H237500   5.261   6.585  13.194 -0.4971  0.6679  0.3557
 5337TIP3   OH237501   5.656   2.153  16.857 -0.3531  0.2664  0.6328
 5337TIP3    H137502   5.633   2.084  16.795  0.7025  1.8926 -1.7558
 5337TIP3    H237503   5.590   2.148  16.925 -0.8371 -2.4565  0.0622
 5338TIP3   OH237504   1.240   2.312  14.018  0.0464  0.3729  0.5390
 5338TIP3    H137505   1.186   2.383  14.053  2.1658  2.4488 -0.1229
 5338TIP3    H237506   1.300   2.290  14.090  1.2350  1.2693 -0.1467
 5339TIP3   OH237507   4.678   2.802   2.206  0.1743  0.0276 -0.3944
 5339TIP3    H137508   4.699   2.778   2.116  0.5994 -0.8521 -0.0670
 5339TIP3    H237509   4.703   2.726   2.259  0.4879  0.7474  0.5396
 5340TIP3   OH237510   2.340   4.695  11.891 -0.7440 -0.5104  0.0149
 5340TIP3    H137511   2.404   4.642  11.939  0.0054  0.6384  0.3391
 5340TIP3    H237512   2.289   4.632  11.841 -0.4111 -1.5980  1.0009
 5341TIP3   OH237513   0.241   5.026  14.968 -0.2512 -0.3316  0.7084
 5341TIP3    H137514   0.313   5.089  14.975 -0.0878 -0.2609 -1.0468
 5341TIP3    H237515   0.181   5.050  15.038  0.6403  0.6676  1.1647
 5342TIP3   OH237516   5.682   1.412  12.435  0.0962  1.0508 -0.2185
 5342TIP3    H137517   5.690   1.317  12.426  0.2891  1.2267 -2.4962
 5342TIP3    H237518   5.616   1.425  12.503 -0.4636 -0.7071 -0.3921
 5343TIP3   OH237519   4.584   4.604  13.696  0.6490 -0.4368  0.2919
 5343TIP3    H137520   4.535   4.578  13.618  0.5767  0.2401  0.1010
 5343TIP3    H237521   4.672   4.569  13.682  0.6084 -0.4119 -0.0416
 5344TIP3   OH237522   4.076   5.235   1.203 -0.6060  0.3278  0.4162
 5344TIP3    H137523   4.120   5.256   1.286  0.8663  0.5525 -0.3944
 5344TIP3    H237524   3.994   5.284   1.207 -0.3396  0.7243  1.5295
 5345TIP3   OH237525   0.613   1.790  14.855 -0.4105  0.0433  0.6382
 5345TIP3    H137526   0.693   1.739  14.868 -0.6623 -0.0217  2.0900
 5345TIP3    H237527   0.544   1.738  14.896 -1.1356  0.2984 -0.2244
 5346TIP3   OH237528   5.960   1.843  13.411  0.1644 -0.4657 -0.0362
 5346TIP3    H137529   6.002   1.868  13.493  0.3333 -1.2704  0.1334
 5346TIP3    H237530   6.021   1.782  13.371 -0.0776 -0.3421 -0.6000
 5347TIP3   OH237531   3.927   1.506   1.391 -0.2215  0.2156 -0.3481
 5347TIP3    H137532   3.987   1.468   1.328 -1.2972 -1.3333 -0.5158
 5347TIP3    H237533   3.974   1.502   1.474 -0.0490 -0.9594 -0.4746
 5348TIP3   OH237534   1.425   2.822  17.168  0.1359 -0.0607 -0.4456
 5348TIP3    H137535   1.503   2.875  17.157 -0.0765  0.2790 -0.3203
 5348TIP3    H237536   1.365   2.854  17.100 -0.5247  0.8413  0.5374
 5349TIP3   OH237537   5.924   0.574  12.769 -0.3329  0.8810 -0.6043
 5349TIP3    H137538   6.019   0.580  12.758 -0.4392  1.2492 -1.3673
 5349TIP3    H237539   5.889   0.588  12.681 -1.0782  0.3354 -0.3978
 5350TIP3   OH237540   3.862   0.222   2.245 -0.0590 -0.0548  0.7799
 5350TIP3    H137541   3.826   0.296   2.198  0.4985 -0.2804 -0.0089
 5350TIP3    H237542   3.935   0.257   2.295 -0.4745  0.1277  1.2739
 5351TIP3   OH237543   5.165   3.770   5.650  0.1326  0.3957  0.1851
 5351TIP3    H137544   5.228   3.792   5.582  0.8511  0.8597  0.9830
 5351TIP3    H237545   5.098   3.838   5.643 -0.8352 -0.6346 -1.2939
 5352TIP3   OH237546   4.214   3.020   4.911 -0.5143 -0.1858 -0.4664
 5352TIP3    H137547   4.212   2.985   5.000  0.1111  1.5245  0.2523
 5352TIP3    H237548   4.305   3.009   4.883 -0.5627 -0.1181 -0.6477
 5353TIP3   OH237549   2.042   1.103   2.742 -0.1573  0.0722  0.3080
 5353TIP3    H137550   2.066   1.148   2.662 -1.3163 -0.3512 -0.3034
 5353TIP3    H237551   1.966   1.151   2.775  0.6191  0.5614  1.4462
 5354TIP3   OH237552   1.267   1.286   4.670 -0.2994 -0.7622 -0.4912
 5354TIP3    H137553   1.297   1.374   4.648 -2.4100  0.4700  1.2135
 5354TIP3    H237554   1.185   1.276   4.623 -0.9803 -1.1028  0.7299
 5355TIP3   OH237555   0.641   6.386  12.926 -0.7724 -0.4361  0.3147
 5355TIP3    H137556   0.657   6.367  13.019  2.4280 -0.9980 -0.2250
 5355TIP3    H237557   0.707   6.334  12.880 -2.5724 -0.5180 -2.3375
 5356TIP3   OH237558   6.449   5.770   3.616 -0.0206  0.1297  0.6123
 5356TIP3    H137559   6.463   5.838   3.551 -1.9806 -1.2450 -1.3956
 5356TIP3    H237560   6.364   5.792   3.656 -0.0171 -0.3831  0.9117
 5357TIP3   OH237561   4.133   4.148  16.960  0.5380 -0.2458 -0.0377
 5357TIP3    H137562   4.132   4.242  16.980  0.3974 -0.4669  1.0474
 5357TIP3    H237563   4.183   4.108  17.031  0.8957 -0.9622 -0.6733
 5358TIP3   OH237564   1.837   1.250   2.959 -0.2102 -0.7643 -0.3374
 5358TIP3    H137565   1.918   1.213   2.993  0.1184 -1.6550 -1.9372
 5358TIP3    H237566   1.769   1.222   3.020  0.6959  0.2414  1.1778
 5359TIP3   OH237567   5.468   4.234  12.434 -0.6153  0.7807 -0.2159
 5359TIP3    H137568   5.446   4.147  12.401 -2.4390  1.2090 -0.2807
 5359TIP3    H237569   5.545   4.221  12.489 -0.0064 -0.6267 -1.3399
 5360TIP3   OH237570   2.187   5.986   4.233 -0.2425 -0.1677 -0.1028
 5360TIP3    H137571   2.172   5.919   4.166  2.2390 -0.5920 -0.3630
 5360TIP3    H237572   2.189   5.938   4.316 -1.8550  0.1398  0.1399
 5361TIP3   OH237573   2.306   1.146  17.068 -0.0755  0.0965  0.4054
 5361TIP3    H137574   2.323   1.191  16.985  2.4137 -1.8531 -0.2374
 5361TIP3    H237575   2.374   1.177  17.127 -1.3264  0.8264  1.5293
 5362TIP3   OH237576   2.776   5.364  16.758 -0.5833  0.3115 -0.1936
 5362TIP3    H137577   2.732   5.449  16.751 -1.0996 -0.0477 -1.8767
 5362TIP3    H237578   2.868   5.386  16.773 -1.0807  1.0924  2.0683
 5363TIP3   OH237579   2.655   2.236   0.461  0.2110  0.4445  0.0586
 5363TIP3    H137580   2.614   2.163   0.508  3.0985 -0.8050  0.8655
 5363TIP3    H237581   2.683   2.296   0.531 -0.8016  1.6262 -0.5158
 5364TIP3   OH237582   4.054   3.236  13.368  0.2743  0.3380  0.0866
 5364TIP3    H137583   3.964   3.208  13.387  0.8262 -2.0649 -0.4600
 5364TIP3    H237584   4.081   3.285  13.446 -1.1447  0.1398  0.7378
 5365TIP3   OH237585   5.406   1.929  15.384  0.2094 -0.1314 -0.2960
 5365TIP3    H137586   5.363   1.848  15.358  0.2272  0.4379 -2.3462
 5365TIP3    H237587   5.451   1.958  15.305 -1.0226  2.6180 -0.1147
 5366TIP3   OH237588   1.123   3.071   1.253 -0.2645 -0.0751  0.1101
 5366TIP3    H137589   1.132   2.982   1.287 -0.3239 -0.4245 -0.7648
 5366TIP3    H237590   1.101   3.124   1.330 -1.9896 -1.0918  0.3529
 5367TIP3   OH237591   1.756   5.144   3.311 -0.0031 -0.1844  0.4256
 5367TIP3    H137592   1.702   5.223   3.316 -1.7836 -1.3793  0.8872
 5367TIP3    H237593   1.846   5.176   3.320 -0.6726  1.7875  0.5179
 5368TIP3   OH237594   5.327   4.447  17.066 -0.2177  0.0282 -0.0967
 5368TIP3    H137595   5.353   4.536  17.041  0.3616 -0.2023 -0.3264
 5368TIP3    H237596   5.392   4.391  17.026  0.1067 -0.4295  1.0357
 5369TIP3   OH237597   3.164   1.270   6.166  0.0381  0.3946  0.1302
 5369TIP3    H137598   3.088   1.262   6.224  0.7581 -1.9165  0.8229
 5369TIP3    H237599   3.147   1.208   6.095  1.1516  0.0594  0.1415
 5370TIP3   OH237600   3.495   4.125   5.488  0.3800 -0.2012  0.1231
 5370TIP3    H137601   3.504   4.188   5.416  1.0926  0.6711  0.9412
 5370TIP3    H237602   3.401   4.122   5.506  0.3958  1.3546  0.6499
 5371TIP3   OH237603   3.607   3.230   2.687 -0.4224  0.0854  0.0665
 5371TIP3    H137604   3.556   3.150   2.684 -0.7336  0.3119 -2.0260
 5371TIP3    H237605   3.692   3.203   2.721  0.1127 -1.5631 -2.3480
 5372TIP3   OH237606   6.218   4.245  16.252 -0.1767 -0.3321  0.4012
 5372TIP3    H137607   6.312   4.264  16.251 -0.0914 -0.5640 -2.0531
 5372TIP3    H237608   6.187   4.284  16.333  1.7855  1.1065  0.5476
 5373TIP3   OH237609   1.948   0.014   1.851  0.1957  0.5325  0.3713
 5373TIP3    H137610   1.948  -0.039   1.931  0.1568  1.3599  0.9339
 5373TIP3    H237611   2.012  -0.029   1.794 -1.0455 -1.1025  0.1256
 5374TIP3   OH237612   1.568   3.083  11.990  0.1200 -0.6003  0.2980
 5374TIP3    H137613   1.572   3.144  12.065  1.4391 -1.0000  0.5795
 5374TIP3    H237614   1.474   3.068  11.977 -0.1604 -2.0841  3.1658
 5375TIP3   OH237615   3.286   0.615  14.078 -0.0998  0.3917 -0.3239
 5375TIP3    H137616   3.286   0.575  14.166  0.2520 -1.4029 -1.0935
 5375TIP3    H237617   3.220   0.685  14.084 -1.4767 -0.9144  0.8527
 5376TIP3   OH237618   4.753   3.025  14.731 -0.1672 -0.1776 -0.1525
 5376TIP3    H137619   4.761   2.957  14.799  0.6398 -1.6114 -1.5937
 5376TIP3    H237620   4.722   2.977  14.654 -0.1994  1.2355 -1.0423
 5377TIP3   OH237621   1.047   5.155   4.237  0.5269 -0.5266 -0.2070
 5377TIP3    H137622   1.045   5.067   4.275 -2.6723 -0.7832 -0.6830
 5377TIP3    H237623   1.020   5.213   4.308  0.5247 -0.2084 -0.4645
 5378TIP3   OH237624   6.183   5.986   0.614 -0.4482  0.1790  0.7466
 5378TIP3    H137625   6.188   5.985   0.518  0.1204 -1.0605  0.7774
 5378TIP3    H237626   6.120   6.056   0.633 -0.1407  0.8409 -0.5036
 5379TIP3   OH237627   2.881   6.751  11.067 -0.0461 -0.2648  0.0633
 5379TIP3    H137628   2.862   6.836  11.029  1.8306 -0.5497 -1.7222
 5379TIP3    H237629   2.879   6.690  10.993 -0.1073 -1.5672  1.0870
 5380TIP3   OH237630   3.872   0.834  13.943 -0.3874  0.2243  0.8644
 5380TIP3    H137631   3.825   0.750  13.938 -0.5633  0.3961 -1.7050
 5380TIP3    H237632   3.964   0.809  13.950 -0.4720 -0.1915  0.5436
 5381TIP3   OH237633   0.071   2.152   4.316  0.6775 -0.2911  0.1134
 5381TIP3    H137634   0.028   2.132   4.399  1.2102 -0.4002  0.3658
 5381TIP3    H237635   0.083   2.247   4.317 -1.1508 -0.0046 -0.7445
 5382TIP3   OH237636   4.597   2.710  12.972 -0.0485 -0.0529  0.0250
 5382TIP3    H137637   4.512   2.666  12.973 -0.6744  1.1342  0.8505
 5382TIP3    H237638   4.589   2.780  13.037  1.9539 -0.6461  0.9877
 5383TIP3   OH237639   0.294   0.749   4.345 -0.5978  0.1432 -0.7505
 5383TIP3    H137640   0.367   0.782   4.293  1.4930 -0.1000  1.8202
 5383TIP3    H237641   0.326   0.667   4.382 -2.7906 -0.7787 -0.7769
 5384TIP3   OH237642   1.813   5.034   2.653  0.0040  0.2423 -0.8388
 5384TIP3    H137643   1.788   4.959   2.598 -1.9694 -2.0887  2.8264
 5384TIP3    H237644   1.885   5.002   2.706  0.3385  1.6004 -0.4363
 5385TIP3   OH237645   2.856   4.446   2.457 -0.5911  0.2223  0.5813
 5385TIP3    H137646   2.948   4.465   2.477 -0.6193  0.5779  0.3758
 5385TIP3    H237647   2.850   4.452   2.362 -0.6368 -0.6757  0.5201
 5386TIP3   OH237648   5.769   5.506  15.490  0.0845 -0.6287  0.7018
 5386TIP3    H137649   5.757   5.593  15.450 -1.1359 -1.5002 -0.9843
 5386TIP3    H237650   5.857   5.479  15.462  0.3437 -0.0861  0.9687
 5387TIP3   OH237651   0.205   0.591   2.590 -0.3561 -0.5031 -0.0303
 5387TIP3    H137652   0.199   0.581   2.495  4.0516 -1.4825 -0.4241
 5387TIP3    H237653   0.151   0.520   2.625 -0.8374 -1.0855 -1.8428
 5388TIP3   OH237654   6.192   0.376  11.743 -0.5317 -0.1797 -0.1231
 5388TIP3    H137655   6.178   0.342  11.831  1.0089  0.9468  0.6013
 5388TIP3    H237656   6.165   0.468  11.748  1.4600  0.4565 -0.2227
 5389TIP3   OH237657   3.485   3.861  15.703  0.4932 -0.2980  0.4540
 5389TIP3    H137658   3.514   3.867  15.612 -0.4330  0.2420  0.1828
 5389TIP3    H237659   3.517   3.776  15.733 -1.1889 -1.5519 -1.1002
 5390TIP3   OH237660   0.169   1.284  11.093 -0.3883  0.1189 -0.3611
 5390TIP3    H137661   0.097   1.338  11.060 -0.0671  0.2808 -0.8032
 5390TIP3    H237662   0.227   1.272  11.017 -0.0537 -0.1838 -0.0620
 5391TIP3   OH237663   2.845   6.112   3.559 -0.3176 -0.4148 -0.0160
 5391TIP3    H137664   2.906   6.181   3.535 -0.3066 -0.0408  1.0317
 5391TIP3    H237665   2.763   6.136   3.516 -0.6457  0.9158  1.2802
 5392TIP3   OH237666   3.506   4.298   4.598 -0.4498 -0.1359 -0.4907
 5392TIP3    H137667   3.435   4.300   4.534  1.2068 -0.7431 -2.4810
 5392TIP3    H237668   3.578   4.343   4.554  1.0962 -1.5480  0.4872
 5393TIP3   OH237669   1.048   5.854  17.057 -0.7842 -0.1728 -0.0758
 5393TIP3    H137670   0.954   5.856  17.072 -1.0857 -1.5676 -1.4009
 5393TIP3    H237671   1.068   5.761  17.043  0.2925  0.3431 -2.5166
 5394TIP3   OH237672   4.640   0.892   4.654  1.0119 -0.1515  0.6806
 5394TIP3    H137673   4.569   0.955   4.657 -0.6225 -1.5143 -2.9504
 5394TIP3    H237674   4.704   0.924   4.717 -1.5400  2.7164  2.0535
 5395TIP3   OH237675   6.576   2.933   5.300 -0.4249  0.5417 -0.8902
 5395TIP3    H137676   6.561   3.015   5.347  2.6161  0.5601  0.2826
 5395TIP3    H237677   6.670   2.932   5.284 -0.1855 -3.0831 -0.0899
 5396TIP3   OH237678   1.160   4.866  11.891 -0.2659 -0.2563 -0.0252
 5396TIP3    H137679   1.229   4.830  11.947 -1.0173 -1.2187  0.3247
 5396TIP3    H237680   1.200   4.872  11.804  0.6855  0.5428  0.4476
 5397TIP3   OH237681   1.835   3.294  13.327  0.1789  0.0679 -0.0026
 5397TIP3    H137682   1.837   3.299  13.231 -1.5979  2.7202 -0.0236
 5397TIP3    H237683   1.916   3.337  13.355 -0.1389  0.9553 -0.3744
 5398TIP3   OH237684   2.179   3.904   5.322  0.1742  0.4204  0.6794
 5398TIP3    H137685   2.136   3.977   5.278  0.7706 -0.4767 -1.5153
 5398TIP3    H237686   2.271   3.931   5.330  0.4047 -0.0933 -0.1758
 5399TIP3   OH237687   6.307   2.858   3.954 -0.3762  0.3844 -0.2411
 5399TIP3    H137688   6.299   2.825   4.044 -0.6080  1.1866  0.0376
 5399TIP3    H237689   6.331   2.781   3.903  2.3903  0.3585  0.9060
 5400TIP3   OH237690   2.005   5.966  13.704  0.3366  0.4729 -0.4576
 5400TIP3    H137691   1.974   5.900  13.641 -0.9709  2.5043 -2.0699
 5400TIP3    H237692   1.972   5.934  13.788 -2.9642  0.4912 -1.5738
 5401TIP3   OH237693   1.728   0.948   4.030  0.5598 -0.3077 -0.7155
 5401TIP3    H137694   1.739   0.968   3.937  3.4993  0.8034 -0.2285
 5401TIP3    H237695   1.803   0.989   4.073  0.1027 -2.0422  2.0050
 5402TIP3   OH237696   3.483   0.244  14.531  0.5459 -0.3925  0.0992
 5402TIP3    H137697   3.499   0.221  14.439 -0.1227 -1.7583  0.3019
 5402TIP3    H237698   3.389   0.261  14.536  0.6828  0.3136  0.4095
 5403TIP3   OH237699   1.685   4.654  14.569 -0.3250 -0.3356  0.0659
 5403TIP3    H137700   1.674   4.577  14.624 -2.3988  0.3009  0.6324
 5403TIP3    H237701   1.760   4.700  14.606  0.6508 -1.7937  0.0046
 5404TIP3   OH237702   4.440   0.723  15.346  0.3875  0.3669  0.1219
 5404TIP3    H137703   4.394   0.702  15.427 -2.1248  2.1382 -0.7275
 5404TIP3    H237704   4.376   0.709  15.277  1.5263  1.6430 -1.2720
 5405TIP3   OH237705   2.608   4.675  13.739  0.2878 -0.7724  0.1372
 5405TIP3    H137706   2.543   4.673  13.810  0.9212  0.7375  0.8049
 5405TIP3    H237707   2.556   4.675  13.659 -0.5342 -0.0487  0.6523
 5406TIP3   OH237708   3.587   3.496   2.310  0.2271  0.2055  0.5487
 5406TIP3    H137709   3.620   3.434   2.376 -0.4931  0.4755  1.1805
 5406TIP3    H237710   3.492   3.492   2.319  0.1510  0.9450  0.1745
 5407TIP3   OH237711   2.176   4.243  11.386 -0.6539 -0.5708  0.2161
 5407TIP3    H137712   2.089   4.246  11.346 -0.1437  2.0368 -0.9041
 5407TIP3    H237713   2.187   4.330  11.426  2.0147 -0.2025 -1.0891
 5408TIP3   OH237714   1.645   4.174   5.350 -0.2417  0.2217 -0.3519
 5408TIP3    H137715   1.684   4.129   5.275  1.2832 -0.0904  0.5724
 5408TIP3    H237716   1.702   4.249   5.366  0.2379 -0.4456  1.2656
 5409TIP3   OH237717   1.394   2.463   5.856 -0.3449 -0.3258 -0.1531
 5409TIP3    H137718   1.308   2.420   5.856 -0.8752  0.6617 -1.8295
 5409TIP3    H237719   1.395   2.513   5.938 -1.7412  0.3026 -0.4796
 5410TIP3   OH237720   4.564   1.289   4.178  0.4694  0.0058  0.1474
 5410TIP3    H137721   4.469   1.295   4.176  0.4802  0.1386 -0.0422
 5410TIP3    H237722   4.585   1.254   4.265  0.2940  0.8660  0.5528
 5411TIP3   OH237723   4.109   3.993  16.174  0.3082  0.6256  0.1119
 5411TIP3    H137724   4.051   4.057  16.216  0.9555  0.8805  0.6433
 5411TIP3    H237725   4.052   3.919  16.152 -0.5824  1.6364 -1.0978
 5412TIP3   OH237726   4.834   3.153  12.297  0.2931  0.4317 -0.2888
 5412TIP3    H137727   4.778   3.085  12.261 -0.2695  0.9512 -0.4033
 5412TIP3    H237728   4.891   3.107  12.359 -1.2811  0.1153  0.9936
 5413TIP3   OH237729   1.184   3.971  11.526 -0.1552  0.0044 -0.1828
 5413TIP3    H137730   1.202   4.021  11.447 -0.8628  0.6256  0.0294
 5413TIP3    H237731   1.270   3.954  11.565  0.1087  0.9742 -0.3201
 5414TIP3   OH237732   3.133   4.018   5.920 -0.4959  0.7033 -0.7924
 5414TIP3    H137733   3.065   3.989   5.982 -0.4931 -0.8398 -1.4666
 5414TIP3    H237734   3.178   3.938   5.895  2.7180  1.8004  0.8665
 5415TIP3   OH237735   1.995   1.372   0.559 -0.1469  0.0380  0.1853
 5415TIP3    H137736   1.902   1.393   0.551 -0.4038 -0.6766  1.0903
 5415TIP3    H237737   1.999   1.308   0.630  1.0954  0.4449  0.5120
 5416TIP3   OH237738   4.469   4.239  15.247 -0.0371  0.4845  0.0419
 5416TIP3    H137739   4.403   4.170  15.249  1.0952 -0.6263  1.0013
 5416TIP3    H237740   4.429   4.310  15.197 -1.1196 -0.9813 -1.2480
 5417TIP3   OH237741   3.363   1.611   1.886 -0.6876  0.6422 -0.7862
 5417TIP3    H137742   3.432   1.629   1.950 -1.9519 -0.7477  1.0909
 5417TIP3    H237743   3.407   1.614   1.801  1.7260 -0.4053  0.3339
 5418TIP3   OH237744   5.707   5.075   1.589  0.0805 -0.4342  0.5015
 5418TIP3    H137745   5.644   5.033   1.531 -1.6510 -0.0355  2.0082
 5418TIP3    H237746   5.703   5.168   1.566 -0.3809 -0.3183  1.0327
 5419TIP3   OH237747   0.873   4.847  11.854  0.1874 -0.3075 -0.4402
 5419TIP3    H137748   0.868   4.794  11.774 -0.6539  1.1510 -1.3937
 5419TIP3    H237749   0.967   4.856  11.869  0.3559 -1.2734 -0.7877
 5420TIP3   OH237750   1.161   0.313  17.071 -0.0108  0.1177 -0.1528
 5420TIP3    H137751   1.215   0.392  17.076 -0.5151  0.4737 -0.1741
 5420TIP3    H237752   1.183   0.263  17.149 -0.1323  0.5777  0.1827
 5421TIP3   OH237753   5.650   2.560   1.675 -0.1776  0.7017  0.1265
 5421TIP3    H137754   5.687   2.478   1.708  0.3632  0.3409 -1.3268
 5421TIP3    H237755   5.687   2.570   1.587 -0.5521  2.3042  0.1219
 5422TIP3   OH237756   0.901   4.561  13.541  0.5646  0.8125 -0.0966
 5422TIP3    H137757   0.835   4.524  13.599  0.0813  1.0215 -0.5035
 5422TIP3    H237758   0.982   4.559  13.592  0.9133 -2.1492 -0.6047
 5423TIP3   OH237759   1.917   5.326  15.339  0.3681 -0.4882 -0.0530
 5423TIP3    H137760   1.940   5.235  15.322  0.8556 -0.7115  1.5853
 5423TIP3    H237761   1.903   5.364  15.253  1.2493 -1.8373 -0.8252
 5424TIP3   OH237762   2.827   1.758  16.585  0.7837  0.0459  0.2425
 5424TIP3    H137763   2.752   1.811  16.559  0.8289  0.1727  0.3733
 5424TIP3    H237764   2.796   1.706  16.659  0.8387  0.1313  0.3256
 5425TIP3   OH237765   4.090   4.209  13.850  0.3463 -0.3563  0.1685
 5425TIP3    H137766   4.027   4.238  13.785 -0.7684 -0.0202  1.3568
 5425TIP3    H237767   4.065   4.255  13.930  0.3161 -2.3665  1.3927
 5426TIP3   OH237768   4.785   2.972   0.262 -0.4018  0.8615  0.6899
 5426TIP3    H137769   4.749   2.890   0.229 -0.9070  1.4589 -0.2841
 5426TIP3    H237770   4.873   2.977   0.225 -0.6508  1.1144  0.1183
 5427TIP3   OH237771   4.205   1.449  14.652  0.3833  0.2625  0.3439
 5427TIP3    H137772   4.282   1.502  14.673  1.8411 -2.2566  1.9334
 5427TIP3    H237773   4.235   1.388  14.585 -0.8434  0.5175 -0.4600
 5428TIP3   OH237774   4.202   3.768   2.325 -0.1973 -0.0523  0.1233
 5428TIP3    H137775   4.169   3.681   2.347 -0.6755  0.3655  1.0950
 5428TIP3    H237776   4.225   3.807   2.409  0.1120  0.7297 -0.3150
 5429TIP3   OH237777   0.859   3.827   2.581 -0.0607  0.2571  0.4106
 5429TIP3    H137778   0.866   3.855   2.490 -0.5576  1.6266  0.7660
 5429TIP3    H237779   0.833   3.906   2.628 -1.0897 -0.7212  1.5495
 5430TIP3   OH237780   2.747   3.549   4.739 -0.9813  0.0871 -0.4756
 5430TIP3    H137781   2.771   3.540   4.646 -0.3135 -0.0520 -0.2982
 5430TIP3    H237782   2.735   3.459   4.769  0.7648 -0.0063  0.0552
 5431TIP3   OH237783   0.484   5.041   3.408 -0.3085  0.0167  0.3937
 5431TIP3    H137784   0.392   5.017   3.398  0.4202 -3.4257  0.7284
 5431TIP3    H237785   0.509   5.079   3.324 -1.5690 -0.8137 -0.3847
 5432TIP3   OH237786   6.071   0.675   0.901 -0.2067  0.6770  0.4890
 5432TIP3    H137787   6.030   0.640   0.822 -0.6856  0.5147  0.8090
 5432TIP3    H237788   6.000   0.717   0.949 -0.2957 -0.7432  1.6812
 5433TIP3   OH237789   4.571   0.737   1.897  0.1817  0.3395  0.0363
 5433TIP3    H137790   4.507   0.747   1.826  0.6965  1.3237 -0.3034
 5433TIP3    H237791   4.521   0.752   1.977 -0.1270  0.5662 -0.1965
 5434TIP3   OH237792   2.113   4.633  12.627 -0.1075  0.0445 -0.2259
 5434TIP3    H137793   2.077   4.691  12.559 -0.1593 -0.1643 -0.3797
 5434TIP3    H237794   2.186   4.682  12.664  0.3507 -0.1135 -0.9035
 5435TIP3   OH237795   1.432   2.893   2.803 -0.3541  0.0608 -0.8069
 5435TIP3    H137796   1.496   2.857   2.741  0.7380  0.5885 -0.0134
 5435TIP3    H237797   1.463   2.866   2.889 -1.2825  0.2090 -0.4117
 5436TIP3   OH237798   1.518   0.200  13.741 -0.1216 -0.2099 -0.2417
 5436TIP3    H137799   1.592   0.145  13.768 -0.4148  0.7197  2.9314
 5436TIP3    H237800   1.554   0.258  13.674  1.5740 -0.9005  0.0169
 5437TIP3   OH237801   6.792   4.042   0.444  0.3382 -0.1381  0.3435
 5437TIP3    H137802   6.719   4.016   0.499 -0.0231 -2.4174 -1.0963
 5437TIP3    H237803   6.756   4.110   0.387 -0.0328  0.2690  1.0412
 5438TIP3   OH237804   4.241   5.736   5.889  0.2747  0.4560  0.7599
 5438TIP3    H137805   4.303   5.732   5.962  0.7230 -1.5394  0.3389
 5438TIP3    H237806   4.170   5.678   5.915  0.1090  0.2563 -0.1055
 5439TIP3   OH237807   5.236   3.419  13.156 -0.0956 -0.4291  0.1323
 5439TIP3    H137808   5.255   3.369  13.235  0.3268  0.6506  0.7385
 5439TIP3    H237809   5.142   3.436  13.159  0.1415  0.8583  1.1916
 5440TIP3   OH237810   4.932   4.963   0.197 -0.9086 -0.3146  1.0170
 5440TIP3    H137811   4.986   5.015   0.138 -1.1544  2.6889  3.2622
 5440TIP3    H237812   4.979   4.880   0.205  0.4328  0.1134 -1.3453
 5441TIP3   OH237813   5.684   2.144   4.663 -0.0651  0.2729 -0.0140
 5441TIP3    H137814   5.639   2.216   4.619 -0.3821  0.1240  0.0638
 5441TIP3    H237815   5.772   2.145   4.626  0.1380  1.1292  0.4782
 5442TIP3   OH237816   6.025   6.600  15.642 -0.2398  0.0114  0.3664
 5442TIP3    H137817   6.118   6.614  15.624 -0.3312 -1.0453 -1.1197
 5442TIP3    H237818   6.010   6.642  15.727  1.6030  0.1297  0.6679
 5443TIP3   OH237819   5.604   0.497   1.072 -0.6581 -0.2938 -0.0730
 5443TIP3    H137820   5.532   0.557   1.052  0.2130  1.3078  1.3794
 5443TIP3    H237821   5.658   0.499   0.993 -0.9618  0.3596 -0.2764
 5444TIP3   OH237822   5.591   6.748  15.963  0.1560 -0.1649  0.2293
 5444TIP3    H137823   5.641   6.763  16.043  0.0619  1.0835  0.0656
 5444TIP3    H237824   5.510   6.798  15.975 -1.1861 -2.2826  0.5655
 5445TIP3   OH237825   5.426   2.854  13.114 -0.2850 -0.0463 -0.7310
 5445TIP3    H137826   5.461   2.914  13.180  0.4336  0.1950 -1.3116
 5445TIP3    H237827   5.478   2.774  13.125 -0.4674 -0.1614 -0.7085
 5446TIP3   OH237828   5.265   5.504  16.659 -0.6755  0.3934  0.4774
 5446TIP3    H137829   5.294   5.446  16.730 -1.9609 -0.3779  0.4256
 5446TIP3    H237830   5.344   5.548  16.629  0.3180 -1.1671  0.6968
 5447TIP3   OH237831   3.229   5.852   4.649 -0.0911  0.0070  1.0016
 5447TIP3    H137832   3.293   5.895   4.707 -0.5459  1.0727  0.7305
 5447TIP3    H237833   3.247   5.888   4.563 -1.2504  0.5359  0.9747
 5448TIP3   OH237834   2.993   5.127  11.322 -0.1790 -0.5185 -0.6326
 5448TIP3    H137835   2.999   5.095  11.412  0.2901  0.5408 -0.2786
 5448TIP3    H237836   2.900   5.120  11.300 -0.4255 -0.0340  0.2209
 5449TIP3   OH237837   5.514   0.948  15.031  0.2496 -0.3354  0.4494
 5449TIP3    H137838   5.572   0.889  15.080 -1.2919  0.2550  3.1739
 5449TIP3    H237839   5.552   1.035  15.044 -0.7717 -0.0430  1.5710
 5450TIP3   OH237840   1.109   4.362  14.958  0.1378 -0.5601 -0.1834
 5450TIP3    H137841   1.063   4.430  15.007  0.0021  0.1599 -1.2658
 5450TIP3    H237842   1.198   4.362  14.995  0.6308  1.3656 -1.2066
 5451TIP3   OH237843   3.205   1.480  13.579  0.0250 -0.2121  0.0140
 5451TIP3    H137844   3.286   1.483  13.631  0.3716 -2.5735 -0.2813
 5451TIP3    H237845   3.137   1.455  13.641  0.0029 -0.7332 -0.2157
 5452TIP3   OH237846   4.295   1.375   6.078  0.3770  0.2020 -0.2264
 5452TIP3    H137847   4.387   1.352   6.089 -0.3363 -2.3284  1.4972
 5452TIP3    H237848   4.278   1.364   5.984  1.6785  0.0474 -0.4557
 5453TIP3   OH237849   3.804   0.753   0.511 -0.3331  0.0927  0.3662
 5453TIP3    H137850   3.725   0.782   0.464 -0.3992 -0.5197  0.0903
 5453TIP3    H237851   3.782   0.666   0.544  0.4186 -0.3126 -0.1749
 5454TIP3   OH237852   0.139   0.788  13.126 -0.5858 -0.0802  0.2908
 5454TIP3    H137853   0.151   0.705  13.079  0.1551  1.7911 -3.1433
 5454TIP3    H237854   0.219   0.799  13.177  0.8018 -0.0142 -1.8123
 5455TIP3   OH237855   4.050   5.671  12.145 -0.1441 -0.2938  0.1267
 5455TIP3    H137856   4.096   5.706  12.221 -2.7321  1.2974  1.0840
 5455TIP3    H237857   4.022   5.584  12.172  2.0717 -1.2447 -0.4340
 5456TIP3   OH237858   2.970   2.753  14.999 -0.5398  0.1006  0.3119
 5456TIP3    H137859   3.061   2.742  14.972 -1.5859 -2.7564 -2.7818
 5456TIP3    H237860   2.966   2.713  15.086  0.8624 -1.4521 -0.2679
 5457TIP3   OH237861   3.715   0.724   3.719  0.0940 -0.0892  0.8917
 5457TIP3    H137862   3.680   0.783   3.785 -0.0729  0.1460  0.5972
 5457TIP3    H237863   3.699   0.769   3.636  1.4918  0.2334  0.7699
 5458TIP3   OH237864   4.090   1.745   3.273 -0.1434 -0.3282 -0.2131
 5458TIP3    H137865   4.136   1.820   3.238 -0.3908 -0.1402 -0.1373
 5458TIP3    H237866   4.042   1.779   3.349  0.6009 -0.7783  0.4841
 5459TIP3   OH237867   1.013   6.592  16.834  0.0895 -0.1517  0.1666
 5459TIP3    H137868   1.048   6.573  16.922  0.4971  2.4880  0.6737
 5459TIP3    H237869   1.087   6.631  16.788 -0.6016  0.0372 -0.7885
 5460TIP3   OH237870   4.288   0.275   5.228 -0.5816  0.1105  0.6722
 5460TIP3    H137871   4.227   0.230   5.286 -1.9246 -1.1180 -1.5420
 5460TIP3    H237872   4.374   0.263   5.269 -1.2244 -2.3409  1.4614
 5461TIP3   OH237873   1.059   6.605  15.524 -0.0645 -0.8092 -0.5541
 5461TIP3    H137874   1.015   6.596  15.439 -0.3498  0.0711 -0.5109
 5461TIP3    H237875   0.996   6.652  15.578  0.4696 -0.5807 -0.1251
 5462TIP3   OH237876   2.146   3.919   2.354 -0.3655 -0.2535  1.0777
 5462TIP3    H137877   2.117   4.008   2.333  1.3293 -0.2516 -1.6274
 5462TIP3    H237878   2.079   3.863   2.316 -0.6243 -0.1725  1.4067
 5463TIP3   OH237879   3.151   1.551  14.016  0.1440  0.4508 -0.1985
 5463TIP3    H137880   3.075   1.585  13.969  0.2110  0.9857  0.0669
 5463TIP3    H237881   3.221   1.613  13.996  0.5960 -0.2022 -0.6867
 5464TIP3   OH237882   2.491   1.016  14.764 -0.3410 -0.1098 -0.5692
 5464TIP3    H137883   2.422   1.048  14.705 -1.1290 -1.0610 -0.2043
 5464TIP3    H237884   2.445   1.001  14.847  0.6291  0.6458  0.1176
 5465TIP3   OH237885   6.649   6.475  17.001 -0.3939 -0.3113 -0.0767
 5465TIP3    H137886   6.577   6.429  17.044 -0.6032  0.9998  1.0402
 5465TIP3    H237887   6.728   6.430  17.032 -0.6803 -1.4466 -0.9286
 5466TIP3   OH237888   0.493   4.716  10.254 -0.0448 -0.0722  0.2303
 5466TIP3    H137889   0.424   4.722  10.320 -2.0101 -1.2666 -1.6036
 5466TIP3    H237890   0.504   4.806  10.223 -0.7945  0.1312  0.5250
 5467TIP3   OH237891   6.297   1.477  16.062  0.2514 -0.4130  0.4565
 5467TIP3    H137892   6.208   1.479  16.096  0.6647 -2.2122  1.8443
 5467TIP3    H237893   6.289   1.501  15.970 -2.0465 -2.9916 -0.1436
 5468TIP3   OH237894   4.767   1.733  15.295 -0.4358  0.3066  1.0473
 5468TIP3    H137895   4.775   1.827  15.281  1.9706  0.6137  3.5999
 5468TIP3    H237896   4.674   1.719  15.312 -1.0736  1.9305 -0.7149
 5469TIP3   OH237897   1.145   3.814  15.098  0.0678 -0.1500 -0.3575
 5469TIP3    H137898   1.080   3.869  15.142 -1.2839 -1.1885 -0.9849
 5469TIP3    H237899   1.144   3.731  15.146  1.0427 -0.1398 -0.2970
 5470TIP3   OH237900   1.372   5.273   1.796 -0.0344  0.1486  0.4340
 5470TIP3    H137901   1.467   5.265   1.798 -0.0950 -1.1476 -0.6395
 5470TIP3    H237902   1.353   5.340   1.861  1.6961  1.3315 -0.2008
 5471TIP3   OH237903   3.052   5.532   1.638 -0.4886  0.2181 -0.0381
 5471TIP3    H137904   3.078   5.610   1.688  0.3871 -0.1216  0.0549
 5471TIP3    H237905   3.035   5.466   1.705 -0.5065  0.1142 -0.1469
 5472TIP3   OH237906   5.832   5.454   6.251  0.3746  0.6235  0.2240
 5472TIP3    H137907   5.812   5.516   6.321 -0.0341  0.2039  0.4772
 5472TIP3    H237908   5.804   5.499   6.171  0.7875  1.0783  0.3296
 5473TIP3   OH237909   4.617   0.478  11.283  0.7436  0.5556  0.4370
 5473TIP3    H137910   4.653   0.530  11.355 -0.1631  0.5914  0.8856
 5473TIP3    H237911   4.549   0.533  11.245  0.3761  0.0522  0.3480
 5474TIP3   OH237912   2.661   6.430  13.375 -1.2642 -0.4362 -0.2180
 5474TIP3    H137913   2.754   6.426  13.351 -0.2164  3.9903  1.9172
 5474TIP3    H237914   2.615   6.433  13.292  0.4556 -2.4856 -1.3427
 5475TIP3   OH237915   5.624   3.114   4.726 -0.2519 -0.4677  0.0466
 5475TIP3    H137916   5.632   3.079   4.815 -1.4661  3.0709  1.7512
 5475TIP3    H237917   5.670   3.198   4.729 -0.3061 -0.2350 -2.7405
 5476TIP3   OH237918   1.729   5.222  11.313  0.1015  0.3698  0.6535
 5476TIP3    H137919   1.701   5.154  11.374 -2.1318  0.8170  0.2042
 5476TIP3    H237920   1.740   5.177  11.230  1.3392  0.0982  0.9414
 5477TIP3   OH237921   1.994   3.698  11.867  0.1292  0.5141 -0.3837
 5477TIP3    H137922   1.999   3.624  11.806 -0.2265 -0.0183  0.2272
 5477TIP3    H237923   1.902   3.700  11.895 -0.0853  1.7608 -1.0884
 5478TIP3   OH237924   1.805   1.322  14.578 -0.1051 -0.2054  0.1748
 5478TIP3    H137925   1.894   1.355  14.572 -0.9982  2.0952 -2.4180
 5478TIP3    H237926   1.779   1.340  14.668  2.8623 -3.7173  2.0373
 5479TIP3   OH237927   2.924   2.562   1.516  0.2883 -0.0954 -0.3070
 5479TIP3    H137928   2.877   2.643   1.537 -2.2573 -1.7543  1.0173
 5479TIP3    H237929   2.972   2.541   1.596  3.2829  1.4535 -1.5724
 5480TIP3   OH237930   3.026   6.540   0.758 -0.1833 -0.4951  0.1272
 5480TIP3    H137931   3.023   6.449   0.727 -3.6845 -0.0469 -1.2143
 5480TIP3    H237932   2.971   6.541   0.837  0.5516  0.3238  0.6525
 5481TIP3   OH237933   3.449   4.956   5.972 -0.0076 -0.2651  0.1787
 5481TIP3    H137934   3.539   4.967   5.944 -0.6875  0.4388 -1.8990
 5481TIP3    H237935   3.420   5.044   5.997  0.1012 -0.6261  1.7161
 5482TIP3   OH237936   6.582   6.366  14.967  0.5479 -0.5299 -0.3154
 5482TIP3    H137937   6.583   6.291  15.026 -0.7151 -0.6139 -0.3783
 5482TIP3    H237938   6.666   6.410  14.982  0.1546 -0.4005  1.7340
 5483TIP3   OH237939   0.514   3.623  11.320  0.5020  0.2755  0.3736
 5483TIP3    H137940   0.438   3.629  11.377  0.3191 -0.0474  0.1657
 5483TIP3    H237941   0.483   3.655  11.235  0.8730  1.1132  0.5420
 5484TIP3   OH237942   4.433   1.458   2.281 -0.0320  0.2194 -0.5242
 5484TIP3    H137943   4.347   1.415   2.277  0.1986 -0.2779 -0.3286
 5484TIP3    H237944   4.436   1.498   2.368 -0.5963  1.4033 -1.0307
 5485TIP3   OH237945   6.770   0.014   3.389  0.0579  0.4680 -0.4593
 5485TIP3    H137946   6.720   0.016   3.307 -0.8754 -1.0934  0.0373
 5485TIP3    H237947   6.839  -0.050   3.372 -0.7247 -0.5959  0.2706
 5486TIP3   OH237948   3.382   5.002   1.429 -0.1863 -0.0892 -0.6695
 5486TIP3    H137949   3.415   4.999   1.519  0.0820 -0.8072 -0.7813
 5486TIP3    H237950   3.287   5.015   1.439 -0.0911  0.3431 -0.3002
 5487TIP3   OH237951   1.410   3.413   4.130  0.7427 -0.2275  0.1950
 5487TIP3    H137952   1.391   3.357   4.055 -1.7217 -0.9516  1.2477
 5487TIP3    H237953   1.417   3.352   4.204  0.9921  0.6328  0.8923
 5488TIP3   OH237954   6.057   1.086   4.537 -0.0581  0.1992  0.6812
 5488TIP3    H137955   6.145   1.057   4.562  0.5017  0.3384 -0.9623
 5488TIP3    H237956   6.072   1.163   4.483 -1.2717  0.8308  1.2137
 5489TIP3   OH237957   4.144   2.129   1.653  0.2815  0.0432 -0.0643
 5489TIP3    H137958   4.203   2.149   1.725 -0.0217  0.4184  0.0835
 5489TIP3    H237959   4.119   2.214   1.617  0.9370 -0.1565 -1.0375
 5490TIP3   OH237960   0.223   0.479  11.713  0.3037 -0.8767 -0.1621
 5490TIP3    H137961   0.277   0.421  11.658  2.5543 -0.7129  1.7119
 5490TIP3    H237962   0.240   0.448  11.802 -0.4014  1.1122  0.6977
 5491TIP3   OH237963   5.869   1.943  16.173  0.1743  0.3930  0.0002
 5491TIP3    H137964   5.805   1.904  16.232 -1.7444 -0.0507 -2.2325
 5491TIP3    H237965   5.843   2.035  16.168 -1.1392 -0.0194 -1.8148
 5492TIP3   OH237966   1.806   0.409  16.224 -0.4516  0.1475  0.1994
 5492TIP3    H137967   1.804   0.449  16.311  0.2849 -1.6026  1.0629
 5492TIP3    H237968   1.886   0.442  16.184 -0.5530  0.5823  0.3432
 5493TIP3   OH237969   5.978   4.862   2.274 -0.0078  1.0129  0.1187
 5493TIP3    H137970   5.896   4.862   2.224  0.8161  0.1344 -1.2961
 5493TIP3    H237971   6.043   4.826   2.214  1.1868  0.5780  1.6054
 5494TIP3   OH237972   3.238   4.016  15.068  0.0771 -0.0125 -0.0825
 5494TIP3    H137973   3.180   4.054  15.134  1.9942  0.5997  1.3327
 5494TIP3    H237974   3.283   4.092  15.029  0.4874 -0.5242 -0.6204
 5495TIP3   OH237975   0.430   4.431   1.187  0.4362 -0.6507  0.0212
 5495TIP3    H137976   0.463   4.514   1.223 -1.3326  0.4501 -0.7507
 5495TIP3    H237977   0.508   4.376   1.179  1.3485  0.0492  2.7450
 5496TIP3   OH237978   3.802   4.338   6.420  0.3012 -0.0237 -0.4170
 5496TIP3    H137979   3.726   4.382   6.459  0.6919  0.3948 -0.1232
 5496TIP3    H237980   3.823   4.392   6.343 -0.5706 -0.9342 -1.3366
 5497TIP3   OH237981   0.501   6.608  11.328 -0.5912  0.0028 -0.1806
 5497TIP3    H137982   0.429   6.596  11.389 -1.4313 -1.5920 -1.3799
 5497TIP3    H237983   0.559   6.534  11.346  0.6582  1.1353  0.6035
 5498TIP3   OH237984   3.596   1.706  16.817  0.5618  0.6307  0.4990
 5498TIP3    H137985   3.503   1.709  16.795  0.2147 -0.7671  1.6140
 5498TIP3    H237986   3.598   1.670  16.906  2.1904  0.2216  0.3227
 5499TIP3   OH237987   3.239   4.061   2.612 -0.0756  0.4044 -0.2062
 5499TIP3    H137988   3.222   4.018   2.696  0.5186  1.2901  0.3873
 5499TIP3    H237989   3.290   3.998   2.562 -0.9397 -0.3673 -0.1414
 5500TIP3   OH237990   2.973   1.591  15.546 -0.3456  0.0965  0.3514
 5500TIP3    H137991   3.017   1.566  15.466 -1.6286  0.1822 -0.4161
 5500TIP3    H237992   2.880   1.596  15.522 -0.7531  0.1872  1.8191
 5501TIP3   OH237993   3.212   4.151   5.504 -0.2127  0.2105  0.2083
 5501TIP3    H137994   3.189   4.121   5.416 -1.8242  0.6687  0.4504
 5501TIP3    H237995   3.142   4.211   5.529  1.0829  1.4120  1.1543
 5502TIP3   OH237996   0.287   6.294   1.140  0.2934 -0.1985 -0.1283
 5502TIP3    H137997   0.294   6.201   1.160  0.0279 -0.1705  0.1043
 5502TIP3    H237998   0.254   6.333   1.221  0.1215  0.0527 -0.3178
 5503TIP3   OH237999   3.131   0.478  17.142  0.6637  0.4207  0.1903
 5503TIP3    H138000   3.067   0.413  17.172  1.1842 -0.3979 -0.4312
 5503TIP3    H238001   3.154   0.451  17.053 -0.6049  2.6169 -0.8807
 5504TIP3   OH238002   4.370   0.095  11.042  0.4020  0.2659 -0.2224
 5504TIP3    H138003   4.407   0.012  11.072 -1.2380 -0.2058  0.6636
 5504TIP3    H238004   4.411   0.110  10.957  0.8768 -1.3802 -0.3312
 5505TIP3   OH238005   1.775   0.614   0.078 -0.0927  0.0113 -0.2812
 5505TIP3    H138006   1.783   0.582   0.168  0.3154  0.4999 -0.1429
 5505TIP3    H238007   1.793   0.708   0.083  2.1323 -0.3015 -1.1881
 5506TIP3   OH238008   1.365   5.074   4.566  0.7486  0.5629 -0.5143
 5506TIP3    H138009   1.272   5.090   4.551  1.0314  0.8274 -2.2245
 5506TIP3    H238010   1.390   5.013   4.497  1.4716 -1.0063  1.0544
 5507TIP3   OH238011   5.033   6.446   1.285 -0.1151  0.4493  0.1922
 5507TIP3    H138012   5.106   6.399   1.326  0.6765  1.3910 -0.1057
 5507TIP3    H238013   5.003   6.507   1.352  0.5334  1.2940 -0.2677
 5508TIP3   OH238014   1.199   0.763  15.820 -0.0704 -0.2290 -0.1650
 5508TIP3    H138015   1.195   0.668  15.829  1.0937 -0.4706 -1.7511
 5508TIP3    H238016   1.289   0.780  15.791 -0.4742  1.2899 -0.6050
 5509TIP3   OH238017   6.503   4.571  16.635  0.1906  0.3649 -0.8198
 5509TIP3    H138018   6.480   4.636  16.701  1.9583  2.7143 -2.3534
 5509TIP3    H238019   6.444   4.497  16.652 -0.7834  1.6685  2.0397
 5510TIP3   OH238020   3.679   1.232  16.773 -0.3929 -0.0864 -0.1118
 5510TIP3    H138021   3.670   1.137  16.776 -1.2189  0.0002  0.4513
 5510TIP3    H238022   3.743   1.253  16.840 -3.7229  0.1112  3.3380
 5511TIP3   OH238023   1.026   5.562   5.350 -0.0710 -0.0524 -0.2468
 5511TIP3    H138024   1.097   5.605   5.302  0.4924 -1.3012 -0.5779
 5511TIP3    H238025   0.984   5.506   5.285 -0.4662 -0.3864  0.2851
 5512TIP3   OH238026   4.484   0.131  14.293  0.3271 -0.1474  0.5943
 5512TIP3    H138027   4.506   0.052  14.244 -3.0789 -0.6100 -0.3972
 5512TIP3    H238028   4.426   0.180  14.236  1.1742  2.4385  1.7765
 5513TIP3   OH238029   2.068   4.971  13.081 -0.1616 -0.2327 -0.3207
 5513TIP3    H138030   2.042   4.979  12.989 -1.3624 -0.4400 -0.0231
 5513TIP3    H238031   2.029   5.047  13.123 -0.1154 -0.4505  0.1175
 5514TIP3   OH238032   0.393   6.261  12.839 -0.2602 -0.1051 -0.4971
 5514TIP3    H138033   0.407   6.204  12.763 -1.4732  0.2577 -1.0138
 5514TIP3    H238034   0.473   6.313  12.845 -0.3403  0.1967 -1.8202
 5515TIP3   OH238035   4.931   1.153  12.203 -0.1733  0.1181  0.1374
 5515TIP3    H138036   4.992   1.225  12.184 -1.4201  1.5069  1.1928
 5515TIP3    H238037   4.915   1.113  12.117  0.8968  0.7973 -0.4118
 5516TIP3   OH238038   3.124   6.276  11.400 -0.2845  1.0260 -0.7004
 5516TIP3    H138039   3.118   6.181  11.414 -3.6759  1.2680  0.3227
 5516TIP3    H238040   3.144   6.311  11.487 -3.8829  1.4340  0.1047
 5517TIP3   OH238041   0.509   1.498   6.689 -0.1620  0.0404  0.5399
 5517TIP3    H138042   0.507   1.589   6.717 -0.9414  0.6938 -1.4738
 5517TIP3    H238043   0.601   1.481   6.669 -0.1556  0.7212 -0.0459
 5518TIP3   OH238044   5.266   1.673   7.034  0.1948  0.3247 -0.6614
 5518TIP3    H138045   5.311   1.591   7.056  0.4302  0.7325  0.4218
 5518TIP3    H238046   5.335   1.733   7.007  0.1793  0.6128 -0.0603
 5519TIP3   OH238047   6.544   3.317   6.367  0.0340  0.8050 -0.3112
 5519TIP3    H138048   6.466   3.281   6.325 -0.1022  0.2769  0.3695
 5519TIP3    H238049   6.516   3.337   6.457 -0.3194  3.9888 -1.0065
 5520TIP3   OH238050   6.676   6.737  15.658  0.5543 -0.5077 -0.1049
 5520TIP3    H138051   6.624   6.664  15.624  0.3038 -0.9266  1.1100
 5520TIP3    H238052   6.718   6.775  15.581  0.2102 -1.5559 -0.8333
 5521TIP3   OH238053   2.933   5.562  16.083  0.1311  0.1213  0.4146
 5521TIP3    H138054   2.963   5.647  16.052 -0.4937  0.2065  0.0212
 5521TIP3    H238055   3.007   5.526  16.132  0.9889  0.1968 -0.7752
 5522TIP3   OH238056   6.747   0.576  15.536  0.1358  0.1620  0.1937
 5522TIP3    H138057   6.679   0.586  15.469 -1.8631  1.6783  2.2882
 5522TIP3    H238058   6.716   0.505  15.592 -2.1218  3.4520  3.5628
 5523TIP3   OH238059   6.080   3.047   3.614 -0.2196 -0.3437  0.1048
 5523TIP3    H138060   6.080   3.132   3.568 -2.1203 -0.3593 -0.0200
 5523TIP3    H238061   6.083   2.982   3.544  0.8814 -0.3866  0.1858
 5524TIP3   OH238062   4.376   5.217  11.674  0.2723 -0.5681 -0.1622
 5524TIP3    H138063   4.300   5.202  11.730  0.3802  0.7546  0.3795
 5524TIP3    H238064   4.339   5.245  11.591  0.1455 -1.0615 -0.2749
 5525TIP3   OH238065   5.596   0.668  14.565 -0.3916 -0.2507  0.0605
 5525TIP3    H138066   5.551   0.633  14.641 -0.7032 -0.7631 -0.3514
 5525TIP3    H238067   5.669   0.608  14.549  0.0449  0.2064  0.3298
 5526TIP3   OH238068   2.768   0.520  12.401 -0.0696 -0.2708  0.6425
 5526TIP3    H138069   2.804   0.591  12.454  0.3156 -0.2656  0.3744
 5526TIP3    H238070   2.752   0.559  12.316  2.7006 -1.1162 -0.3913
 5527TIP3   OH238071   1.518   4.532  14.406 -0.9947  0.3287 -0.0735
 5527TIP3    H138072   1.582   4.465  14.433  0.4623  1.5638 -0.3273
 5527TIP3    H238073   1.545   4.611  14.454 -0.5186  1.6403 -2.3843
 5528TIP3   OH238074   5.459   5.436   4.113 -0.2860 -0.1103 -0.4885
 5528TIP3    H138075   5.416   5.517   4.142  0.0046  0.9188 -2.7017
 5528TIP3    H238076   5.511   5.463   4.038  0.0840 -2.3170 -1.0777
 5529TIP3   OH238077   4.946   2.829   5.356 -0.4624  0.4009 -0.7451
 5529TIP3    H138078   4.940   2.920   5.329  0.3101  0.6389 -0.1214
 5529TIP3    H238079   5.001   2.788   5.289 -1.2253  0.2611 -1.3107
 5530TIP3   OH238080   4.901   3.284   0.450 -0.1843  0.0054 -0.2711
 5530TIP3    H138081   4.818   3.273   0.404 -0.4493 -0.5745  0.3280
 5530TIP3    H238082   4.880   3.270   0.543  0.2799  1.4877  0.0761
 5531TIP3   OH238083   6.205   3.576  12.349  0.1554 -0.0843 -0.2143
 5531TIP3    H138084   6.185   3.627  12.271 -0.4565 -1.4973 -1.0051
 5531TIP3    H238085   6.139   3.507  12.351  1.1564 -1.0587  0.6378
 5532TIP3   OH238086   4.337   0.527  14.562 -0.9857  0.8084  0.2728
 5532TIP3    H138087   4.329   0.459  14.629 -1.3451  0.5763  0.0011
 5532TIP3    H238088   4.247   0.556  14.547 -1.1862 -0.5947 -1.5826
 5533TIP3   OH238089   5.929   1.519   2.107 -0.2766 -0.6471  0.8978
 5533TIP3    H138090   5.896   1.601   2.145 -0.9373  0.3021 -1.5383
 5533TIP3    H238091   5.880   1.509   2.026  1.1303 -2.4937  0.2111
 5534TIP3   OH238092   1.437   6.621  10.735 -0.1697 -0.5233  0.2212
 5534TIP3    H138093   1.348   6.607  10.705 -0.4759 -2.4741  1.8112
 5534TIP3    H238094   1.474   6.533  10.745  1.4823  0.1914  0.8756
 5535TIP3   OH238095   0.630   0.017  13.568 -0.2017  0.1316  0.5539
 5535TIP3    H138096   0.602   0.073  13.641  1.8637  0.0770  1.4631
 5535TIP3    H238097   0.632  -0.071  13.605 -1.2448 -0.2388 -0.2255
 5536TIP3   OH238098   4.966   0.595   3.846  0.1436 -0.6331  0.0200
 5536TIP3    H138099   4.961   0.555   3.759 -0.8243 -1.8945  0.6135
 5536TIP3    H238100   5.021   0.673   3.834 -1.1802  0.0631 -2.0173
 5537TIP3   OH238101   6.291   1.842  12.035 -0.2020 -0.3401 -0.6354
 5537TIP3    H138102   6.264   1.758  12.072  0.7548 -0.7521 -0.8489
 5537TIP3    H238103   6.211   1.896  12.037 -0.2056 -0.2986  2.0808
 5538TIP3   OH238104   3.978   5.264   6.078 -0.1877  0.0602 -0.0067
 5538TIP3    H138105   4.050   5.204   6.059 -1.5686 -1.6148 -0.2415
 5538TIP3    H238106   3.910   5.241   6.015 -1.8303 -0.0834  1.7232
 5539TIP3   OH238107   5.906   1.445  16.665 -0.1450 -0.0123  0.8152
 5539TIP3    H138108   5.917   1.354  16.692 -1.4189  0.1176  1.8874
 5539TIP3    H238109   5.822   1.471  16.702 -2.2836  0.1390 -3.5511
 5540TIP3   OH238110   3.131   2.749  10.966  0.2003 -0.8245  0.0759
 5540TIP3    H138111   3.060   2.744  10.903 -1.0258 -3.1235  1.4892
 5540TIP3    H238112   3.207   2.779  10.916 -1.8380  2.4268 -1.3298
 5541TIP3   OH238113   4.797   5.850  15.070  0.2389  0.3142  0.1176
 5541TIP3    H138114   4.713   5.805  15.074  1.3406 -1.7850  1.7789
 5541TIP3    H238115   4.808   5.872  14.978 -0.2259 -3.3210 -0.9840
 5542TIP3   OH238116   4.422   1.058   3.541  0.5956  0.2604 -0.1893
 5542TIP3    H138117   4.496   1.084   3.596  0.8902 -0.4297 -0.2505
 5542TIP3    H238118   4.422   1.121   3.469 -0.2165  1.6145  0.9337
 5543TIP3   OH238119   3.681   3.648   2.097  0.5034  0.5251  1.2374
 5543TIP3    H138120   3.654   3.607   2.179  1.6467  0.7062  1.7244
 5543TIP3    H238121   3.733   3.724   2.124  0.7874  0.6637  0.3474
 5544TIP3   OH238122   0.921   6.389   3.349 -0.0400 -0.1583  0.5113
 5544TIP3    H138123   0.878   6.442   3.416  0.8444  0.6195  0.4867
 5544TIP3    H238124   1.011   6.380   3.379  0.4672  0.5118 -0.7328
 5545TIP3   OH238125   3.861   3.143  11.745  0.4214  0.1533 -0.0068
 5545TIP3    H138126   3.826   3.062  11.707 -2.3147  2.1995 -2.2112
 5545TIP3    H238127   3.794   3.172  11.806  0.7724  1.3789 -0.1727
 5546TIP3   OH238128   2.229   1.909   0.469 -0.0192 -0.0477  0.4391
 5546TIP3    H138129   2.155   1.866   0.512 -0.5353  0.4726  0.0828
 5546TIP3    H238130   2.228   1.999   0.503  0.8124 -0.1876  0.8779
 5547TIP3   OH238131   3.610   5.692  12.417  0.0407  0.1747  0.4357
 5547TIP3    H138132   3.546   5.744  12.466 -1.7822 -0.2365 -1.3725
 5547TIP3    H238133   3.647   5.754  12.354  0.1397  0.0037  0.3262
 5548TIP3   OH238134   4.748   5.973  13.929  0.1372 -0.2598  0.6645
 5548TIP3    H138135   4.841   5.991  13.942  0.1239  0.3394  0.0035
 5548TIP3    H238136   4.728   5.902  13.991  0.6681  0.6468  1.9137
 5549TIP3   OH238137   1.920   3.381  16.717  0.3036  0.2051  0.0156
 5549TIP3    H138138   1.891   3.390  16.808 -0.5753  0.6457 -0.2977
 5549TIP3    H238139   1.888   3.460  16.674  0.5113 -0.1136 -0.7334
 5550TIP3   OH238140   2.510   3.529  15.022  0.1416  0.0999  0.0274
 5550TIP3    H138141   2.417   3.525  15.042  0.0819  2.7530  0.6110
 5550TIP3    H238142   2.548   3.457  15.072 -1.7079 -2.0024 -1.3905
 5551TIP3   OH238143   1.998   3.964   0.571  0.2936  0.1146  0.0761
 5551TIP3    H138144   2.059   4.038   0.575  0.7136 -0.2300  0.1644
 5551TIP3    H238145   1.911   4.004   0.581  0.5194  0.5851  0.2097
 5552TIP3   OH238146   0.940   0.062  16.984 -0.2231 -0.2933 -0.5369
 5552TIP3    H138147   1.025   0.040  16.946 -0.8722 -0.5447 -1.8939
 5552TIP3    H238148   0.904   0.128  16.925 -0.2101  1.1683  1.0305
 5553TIP3   OH238149   4.185   2.372  12.361  0.1357 -0.7498  0.1374
 5553TIP3    H138150   4.203   2.302  12.298 -0.5534 -0.3049 -0.5761
 5553TIP3    H238151   4.094   2.356  12.388 -0.6366  0.7992 -1.3155
 5554TIP3   OH238152   5.128   5.889  12.891 -0.0585 -0.1401 -0.1708
 5554TIP3    H138153   5.048   5.869  12.842 -0.9068 -1.5683  1.6767
 5554TIP3    H238154   5.136   5.817  12.954  4.9361 -2.5058 -2.8632
 5555TIP3   OH238155   0.956   2.976   4.301  0.0651  0.3413 -0.0514
 5555TIP3    H138156   0.934   2.886   4.278 -0.7555  1.0246 -2.2856
 5555TIP3    H238157   0.872   3.018   4.319  0.0421  1.3995 -2.2736
 5556TIP3   OH238158   4.141   1.930  13.409  0.0469  0.3142 -0.1005
 5556TIP3    H138159   4.082   2.001  13.386 -1.4504 -1.5194 -2.3836
 5556TIP3    H238160   4.093   1.851  13.387  2.5375 -1.3468  0.0598
 5557TIP3   OH238161   0.582   5.496   3.964  0.1927 -0.3002  0.0079
 5557TIP3    H138162   0.528   5.420   3.984  0.3865 -0.1399  1.2233
 5557TIP3    H238163   0.672   5.464   3.967  0.2234 -0.6313 -2.2944
 5558TIP3   OH238164   6.196   5.152   1.309 -0.0343  0.3011  0.0121
 5558TIP3    H138165   6.228   5.068   1.344  1.5353  0.4420 -0.9527
 5558TIP3    H238166   6.126   5.177   1.368 -2.1296 -2.7696 -0.9261
 5559TIP3   OH238167   0.057   3.388  16.356 -0.0823  0.4830 -0.0919
 5559TIP3    H138168   0.104   3.472  16.350 -1.2283  1.0915 -0.8558
 5559TIP3    H238169   0.018   3.389  16.443  2.2564 -0.5822  1.0736
 5560TIP3   OH238170   2.499   0.927   0.962  0.1075 -0.6147  0.0516
 5560TIP3    H138171   2.496   0.909   1.056  0.3953 -0.4574  0.0891
 5560TIP3    H238172   2.483   1.021   0.954  0.9079 -0.4792 -0.0038
 5561TIP3   OH238173   2.960   1.182   0.685  0.5168 -0.0863 -0.2711
 5561TIP3    H138174   2.981   1.168   0.778  0.0252 -1.9789 -0.4109
 5561TIP3    H238175   2.876   1.139   0.673  0.0469  1.0943 -1.3793
 5562TIP3   OH238176   4.203   3.287   1.186  0.1541 -0.5115 -0.0650
 5562TIP3    H138177   4.249   3.333   1.256 -0.0778  1.7615 -1.3195
 5562TIP3    H238178   4.245   3.317   1.106 -1.3121 -1.0107 -1.0616
 5563TIP3   OH238179   4.545   0.373   5.877  0.0290  0.3691 -0.4997
 5563TIP3    H138180   4.543   0.305   5.809  1.4296 -1.0453  0.7972
 5563TIP3    H238181   4.496   0.335   5.950  0.9075  0.6884  0.2759
 5564TIP3   OH238182   1.639   4.248   3.978 -0.1677  0.2523  0.2544
 5564TIP3    H138183   1.687   4.269   3.898  2.3230  0.8456  1.7868
 5564TIP3    H238184   1.626   4.154   3.975 -0.8493  0.3679 -1.1941
 5565TIP3   OH238185   6.342   5.296  11.850 -0.1865  0.0032  0.0374
 5565TIP3    H138186   6.291   5.278  11.771  0.6483  0.2037 -0.5627
 5565TIP3    H238187   6.404   5.222  11.856 -1.3918 -0.9587  1.5088
 5566TIP3   OH238188   1.555   4.952   6.097  0.3986 -0.2796  0.5301
 5566TIP3    H138189   1.511   5.035   6.116 -2.9479 -1.6436 -0.4454
 5566TIP3    H238190   1.627   4.975   6.039 -0.5945  1.9000  0.0692
 5567TIP3   OH238191   3.479   4.125  14.735  0.1077  0.7506  0.3463
 5567TIP3    H138192   3.559   4.138  14.786  0.0823 -0.5924  0.7789
 5567TIP3    H238193   3.440   4.046  14.772 -1.8935  1.8445  0.7103
 5568TIP3   OH238194   3.022   4.034  11.879  0.2980  0.6019 -0.0389
 5568TIP3    H138195   3.027   4.020  11.784  1.0321  0.5338  0.0036
 5568TIP3    H238196   2.942   3.989  11.906  0.9352 -0.7768 -0.3831
 5569TIP3   OH238197   4.007   1.939   0.817  0.5097  0.0275  0.0540
 5569TIP3    H138198   3.954   1.878   0.868  1.0188  0.3124  0.9494
 5569TIP3    H238199   3.977   2.026   0.845 -0.1415  0.2061 -1.1360
 5570TIP3   OH238200   6.364   2.529   2.918  0.4789  0.0192  0.3482
 5570TIP3    H138201   6.293   2.468   2.938 -1.0535  0.0813 -4.0024
 5570TIP3    H238202   6.408   2.491   2.843  2.8927  1.7548  0.7669
 5571TIP3   OH238203   1.632   6.722   2.842 -0.5678  0.1522 -0.5900
 5571TIP3    H138204   1.641   6.755   2.931  0.6959  0.7827 -0.9376
 5571TIP3    H238205   1.714   6.675   2.825 -1.7102 -1.9485 -0.6353
 5572TIP3   OH238206   1.864   2.101  14.000  0.4479 -0.1017 -0.2896
 5572TIP3    H138207   1.949   2.143  13.999  0.1415  0.5411  0.3337
 5572TIP3    H238208   1.878   2.019  14.049  0.4212  0.6460  1.0172
 5573TIP3   OH238209   2.712   4.734   2.265  0.3553  0.5976  0.1373
 5573TIP3    H138210   2.749   4.726   2.177 -0.4408 -0.4302 -0.1148
 5573TIP3    H238211   2.786   4.763   2.319  0.3900  3.3570 -1.2064
 5574TIP3   OH238212   0.595   0.319  14.976  0.5110  0.1623  0.0595
 5574TIP3    H138213   0.658   0.253  15.006  1.6885  0.1171 -2.2584
 5574TIP3    H238214   0.531   0.326  15.047  0.5370 -3.2074  0.5715
 5575TIP3   OH238215   0.665   6.218  15.004  0.3474 -0.1544  0.3234
 5575TIP3    H138216   0.632   6.134  14.971  1.0133 -0.2564 -0.1006
 5575TIP3    H238217   0.724   6.249  14.936  1.0339  0.0791  1.0178
 5576TIP3   OH238218   4.390   5.366  12.113  0.5764  0.2020  0.0623
 5576TIP3    H138219   4.434   5.325  12.039  2.6858  1.2904  0.6309
 5576TIP3    H238220   4.356   5.449  12.078  0.8028  0.3132  0.1045
 5577TIP3   OH238221   1.411   2.696   6.119  0.4542  0.7940 -0.6295
 5577TIP3    H138222   1.500   2.660   6.114  0.4021  0.3090  1.2078
 5577TIP3    H238223   1.402   2.725   6.209 -0.9876  1.6185 -1.0062
 5578TIP3   OH238224   0.058   0.787   6.123  0.0548  0.3052 -0.1928
 5578TIP3    H138225   0.013   0.759   6.043 -1.2100 -0.7468  0.8455
 5578TIP3    H238226  -0.011   0.827   6.176  1.0155  1.6187  0.1222
 5579TIP3   OH238227   2.742   0.836  16.891  0.7120 -0.3650  0.0199
 5579TIP3    H138228   2.820   0.810  16.940 -0.3840 -1.4966  1.2587
 5579TIP3    H238229   2.729   0.928  16.913  1.1183 -0.4539  0.6387
 5580TIP3   OH238230   6.601   1.230   2.100  0.1438  0.0599 -0.2335
 5580TIP3    H138231   6.566   1.142   2.110  1.8554 -0.7861 -1.1904
 5580TIP3    H238232   6.695   1.217   2.083  0.2748  2.0072 -1.3089
 5581TIP3   OH238233   0.144   2.164  14.849  0.0635 -0.9698  0.4919
 5581TIP3    H138234   0.161   2.223  14.776 -0.8145  0.1396  1.1562
 5581TIP3    H238235   0.203   2.194  14.919  1.3381 -2.3995  0.0942
 5582TIP3   OH238236   0.479   5.064  11.177  0.5093 -0.1328 -0.7980
 5582TIP3    H138237   0.454   4.976  11.206 -0.0448  0.3703  0.3079
 5582TIP3    H238238   0.568   5.075  11.210  0.2532  0.0491 -0.1539
 5583TIP3   OH238239   3.527   2.353   4.930 -0.7880 -0.1591 -0.1901
 5583TIP3    H138240   3.581   2.423   4.966  0.2781 -1.2988  0.4958
 5583TIP3    H238241   3.532   2.365   4.836  0.2873  0.0478 -0.1196
 5584TIP3   OH238242   0.511   6.717  10.895  0.1669 -0.4358  0.2533
 5584TIP3    H138243   0.490   6.627  10.868 -1.1370  0.1210 -0.7028
 5584TIP3    H238244   0.433   6.767  10.872  0.9715  0.9975  0.5617
 5585TIP3   OH238245   3.800   3.933  14.578  0.0311 -0.5338 -0.0793
 5585TIP3    H138246   3.836   4.012  14.536 -2.5639  0.7938  0.0024
 5585TIP3    H238247   3.860   3.916  14.651 -0.4850  2.7827  1.3059
 5586TIP3   OH238248   6.380   4.292  11.403 -0.0481 -0.5513 -0.3604
 5586TIP3    H138249   6.456   4.244  11.434  2.0208  2.6021 -0.1920
 5586TIP3    H238250   6.346   4.239  11.331  0.4737 -3.4756  1.4015
 5587TIP3   OH238251   5.471   2.814  12.701  0.0612  0.5166 -0.0282
 5587TIP3    H138252   5.487   2.880  12.768  0.5309  1.2102 -0.7980
 5587TIP3    H238253   5.522   2.844  12.626  1.6170 -1.5445  0.1000
 5588TIP3   OH238254   0.886   2.223   0.686  0.3216 -0.2106 -0.4195
 5588TIP3    H138255   0.957   2.266   0.637 -0.9059  0.7130 -1.4508
 5588TIP3    H238256   0.821   2.201   0.619 -0.2037 -1.4169  0.4517
 5589TIP3   OH238257   3.562   5.103   3.289 -0.7130 -0.2558 -0.2007
 5589TIP3    H138258   3.640   5.067   3.246 -0.4536  0.1505 -0.0767
 5589TIP3    H238259   3.499   5.115   3.217  0.2941  1.9974 -0.8171
 5590TIP3   OH238260   5.706   3.453   4.787 -0.2675 -0.0579 -0.0359
 5590TIP3    H138261   5.677   3.535   4.827  2.5672  0.1490  1.8656
 5590TIP3    H238262   5.777   3.478   4.728 -1.3880 -0.8922 -1.8474
 5591TIP3   OH238263   3.652   3.223  14.347 -0.1814  0.4080 -0.0931
 5591TIP3    H138264   3.576   3.246  14.294 -1.5911 -1.9164  0.7859
 5591TIP3    H238265   3.615   3.179  14.424  2.0552 -2.2194 -0.3701
 5592TIP3   OH238266   5.207   4.718   4.207 -0.3213 -0.3735  0.1995
 5592TIP3    H138267   5.284   4.693   4.259 -0.5424  0.4486  0.9397
 5592TIP3    H238268   5.133   4.683   4.257 -0.4186 -1.7291 -0.8426
 5593TIP3   OH238269   1.422   4.296   1.727 -0.0849  0.2958  0.2839
 5593TIP3    H138270   1.364   4.222   1.710  1.0762 -0.3518 -1.0340
 5593TIP3    H238271   1.461   4.277   1.812 -3.2116  1.7447  2.2482
 5594TIP3   OH238272   6.786   0.130   3.983  0.3811 -0.4335  0.3944
 5594TIP3    H138273   6.711   0.136   4.043  0.2456 -1.7444  0.3800
 5594TIP3    H238274   6.851   0.080   4.032  1.2812  0.7488  0.4285
 5595TIP3   OH238275   0.837   3.574   0.363 -0.0530  0.5516 -0.2993
 5595TIP3    H138276   0.770   3.511   0.389  0.2693  0.3467  0.0420
 5595TIP3    H238277   0.817   3.594   0.272  0.3084 -0.6427 -0.6562
 5596TIP3   OH238278   4.481   1.740   1.755 -0.4980  0.5475 -0.1090
 5596TIP3    H138279   4.485   1.692   1.673  1.6292 -0.7565  0.6495
 5596TIP3    H238280   4.569   1.777   1.765 -0.4416  0.0250  1.8902
 5597TIP3   OH238281   5.830   2.620   4.082 -0.2956  0.3401 -0.0180
 5597TIP3    H138282   5.914   2.647   4.119  0.2334 -1.7372  0.4504
 5597TIP3    H238283   5.834   2.646   3.991  1.9207 -1.7578 -0.6248
 5598TIP3   OH238284   3.556   0.430   0.577 -0.1687 -0.2846 -0.5121
 5598TIP3    H138285   3.503   0.350   0.567 -1.7714  0.5409  0.8647
 5598TIP3    H238286   3.558   0.445   0.672  2.1347  0.0416 -0.5543
 5599TIP3   OH238287   5.300   5.128   2.462 -0.5664  0.4282  0.5215
 5599TIP3    H138288   5.254   5.130   2.546 -0.9090  0.5213  0.3361
 5599TIP3    H238289   5.255   5.060   2.412 -1.1059  1.1393  0.0059
 5600TIP3   OH238290   1.481   6.343   4.495 -0.1172 -0.4287  0.0406
 5600TIP3    H138291   1.386   6.353   4.498 -0.0298  0.6495 -0.3727
 5600TIP3    H238292   1.504   6.359   4.403  0.6985  1.8499  0.5762
 5601TIP3   OH238293   1.326   6.468  12.667 -0.1678  0.7163 -0.0914
 5601TIP3    H138294   1.322   6.470  12.763 -1.9176 -1.1454 -0.0450
 5601TIP3    H238295   1.249   6.519  12.640  0.5343  1.5604 -0.5512
 5602TIP3   OH238296   3.235   4.766   0.760 -0.2344  0.3270  0.1095
 5602TIP3    H138297   3.277   4.686   0.730 -1.6561 -0.1910 -0.5903
 5602TIP3    H238298   3.146   4.739   0.784 -0.9154  1.7832 -0.6502
 5603TIP3   OH238299   0.668   1.441   5.074  0.8183 -0.0829  0.1567
 5603TIP3    H138300   0.654   1.518   5.129 -0.8564 -0.4403  0.2684
 5603TIP3    H238301   0.723   1.383   5.126 -0.3806 -0.2242  1.3077
 5604TIP3   OH238302   5.091   2.939   3.641  0.1757 -0.1026  0.0502
 5604TIP3    H138303   5.099   2.989   3.560  0.8756  0.6086  0.5394
 5604TIP3    H238304   5.147   2.985   3.703 -0.8918 -0.2240  1.1454
 5605TIP3   OH238305   3.006   0.301   1.412  0.3108  0.2797 -0.0994
 5605TIP3    H138306   2.949   0.234   1.449 -0.2241  1.5204  1.3998
 5605TIP3    H238307   3.021   0.363   1.484  1.8177  1.1106 -1.0722
 5606TIP3   OH238308   2.998   5.462  10.718 -0.3475  0.3405  0.4657
 5606TIP3    H138309   2.976   5.391  10.657  0.0834 -0.3571  1.0988
 5606TIP3    H238310   2.930   5.527  10.705 -1.4445 -0.7213  0.7175
 5607TIP3   OH238311   4.034   2.848  16.645  0.3270  1.0600  0.1648
 5607TIP3    H138312   4.117   2.802  16.645 -0.4270 -0.4826  2.4908
 5607TIP3    H238313   4.056   2.938  16.667  1.5851  1.3790 -2.0942
 5608TIP3   OH238314   6.398   5.875  13.007 -0.1353  0.3068  0.2271
 5608TIP3    H138315   6.401   5.964  12.973 -0.3137  0.0323 -0.5392
 5608TIP3    H238316   6.305   5.858  13.022 -0.1343  0.1483  0.0676
 5609TIP3   OH238317   2.731   1.027  12.996  0.3968  0.1273  0.6202
 5609TIP3    H138318   2.739   1.097  13.060  0.9962  1.7843 -1.1647
 5609TIP3    H238319   2.820   1.012  12.965  0.2274 -1.1967  0.7017
 5610TIP3   OH238320   3.143   5.706  11.177 -0.6072  0.0162  0.1793
 5610TIP3    H138321   3.118   5.797  11.159 -2.4181  0.0849  2.4755
 5610TIP3    H238322   3.237   5.710  11.192 -0.0340  0.8692 -2.9445
 5611TIP3   OH238323   0.015   3.650  14.450  0.3013 -0.7796  0.0671
 5611TIP3    H138324   0.061   3.573  14.485 -0.3737 -0.4316  1.8573
 5611TIP3    H238325  -0.066   3.654  14.502  0.4407  1.2839  0.1909
 5612TIP3   OH238326   5.151   5.535   1.666 -0.5608 -0.5482  0.1939
 5612TIP3    H138327   5.069   5.519   1.619  0.3678  0.2569 -1.8396
 5612TIP3    H238328   5.203   5.456   1.651 -0.3749 -0.4072  0.0748
 5613TIP3   OH238329   3.238   2.919  12.402 -0.5816 -0.3712 -0.8780
 5613TIP3    H138330   3.266   2.883  12.318 -0.2055 -0.5472 -0.6811
 5613TIP3    H238331   3.314   2.967  12.434 -0.6637 -0.4453 -0.5628
 5614TIP3   OH238332   1.795   3.730   4.860 -0.2570  0.2487  0.5136
 5614TIP3    H138333   1.772   3.735   4.953 -1.9352 -1.4912  0.2518
 5614TIP3    H238334   1.837   3.644   4.851 -0.8143  0.0685 -0.4732
 5615TIP3   OH238335   4.644   2.750   2.743  0.0776 -0.3453  0.0500
 5615TIP3    H138336   4.669   2.821   2.684 -0.7940  1.0439  1.2871
 5615TIP3    H238337   4.713   2.749   2.811 -0.6333  0.2609  0.7968
 5616TIP3   OH238338   4.277   5.643  16.132 -0.1259 -0.6035  0.0350
 5616TIP3    H138339   4.196   5.686  16.158 -0.1775  0.0134 -1.0929
 5616TIP3    H238340   4.310   5.695  16.059 -0.8238 -3.1046 -2.2383
 5617TIP3   OH238341   5.525   2.072  15.970 -0.0019  0.6968 -0.2497
 5617TIP3    H138342   5.476   2.036  15.897  1.0097  0.5753 -0.8894
 5617TIP3    H238343   5.617   2.066  15.943  0.4624 -0.0626  1.3265
 5618TIP3   OH238344   4.846   3.960   2.465 -0.5376  0.0377 -0.4284
 5618TIP3    H138345   4.867   4.028   2.401  1.4202 -0.3593 -0.2621
 5618TIP3    H238346   4.789   4.004   2.528 -1.5408  0.7500 -1.7703
 5619TIP3   OH238347   5.280   5.955  15.569  0.1253 -0.3305 -0.8042
 5619TIP3    H138348   5.196   5.983  15.533  0.3123 -0.2652 -1.1896
 5619TIP3    H238349   5.300   5.874  15.522 -0.1125 -0.7900 -0.1359
 5620TIP3   OH238350   6.583   0.866   4.156  0.7741 -0.2003 -0.3068
 5620TIP3    H138351   6.586   0.961   4.157  0.1176 -0.1778 -0.0539
 5620TIP3    H238352   6.675   0.839   4.156  1.0470  0.4318 -3.0629
 5621TIP3   OH238353   1.180   2.916  14.714  0.5070 -0.1987 -0.2223
 5621TIP3    H138354   1.199   2.977  14.785  1.5379  1.7537 -2.0387
 5621TIP3    H238355   1.116   2.962  14.660 -0.5835 -1.8213 -0.3737
 5622TIP3   OH238356   6.096   1.495   2.625 -0.8531 -0.4769  0.2724
 5622TIP3    H138357   6.050   1.418   2.591 -1.2945 -0.1062  0.0278
 5622TIP3    H238358   6.042   1.569   2.598  1.5802  0.3240 -3.1237
 5623TIP3   OH238359   4.590   6.477  11.262  0.2872 -0.1282 -0.0935
 5623TIP3    H138360   4.502   6.441  11.247  0.4307  0.0032 -1.3444
 5623TIP3    H238361   4.598   6.547  11.197  0.8699  0.6652  0.8129
 5624TIP3   OH238362   3.797   0.144   5.912 -0.1064  0.7747  0.1453
 5624TIP3    H138363   3.819   0.097   5.831  0.3689 -0.4545  0.9484
 5624TIP3    H238364   3.751   0.078   5.965  0.3774  1.2937  1.2242
 5625TIP3   OH238365   0.234   0.858   1.057  0.0554 -0.1253 -0.0859
 5625TIP3    H138366   0.140   0.874   1.057 -0.1417 -1.2140  0.3492
 5625TIP3    H238367   0.243   0.765   1.039  1.0574 -0.0181 -0.2072
 5626TIP3   OH238368   0.755   1.446  11.543  0.6633 -0.4877 -0.0482
 5626TIP3    H138369   0.669   1.455  11.585 -0.2523 -0.4642 -1.7944
 5626TIP3    H238370   0.818   1.445  11.615 -0.8823 -1.5726  1.3605
 5627TIP3   OH238371   1.452   2.241   1.649 -0.2641  0.2129  0.2463
 5627TIP3    H138372   1.469   2.336   1.645 -0.0475  0.1524 -3.0354
 5627TIP3    H238373   1.359   2.233   1.629 -0.1975 -0.2865  0.1291
 5628TIP3   OH238374   5.845   4.703   5.593  0.5175 -0.5676  0.0759
 5628TIP3    H138375   5.767   4.751   5.619 -0.2272 -0.8251 -1.5579
 5628TIP3    H238376   5.918   4.754   5.627 -0.3273  0.4428  0.3989
 5629TIP3   OH238377   3.327   1.334  16.905  0.4796  0.1787  0.1232
 5629TIP3    H138378   3.390   1.341  16.977 -0.3967 -0.2708  0.9717
 5629TIP3    H238379   3.277   1.255  16.925  0.1764  0.0898 -0.9565
 5630TIP3   OH238380   6.126   5.426   0.366  0.1032  0.1355  0.2249
 5630TIP3    H138381   6.034   5.440   0.389  0.2180  0.5794  0.4211
 5630TIP3    H238382   6.143   5.335   0.392 -0.4823 -0.1938 -0.5106
 5631TIP3   OH238383   0.441   6.534  15.876  0.0562 -0.2139 -0.6118
 5631TIP3    H138384   0.447   6.616  15.925  1.0139 -0.6330 -0.0051
 5631TIP3    H238385   0.528   6.521  15.838  0.4657 -1.7954  0.7254
 5632TIP3   OH238386   0.642   3.563   6.531  0.1319 -0.1884 -0.1912
 5632TIP3    H138387   0.607   3.583   6.444 -4.0734 -0.3911  1.1803
 5632TIP3    H238388   0.686   3.478   6.521 -0.4952 -0.3362 -2.0672
 5633TIP3   OH238389   5.373   1.977  15.690 -0.1017  0.0386  0.6282
 5633TIP3    H138390   5.314   1.903  15.673  2.2020 -1.9435  0.8052
 5633TIP3    H238391   5.393   2.011  15.603 -0.7772  0.1414  0.5073
 5634TIP3   OH238392   1.038   3.416  14.155  0.9078  0.3715 -0.3351
 5634TIP3    H138393   1.028   3.510  14.141  2.4667  0.8856  1.5269
 5634TIP3    H238394   1.127   3.397  14.123  0.5952 -0.4849 -0.7238
 5635TIP3   OH238395   3.664   6.752  13.009  0.0775 -0.5750  0.0604
 5635TIP3    H138396   3.633   6.718  12.925  0.6658  3.4851 -2.1112
 5635TIP3    H238397   3.586   6.783  13.053  0.0381  0.6019 -0.7804
 5636TIP3   OH238398   4.561   4.041   3.999  0.2809  0.5213 -0.4174
 5636TIP3    H138399   4.510   4.100   3.944 -0.7116 -1.4037 -1.7082
 5636TIP3    H238400   4.495   3.994   4.051  0.6529 -1.8659 -1.9496
 5637TIP3   OH238401   6.822   5.058  14.572  0.0858 -0.0018 -0.1772
 5637TIP3    H138402   6.808   5.077  14.665 -0.1168  1.0069 -0.4005
 5637TIP3    H238403   6.733   5.051  14.536  0.1555 -1.1082 -0.1692
 5638TIP3   OH238404   3.706   2.443  15.052 -0.0858 -0.3773  0.4152
 5638TIP3    H138405   3.653   2.440  14.972 -0.0362 -0.5991  0.3891
 5638TIP3    H238406   3.721   2.536  15.068  1.2957 -0.3738 -0.7541
 5639TIP3   OH238407   6.453   1.648   3.061 -0.1118 -0.6743  1.3246
 5639TIP3    H138408   6.425   1.571   3.011  0.7742 -0.8842  1.1335
 5639TIP3    H238409   6.427   1.722   3.006  1.3418 -0.9113  0.2413
 5640TIP3   OH238410   6.249   0.433  12.110 -0.0719 -0.4003 -0.1603
 5640TIP3    H138411   6.164   0.476  12.107  0.0050 -0.2299  0.0500
 5640TIP3    H238412   6.235   0.347  12.070  0.3258  0.7456 -3.0614
 5641TIP3   OH238413   2.380   4.282  13.910  0.1365  0.2085  0.5490
 5641TIP3    H138414   2.335   4.328  13.982  0.4801 -0.1279  0.9864
 5641TIP3    H238415   2.321   4.210  13.888  0.2612  0.0122  0.8427
 5642TIP3   OH238416   3.958   4.492   1.020 -0.0144  0.7501 -0.0733
 5642TIP3    H138417   3.864   4.486   1.041 -0.1004 -0.8220 -0.8144
 5642TIP3    H238418   3.990   4.402   1.025  1.1801  1.0939 -1.1030
 5643TIP3   OH238419   4.178   6.226  11.230 -0.1213 -0.0733 -0.1324
 5643TIP3    H138420   4.145   6.137  11.221 -0.5725 -0.0875  1.4698
 5643TIP3    H238421   4.100   6.282  11.228  0.0838  0.2169 -0.1766
 5644TIP3   OH238422   2.948   5.215  16.246 -0.0331 -0.4024 -0.0004
 5644TIP3    H138423   2.913   5.284  16.303  0.1680  1.2857 -1.8350
 5644TIP3    H238424   3.013   5.170  16.300 -2.5526 -1.4868  2.4059
 5645TIP3   OH238425   5.147   2.599   0.985  0.4681  0.3593 -0.1100
 5645TIP3    H138426   5.161   2.609   1.080 -1.4420 -2.8492  0.6524
 5645TIP3    H238427   5.083   2.666   0.963  1.9200  2.0372  0.4992
 5646TIP3   OH238428   1.724   3.679   2.189  0.7610  0.6133  0.5108
 5646TIP3    H138429   1.669   3.747   2.229  1.5536  0.2092  2.4296
 5646TIP3    H238430   1.668   3.602   2.185  0.0870  1.1575 -0.9848
 5647TIP3   OH238431   4.103   3.769   3.048  0.1590 -0.2141  0.1924
 5647TIP3    H138432   4.047   3.738   3.118 -0.0326  1.5478  0.8782
 5647TIP3    H238433   4.190   3.777   3.088  0.2489 -0.0695 -0.0279
 5648TIP3   OH238434   3.681   5.024  12.477  0.6127 -0.3819  1.0165
 5648TIP3    H138435   3.646   4.942  12.511 -0.8589 -1.4399 -2.6706
 5648TIP3    H238436   3.605   5.079  12.461  1.4641  1.1170  1.7909
 5649TIP3   OH238437   4.936   1.050   6.427  0.4346  0.9875 -0.1464
 5649TIP3    H138438   4.986   1.098   6.493 -0.7029  0.2496  1.3522
 5649TIP3    H238439   4.994   0.979   6.400  2.3457  3.3543 -2.7982
 5650TIP3   OH238440   3.215   6.505   4.083  0.0712 -0.2594 -0.3934
 5650TIP3    H138441   3.272   6.515   4.006  0.7798  1.4103  0.3034
 5650TIP3    H238442   3.171   6.590   4.092  0.0209 -0.4134  1.0557
 5651TIP3   OH238443   6.079   1.329  11.392 -0.6519  0.0060  0.1113
 5651TIP3    H138444   6.033   1.391  11.449 -0.5490  1.0970 -0.9589
 5651TIP3    H238445   6.119   1.384  11.324  1.7714 -0.9356  0.6660
 5652TIP3   OH238446   1.286   0.650   4.694 -0.4505 -0.3830  0.0074
 5652TIP3    H138447   1.286   0.580   4.760  1.0537 -2.3119 -1.9259
 5652TIP3    H238448   1.215   0.708   4.722 -1.2513 -2.2235  2.1345
 5653TIP3   OH238449   6.613   1.047  11.313  0.0092  0.0315  0.2971
 5653TIP3    H138450   6.640   1.088  11.395  0.9390 -1.8428  0.9726
 5653TIP3    H238451   6.544   0.986  11.337 -0.1782 -0.0457 -0.4135
 5654TIP3   OH238452   3.428   6.547   4.619 -0.0941  0.3289  0.0070
 5654TIP3    H138453   3.439   6.536   4.525 -0.7296  1.0180 -0.1614
 5654TIP3    H238454   3.443   6.640   4.634  0.6479  0.1109  0.6942
 5655TIP3   OH238455   2.208   4.287  13.525  0.3944 -0.1539 -0.2389
 5655TIP3    H138456   2.303   4.278  13.531  0.4725  0.5518 -0.3566
 5655TIP3    H238457   2.189   4.296  13.432  0.0933 -1.4382 -0.3195
 5656TIP3   OH238458   2.010   1.195  16.421 -0.3108 -0.2694  0.1273
 5656TIP3    H138459   2.033   1.170  16.511 -0.5599 -2.8406 -0.4356
 5656TIP3    H238460   1.957   1.273  16.430 -0.5618 -0.6285  2.2495
 5657TIP3   OH238461   1.487   0.253  15.156 -0.2390 -0.5047 -0.2472
 5657TIP3    H138462   1.520   0.342  15.161 -1.7047  0.0538  0.1832
 5657TIP3    H238463   1.560   0.198  15.183  0.2601  0.6701  0.8944
 5658TIP3   OH238464   0.951   0.866  10.675  0.1412 -0.1174  0.3339
 5658TIP3    H138465   0.902   0.948  10.668  1.1396  0.4020 -1.0925
 5658TIP3    H238466   1.041   0.890  10.654  0.4797 -1.5768 -0.0080
 5659TIP3   OH238467   6.749   6.347   1.164  0.0807  0.1849 -0.7511
 5659TIP3    H138468   6.750   6.256   1.192  0.5231 -0.0285 -1.4088
 5659TIP3    H238469   6.658   6.366   1.145  0.2253 -0.8398 -2.7637
 5660TIP3   OH238470   0.267   1.341   2.770  0.8219  0.2643 -0.1919
 5660TIP3    H138471   0.184   1.377   2.739  1.5446  1.3621 -0.8992
 5660TIP3    H238472   0.243   1.290   2.848 -0.3487  1.6735  0.4181
 5661TIP3   OH238473   2.797   5.114  16.872 -0.2583 -0.0581  0.3446
 5661TIP3    H138474   2.781   5.199  16.832  0.3598  0.0221  0.2565
 5661TIP3    H238475   2.869   5.076  16.820  0.1910 -0.1762  1.0440
 5662TIP3   OH238476   1.324   3.619  11.603 -0.3205  0.1006 -0.1877
 5662TIP3    H138477   1.363   3.532  11.602 -1.7280 -0.5906 -1.8994
 5662TIP3    H238478   1.269   3.619  11.681 -0.6047 -0.7168 -0.3717
 5663TIP3   OH238479   1.446   1.000   0.576  0.4534  0.1000 -0.5524
 5663TIP3    H138480   1.433   1.082   0.624  0.9771  0.8106 -1.5883
 5663TIP3    H238481   1.541   0.991   0.570  0.4188 -0.9772  0.1726
 5664TIP3   OH238482   3.012   1.563  16.404 -0.4261  0.1527 -0.1268
 5664TIP3    H138483   2.923   1.595  16.387 -0.1313  1.3342  0.4356
 5664TIP3    H238484   3.004   1.468  16.401 -2.3703  0.0801  2.8879
 5665TIP3   OH238485   1.681   3.308   4.178 -0.0599  0.8933  0.1000
 5665TIP3    H138486   1.656   3.383   4.231 -0.7414  2.1866 -1.9240
 5665TIP3    H238487   1.606   3.249   4.182  0.9935 -0.3869  2.7687
 5666TIP3   OH238488   6.505   0.097   2.946 -0.2184 -0.3564 -0.1975
 5666TIP3    H138489   6.508   0.192   2.961  1.6482 -0.1258 -1.6691
 5666TIP3    H238490   6.417   0.081   2.912 -0.0108  1.1661 -1.6029
 5667TIP3   OH238491   5.990   1.045  13.109  0.4391  0.3353 -0.0008
 5667TIP3    H138492   6.017   1.069  13.198  1.4734 -2.0563  0.4168
 5667TIP3    H238493   5.965   0.953  13.116 -0.9091  0.4914 -1.9178
 5668TIP3   OH238494   1.663   1.501  15.885  0.9166 -0.3614  0.0427
 5668TIP3    H138495   1.724   1.479  15.814  1.4581  0.6460  0.1739
 5668TIP3    H238496   1.583   1.455  15.863  2.2641 -3.2967  0.8383
 5669TIP3   OH238497   2.414   4.086   0.134 -0.2409 -0.7363  0.4684
 5669TIP3    H138498   2.326   4.108   0.105  0.8053  0.9006 -1.7869
 5669TIP3    H238499   2.440   4.012   0.080  0.6318  0.3849 -0.6919
 5670TIP3   OH238500   5.119   2.301   0.945 -0.2339 -0.0972  0.0155
 5670TIP3    H138501   5.101   2.393   0.964 -1.4797 -0.1003 -1.0331
 5670TIP3    H238502   5.112   2.257   1.029 -0.8560  0.5860  0.3246
 5671TIP3   OH238503   5.636   5.627  13.659  0.4585  0.3157 -0.0946
 5671TIP3    H138504   5.580   5.586  13.594  1.0086  1.0374 -1.0512
 5671TIP3    H238505   5.578   5.686  13.707 -0.1284 -0.8344  0.6476
 5672TIP3   OH238506   5.183   5.470  12.759  0.3217  0.1957 -0.2338
 5672TIP3    H138507   5.092   5.479  12.731 -0.0500 -2.0847  0.0320
 5672TIP3    H238508   5.229   5.436  12.682  0.5047 -0.5312  0.1797
 5673TIP3   OH238509   6.502   0.661   5.091  0.8065  0.1268  0.1147
 5673TIP3    H138510   6.499   0.579   5.041 -1.8647 -0.5854  1.2455
 5673TIP3    H238511   6.446   0.721   5.041 -1.2572 -0.3531  1.7058
 5674TIP3   OH238512   0.557   6.100   2.096  0.2447 -0.4411 -0.1345
 5674TIP3    H138513   0.581   6.164   2.028 -1.3448  0.7878  0.3941
 5674TIP3    H238514   0.609   6.127   2.172  0.1701 -0.2555 -0.1468
 5675TIP3   OH238515   1.181   6.221   3.968  0.0356  0.3999 -0.6120
 5675TIP3    H138516   1.160   6.130   3.991 -2.7515  0.8745 -0.8858
 5675TIP3    H238517   1.098   6.257   3.935  1.4751  2.5624 -2.1617
 5676TIP3   OH238518   6.148   4.268  14.091 -0.3507  0.1032  0.4446
 5676TIP3    H138519   6.130   4.360  14.112  0.0841  0.3051 -0.0476
 5676TIP3    H238520   6.242   4.266  14.072 -0.6550 -0.1308 -1.1367
 5677TIP3   OH238521   6.153   6.635  14.358 -0.3085  0.7606  0.4817
 5677TIP3    H138522   6.201   6.581  14.420  2.5765 -0.2763 -2.3542
 5677TIP3    H238523   6.190   6.723  14.370  0.0362  0.6241  0.4338
 5678TIP3   OH238524   3.379   0.416  11.297  0.4820 -0.2874 -0.2752
 5678TIP3    H138525   3.348   0.369  11.375 -0.3777 -1.4523 -1.2788
 5678TIP3    H238526   3.454   0.365  11.267  0.0797 -0.5327 -0.8785
 5679TIP3   OH238527   1.137   1.357  13.533  0.4852 -0.0626  0.0918
 5679TIP3    H138528   1.168   1.358  13.442 -1.1808 -1.7547 -0.5697
 5679TIP3    H238529   1.127   1.449  13.557  0.9797  0.4083 -1.4313
 5680TIP3   OH238530   5.551   4.709  14.817 -0.1560 -0.4340 -0.1686
 5680TIP3    H138531   5.567   4.718  14.723  0.7118 -1.8265 -0.1865
 5680TIP3    H238532   5.491   4.634  14.824  3.8094 -3.8851  0.5506
 5681TIP3   OH238533   3.890   3.992  16.587 -0.1505 -0.9901 -0.0088
 5681TIP3    H138534   3.811   3.990  16.640  0.4391 -0.9346  0.8834
 5681TIP3    H238535   3.931   3.907  16.601  1.9476  0.2928  2.6798
 5682TIP3   OH238536   6.331   2.208  14.052  0.4370 -0.3086 -0.4299
 5682TIP3    H138537   6.338   2.172  13.964  0.4719 -0.7853 -0.2376
 5682TIP3    H238538   6.412   2.257  14.065  0.0775  0.4386 -0.9538
 5683TIP3   OH238539   6.477   0.410   0.463 -0.3080  0.2492 -0.0980
 5683TIP3    H138540   6.406   0.404   0.400  1.0291 -0.5297 -1.5824
 5683TIP3    H238541   6.494   0.504   0.471 -1.5265  0.4603  0.3747
 5684TIP3   OH238542   3.007   1.544   4.356  0.2382 -0.0633  0.0864
 5684TIP3    H138543   3.053   1.627   4.363 -0.1554  0.2364 -0.7281
 5684TIP3    H238544   3.000   1.512   4.446  0.4931  0.7270  0.3937
 5685TIP3   OH238545   5.158   1.069  13.753 -0.4329 -0.1678 -0.4038
 5685TIP3    H138546   5.147   0.989  13.804  0.2564 -0.7465 -1.1305
 5685TIP3    H238547   5.229   1.117  13.798 -0.6028 -0.1321 -0.1738
 5686TIP3   OH238548   4.240   1.301   4.713 -0.6973 -0.4345 -0.2073
 5686TIP3    H138549   4.302   1.286   4.785 -0.1959 -0.7553 -0.7028
 5686TIP3    H238550   4.220   1.395   4.718  1.5671  0.1765 -1.3939
 5687TIP3   OH238551   3.642   6.179   2.229 -0.2029  0.5072 -0.4884
 5687TIP3    H138552   3.725   6.177   2.181  0.2329 -0.2462  0.2513
 5687TIP3    H238553   3.655   6.246   2.296 -0.4921  0.9546 -0.8779
 5688TIP3   OH238554   5.778   4.969  10.732  0.1164  0.1994 -0.1998
 5688TIP3    H138555   5.702   5.022  10.709  0.1383  0.1331 -0.4238
 5688TIP3    H238556   5.765   4.887  10.685 -0.1257 -0.1536  0.4592
 5689TIP3   OH238557   6.558   4.491   1.131  0.2864  0.1321  0.0595
 5689TIP3    H138558   6.495   4.464   1.198 -0.4374  3.3612  0.8747
 5689TIP3    H238559   6.542   4.431   1.058  0.9739 -3.4012  2.5483
 5690TIP3   OH238560   1.999   3.633  11.237  0.1367  0.0650  0.0073
 5690TIP3    H138561   1.966   3.624  11.147 -2.0744 -2.3422  0.9466
 5690TIP3    H238562   2.055   3.556  11.251  0.7222  0.5845  0.6169
 5691TIP3   OH238563   1.498   5.478   4.498 -0.4508  0.2605 -0.1738
 5691TIP3    H138564   1.593   5.463   4.497 -0.3877  0.6571 -0.3039
 5691TIP3    H238565   1.481   5.530   4.419 -0.8051  0.0188 -0.2598
 5692TIP3   OH238566   5.158   1.703   4.896  0.1775 -0.7094  0.4634
 5692TIP3    H138567   5.244   1.741   4.877 -0.2999 -0.2856 -0.9529
 5692TIP3    H238568   5.169   1.609   4.881  0.1991 -0.5583 -0.5362
 5693TIP3   OH238569   0.117   4.370  14.082 -0.2754 -0.3662  0.4440
 5693TIP3    H138570   0.083   4.283  14.102 -1.6926 -0.0806 -0.5949
 5693TIP3    H238571   0.193   4.354  14.026  0.4538 -0.9666  1.5802
 5694TIP3   OH238572   1.589   1.439  16.605  0.4024 -0.5733 -0.1061
 5694TIP3    H138573   1.625   1.527  16.600  0.3356 -0.3086  2.8165
 5694TIP3    H238574   1.543   1.435  16.688  1.7999 -3.8560  0.6934
 5695TIP3   OH238575   5.478   3.042  13.338  0.0696  0.5441 -0.1127
 5695TIP3    H138576   5.487   3.135  13.360 -0.1440  1.1670 -2.4023
 5695TIP3    H238577   5.390   3.019  13.367  0.6038  0.6448  1.7062
 5696TIP3   OH238578   4.523   3.146  12.948 -0.2177  0.5089  0.4334
 5696TIP3    H138579   4.529   3.187  13.035  3.0359  1.9151 -0.3089
 5696TIP3    H238580   4.491   3.215  12.891 -2.0708 -0.3350  0.3851
 5697TIP3   OH238581   0.571   4.804  13.257 -0.4446  0.2226 -0.0107
 5697TIP3    H138582   0.590   4.878  13.200 -2.0215  0.9261  0.3237
 5697TIP3    H238583   0.644   4.802  13.318 -0.0695  1.1288 -0.4115
 5698TIP3   OH238584   0.190   1.119  11.323 -0.0003 -0.6720 -0.4916
 5698TIP3    H138585   0.175   1.169  11.242 -0.9127 -1.9418 -1.1388
 5698TIP3    H238586   0.262   1.166  11.366 -1.0365  1.4001 -0.8787
 5699TIP3   OH238587   4.617   6.564   1.426 -0.5762 -0.8003 -0.0993
 5699TIP3    H138588   4.660   6.566   1.340 -1.3338 -0.6292 -0.4868
 5699TIP3    H238589   4.615   6.655   1.454  0.4493 -0.9565  0.5073
 5700TIP3   OH238590   2.481   0.183  14.511  0.0322 -0.0086 -0.6156
 5700TIP3    H138591   2.388   0.167  14.494 -0.1113 -1.2992  1.0733
 5700TIP3    H238592   2.483   0.268  14.556 -0.2755  0.2214 -1.0311
 5701TIP3   OH238593   2.023   6.692  13.763 -0.1674  0.2154  0.4376
 5701TIP3    H138594   2.024   6.677  13.668  0.6230  0.3376  0.4163
 5701TIP3    H238595   2.014   6.787  13.772  1.0891  0.3519  0.4480
 5702TIP3   OH238596   4.344   6.613  16.374  0.1447 -0.2595 -0.0483
 5702TIP3    H138597   4.258   6.575  16.358  1.8152 -4.6985  0.1052
 5702TIP3    H238598   4.385   6.617  16.288  0.6571 -0.7061  0.1690
 5703TIP3   OH238599   5.333   4.809  13.458 -0.3636  0.1824 -0.0939
 5703TIP3    H138600   5.352   4.876  13.392  0.2119 -0.5926 -0.7274
 5703TIP3    H238601   5.282   4.856  13.525  0.5261  1.3979 -0.2205
 5704TIP3   OH238602   3.864   0.291   1.033  0.1464 -0.0202 -0.8375
 5704TIP3    H138603   3.836   0.213   1.082 -0.2418 -0.1125 -1.2044
 5704TIP3    H238604   3.949   0.312   1.070 -1.2923  1.5978  1.9250
 5705TIP3   OH238605   2.361   1.059  16.181 -0.3035  0.0257 -0.5431
 5705TIP3    H138606   2.409   0.985  16.144 -0.5427  0.1757 -1.1789
 5705TIP3    H238607   2.301   1.085  16.111  0.7949  1.7526 -0.8877
 5706TIP3   OH238608   0.057   5.700  12.287 -0.5544  0.2105 -0.6029
 5706TIP3    H138609  -0.036   5.693  12.305 -0.2821 -1.6958  0.2999
 5706TIP3    H238610   0.068   5.787  12.249 -2.8105  0.1602 -1.4939
 5707TIP3   OH238611   5.847   1.677   5.986  0.0530  0.2422  0.2575
 5707TIP3    H138612   5.910   1.728   6.036  0.6358 -0.1312 -0.0800
 5707TIP3    H238613   5.809   1.616   6.050  0.9309 -0.3628  0.2186
 5708TIP3   OH238614   3.313   5.374  16.461 -0.2538  0.7686 -0.1512
 5708TIP3    H138615   3.386   5.314  16.443 -1.9354 -1.5239  0.1509
 5708TIP3    H238616   3.334   5.415  16.544  0.2981 -0.5445  0.3747
 5709TIP3   OH238617   2.839   4.628  15.110  0.2226  0.3938  0.1298
 5709TIP3    H138618   2.801   4.665  15.191 -0.6933 -0.5866  0.1666
 5709TIP3    H238619   2.931   4.615  15.131  0.2147  1.0877  0.6725
 5710TIP3   OH238620   4.559   5.147   3.729 -0.4124 -0.2403 -0.1997
 5710TIP3    H138621   4.535   5.214   3.664 -0.2030  0.0352  0.0046
 5710TIP3    H238622   4.627   5.096   3.686  0.2776  0.4210  0.0793
 5711TIP3   OH238623   6.014   2.917  16.645 -0.0698  0.0880 -0.1512
 5711TIP3    H138624   6.086   2.881  16.696  0.0282 -0.5828 -0.7575
 5711TIP3    H238625   6.052   2.990  16.596  0.0058  0.2438  0.1359
 5712TIP3   OH238626   5.165   6.211   0.149 -0.2410  0.1736  0.3341
 5712TIP3    H138627   5.171   6.129   0.101  0.4101 -1.3805  2.8553
 5712TIP3    H238628   5.158   6.184   0.241 -2.3396  2.9165  1.1054
 5713TIP3   OH238629   1.763   4.039   2.277  0.4857  0.3384  0.0177
 5713TIP3    H138630   1.680   4.069   2.315 -0.5379 -0.4804 -1.4308
 5713TIP3    H238631   1.788   3.964   2.331 -1.2972 -1.2367 -1.1792
 5714TIP3   OH238632   4.220   1.707  14.238 -0.1348  0.9444 -0.1950
 5714TIP3    H138633   4.159   1.768  14.197 -1.9749 -1.4795 -1.3201
 5714TIP3    H238634   4.284   1.687  14.169  0.0184  1.0208 -0.0762
 5715TIP3   OH238635   0.206   3.922   6.484  0.5919  0.1051  0.3335
 5715TIP3    H138636   0.142   3.904   6.416  0.6535  0.7342  0.0988
 5715TIP3    H238637   0.154   3.943   6.562  0.5070 -2.4585  1.0302
 5716TIP3   OH238638   3.419   1.981   1.871 -0.3166  0.0629  0.4772
 5716TIP3    H138639   3.504   1.942   1.892  0.3127  0.0187 -1.8442
 5716TIP3    H238640   3.441   2.061   1.822 -1.6078  0.1456 -0.0052
 5717TIP3   OH238641   4.014   5.590   4.058 -0.3111  0.0450  0.2060
 5717TIP3    H138642   3.949   5.639   4.008 -1.6771  0.6665  2.4310
 5717TIP3    H238643   3.965   5.520   4.100  1.1873 -1.7946 -0.9773
 5718TIP3   OH238644   5.157   5.173   0.373  0.3031  0.1704 -0.1433
 5718TIP3    H138645   5.192   5.099   0.423 -0.0344 -0.2156 -0.4751
 5718TIP3    H238646   5.062   5.168   0.385  0.0394 -1.0064 -2.2694
 5719TIP3   OH238647   3.486   0.774   0.785 -0.1094 -0.3372  0.0134
 5719TIP3    H138648   3.392   0.783   0.797 -0.1872 -0.0025 -0.7890
 5719TIP3    H238649   3.496   0.750   0.693  0.4221 -3.0836  0.6825
 5720TIP3   OH238650   0.700   5.840   2.013  0.2895 -0.0546  0.0494
 5720TIP3    H138651   0.714   5.914   2.072 -0.0488  0.8635 -0.9991
 5720TIP3    H238652   0.690   5.765   2.072  2.2726  0.4099  1.1052
 5721TIP3   OH238653   1.845   4.964  12.371 -0.6796  0.0921 -0.0799
 5721TIP3    H138654   1.827   4.874  12.342  0.0764 -0.0350 -0.1711
 5721TIP3    H238655   1.844   5.016  12.290 -2.6697  0.4474  0.1362
 5722TIP3   OH238656   5.324   1.719   0.709  0.1291 -0.3906  0.0965
 5722TIP3    H138657   5.403   1.740   0.660  1.0122 -2.0646  0.7246
 5722TIP3    H238658   5.355   1.696   0.797 -1.1956  0.2635  0.7822
 5723TIP3   OH238659   6.064   2.399   1.969 -0.0507  0.6775 -0.0646
 5723TIP3    H138660   6.130   2.331   1.961  2.9115  3.3914 -0.4067
 5723TIP3    H238661   6.064   2.423   2.062 -0.9422  0.3841  0.0256
 5724TIP3   OH238662   4.289   4.552   3.465 -0.3450  0.1440  0.6482
 5724TIP3    H138663   4.241   4.501   3.400 -0.8496  2.6836 -1.1571
 5724TIP3    H238664   4.373   4.507   3.475 -0.2950 -0.4074 -1.7461
 5725TIP3   OH238665   4.442   1.479  13.641  0.2663  0.2735 -0.4764
 5725TIP3    H138666   4.498   1.480  13.719  1.3512  1.5893 -1.2061
 5725TIP3    H238667   4.411   1.569  13.633 -0.3640  0.0036 -1.1981
 5726TIP3   OH238668   0.542   0.702   2.317  0.3037 -0.2611  0.0958
 5726TIP3    H138669   0.586   0.786   2.332  0.1998 -0.2724  0.4808
 5726TIP3    H238670   0.614   0.641   2.299  0.4380 -0.2403  0.5435
 5727TIP3   OH238671   2.189   0.968   1.734 -0.2453  0.2103 -0.4181
 5727TIP3    H138672   2.254   0.971   1.663  0.3128 -0.7735  0.0167
 5727TIP3    H238673   2.124   0.905   1.703 -1.1917  1.4456 -0.9955
 5728TIP3   OH238674   0.311   3.895   2.672 -0.1434  0.1673 -0.3461
 5728TIP3    H138675   0.245   3.886   2.603 -0.7570  1.2169  0.0831
 5728TIP3    H238676   0.327   3.989   2.677 -0.1497  0.1087  0.9942
 5729TIP3   OH238677   0.568   4.240   5.741  0.1226  0.2576 -0.2319
 5729TIP3    H138678   0.611   4.226   5.656 -0.6333  2.9688 -1.1794
 5729TIP3    H238679   0.483   4.198   5.731  0.3494 -0.1409 -0.5221
 5730TIP3   OH238680   5.484   1.977   0.527  0.1784  0.6084 -0.3732
 5730TIP3    H138681   5.555   2.013   0.473  2.0381  0.4290  1.8076
 5730TIP3    H238682   5.411   1.967   0.466  1.9666  0.9117 -2.7323
 5731TIP3   OH238683   3.918   5.034  16.746 -0.3390 -0.3450 -0.1766
 5731TIP3    H138684   3.944   4.947  16.776  1.5956 -0.6332 -2.4260
 5731TIP3    H238685   3.974   5.095  16.794 -0.6209 -0.4450  0.2803
 5732TIP3   OH238686   3.482   5.628  17.026 -0.2226 -0.1400  0.4104
 5732TIP3    H138687   3.448   5.569  16.959  0.0074 -0.0611  0.2204
 5732TIP3    H238688   3.480   5.578  17.107  0.2502 -0.5159  0.1962
 5733TIP3   OH238689   3.727   2.939  12.590 -0.3545  0.0995 -0.1282
 5733TIP3    H138690   3.702   2.990  12.667 -0.8904 -0.0801 -0.1812
 5733TIP3    H238691   3.813   2.903  12.612 -1.4412 -1.8176  1.3457
 5734TIP3   OH238692   1.953   3.642   3.959 -0.2572  0.1630 -0.0587
 5734TIP3    H138693   1.937   3.651   4.053 -0.1975 -0.5247  0.0167
 5734TIP3    H238694   1.879   3.590   3.926  1.4590 -2.6333  0.2128
 5735TIP3   OH238695   6.295   5.626   4.567  0.0347  0.2418 -0.3131
 5735TIP3    H138696   6.346   5.667   4.636 -2.2805  0.8815  1.1392
 5735TIP3    H238697   6.205   5.624   4.601 -0.3705 -4.5527 -0.9533
 5736TIP3   OH238698   4.269   2.169   2.655 -0.5903 -0.1438 -0.1742
 5736TIP3    H138699   4.227   2.083   2.665  2.5960 -1.9049 -0.3586
 5736TIP3    H238700   4.335   2.171   2.724  1.0291  1.0881 -1.6702
 5737TIP3   OH238701   2.662   2.332   0.200 -0.1905  0.1900 -0.0667
 5737TIP3    H138702   2.660   2.292   0.287  3.8847 -1.2909 -0.4314
 5737TIP3    H238703   2.690   2.423   0.217  1.5837 -0.3659  0.2138
 5738TIP3   OH238704   2.760   4.649   1.287 -0.1536 -0.1819 -0.3238
 5738TIP3    H138705   2.771   4.733   1.243  0.7327 -0.5481 -0.8379
 5738TIP3    H238706   2.689   4.663   1.349 -0.5324  0.7251 -0.9433
 5739TIP3   OH238707   1.792   4.580  15.486 -0.5871  0.1337  0.5623
 5739TIP3    H138708   1.803   4.660  15.537  1.9366 -1.1885  2.3078
 5739TIP3    H238709   1.803   4.509  15.550  0.9580 -1.6047 -1.4831
 5740TIP3   OH238710   6.401   4.509  16.179 -0.5297 -0.1397  0.0924
 5740TIP3    H138711   6.424   4.430  16.130 -1.8539 -0.3455 -0.2182
 5740TIP3    H238712   6.456   4.505  16.258  0.1806 -0.8133 -0.4171
 5741TIP3   OH238713   0.869   3.645   3.483 -0.4243 -0.3957  0.0639
 5741TIP3    H138714   0.808   3.630   3.411 -0.1150 -1.9406  0.1002
 5741TIP3    H238715   0.933   3.574   3.476  1.2292  0.9999  0.2042
 5742TIP3   OH238716   3.271   4.730   0.348  0.0175  0.1451 -0.0969
 5742TIP3    H138717   3.221   4.759   0.271  1.8398  0.3768 -1.2585
 5742TIP3    H238718   3.220   4.761   0.423 -0.4792  2.3088 -1.2479
 5743TIP3   OH238719   6.710   4.774  14.418 -0.2998  0.2466  0.5317
 5743TIP3    H138720   6.736   4.791  14.328 -0.5267 -1.1051  0.1986
 5743TIP3    H238721   6.731   4.682  14.433 -1.7665  0.0062  1.3211
 5744TIP3   OH238722   1.971   4.901   5.569  0.2343  0.3951  0.0367
 5744TIP3    H138723   1.934   4.815   5.548 -0.9307  0.2528  2.3616
 5744TIP3    H238724   1.991   4.940   5.484 -1.5325 -1.1566 -1.1677
 5745TIP3   OH238725   5.788   2.614  10.631  0.5180  0.0002 -0.3146
 5745TIP3    H138726   5.863   2.671  10.613 -0.3682  0.7647 -1.7312
 5745TIP3    H238727   5.755   2.590  10.544  0.0483 -1.5823  0.2756
 5746TIP3   OH238728   4.610   2.571   2.517 -0.2509  0.3412 -0.0125
 5746TIP3    H138729   4.607   2.498   2.456 -0.3102 -0.0740  0.4841
 5746TIP3    H238730   4.700   2.603   2.513 -0.0695 -0.1443  0.2228
 5747TIP3   OH238731   4.373   0.464   1.018  0.0926 -0.6559 -0.7147
 5747TIP3    H138732   4.463   0.457   1.050 -0.3304 -1.0483  0.4391
 5747TIP3    H238733   4.366   0.393   0.953  0.4376 -1.0034 -0.3778
 5748TIP3   OH238734   4.093   6.266  16.486 -0.2153 -0.1888 -0.2200
 5748TIP3    H138735   4.155   6.203  16.523 -0.9715 -2.6867 -2.8332
 5748TIP3    H238736   4.011   6.247  16.532  0.2916  1.4706  1.5194
 5749TIP3   OH238737   6.430   0.543   4.459  0.1883  0.3285 -0.0059
 5749TIP3    H138738   6.472   0.458   4.469  1.3284  0.6247 -1.6972
 5749TIP3    H238739   6.485   0.603   4.510 -0.0163  0.2205  0.3442
 5750TIP3   OH238740   0.665   1.646  16.645 -0.1388 -0.6083  0.0107
 5750TIP3    H138741   0.571   1.625  16.648 -0.0024 -1.2202  0.1874
 5750TIP3    H238742   0.670   1.737  16.675 -0.3640 -1.5561  3.3566
 5751TIP3   OH238743   4.092   1.293  15.506 -0.1639 -0.1147  0.2869
 5751TIP3    H138744   4.173   1.282  15.556 -0.2409  2.3400  1.1144
 5751TIP3    H238745   4.033   1.226  15.540  0.4988  0.1241  2.0269
 5752TIP3   OH238746   4.091   5.495  11.356  0.1600  0.2083  0.5038
 5752TIP3    H138747   4.001   5.511  11.386  0.1770 -1.1067  1.3629
 5752TIP3    H238748   4.139   5.574  11.380 -1.0115  1.5051 -1.1575
 5753TIP3   OH238749   6.503   3.814  16.897 -0.0935  0.6334 -0.5175
 5753TIP3    H138750   6.489   3.886  16.835 -0.5298 -0.0843 -1.2750
 5753TIP3    H238751   6.546   3.746  16.845 -0.9062 -0.1690 -0.1623
 5754TIP3   OH238752   0.244   3.593   0.792 -0.1673  0.3153  0.0322
 5754TIP3    H138753   0.272   3.679   0.826 -1.0025  1.9597 -3.1056
 5754TIP3    H238754   0.302   3.577   0.718 -2.2213 -0.1543 -1.5361
 5755TIP3   OH238755   6.669   1.708  11.315 -0.2596  0.0952  0.2282
 5755TIP3    H138756   6.733   1.642  11.289  0.4335  1.0067 -0.4610
 5755TIP3    H238757   6.685   1.721  11.408 -0.5611 -0.8649  0.4244
 5756TIP3   OH238758   0.862   5.463   4.001 -0.7308 -0.5433 -0.1988
 5756TIP3    H138759   0.886   5.378   3.964  1.0506  0.1998 -0.8913
 5756TIP3    H238760   0.885   5.526   3.932 -0.9211  0.5909  0.7408
 5757TIP3   OH238761   1.136   4.012   6.185 -0.0802 -0.4239  0.1330
 5757TIP3    H138762   1.174   4.065   6.115 -0.0406  0.4990  0.8396
 5757TIP3    H238763   1.042   4.010   6.165 -0.2461  0.8804  0.7177
 5758TIP3   OH238764   4.153   3.584  11.648 -0.2411  0.0798 -1.0503
 5758TIP3    H138765   4.107   3.599  11.565 -2.1725 -2.9792 -0.6663
 5758TIP3    H238766   4.235   3.542  11.623  0.1377  1.0148 -1.4543
 5759TIP3   OH238767   6.435   2.407  16.189 -0.1031 -0.3290 -0.1850
 5759TIP3    H138768   6.514   2.374  16.233  0.1971 -1.2767 -1.3792
 5759TIP3    H238769   6.364   2.387  16.249  0.1843 -2.4223 -0.4591
 5760TIP3   OH238770   1.949   0.283   4.333 -0.0953 -0.3372 -0.0472
 5760TIP3    H138771   1.910   0.370   4.333  0.3072 -0.1069  2.1769
 5760TIP3    H238772   1.914   0.240   4.411  0.8508 -1.6433 -0.3016
 5761TIP3   OH238773   0.653   5.745   4.634 -0.1455  0.0435  0.2360
 5761TIP3    H138774   0.628   5.820   4.581 -0.3822 -1.0449 -1.2576
 5761TIP3    H238775   0.746   5.757   4.651 -0.0830  0.4649 -0.3692
 5762TIP3   OH238776   2.830   5.510  11.984 -0.4165  0.2643  0.1528
 5762TIP3    H138777   2.924   5.526  11.971 -0.5285  0.6565 -0.2269
 5762TIP3    H238778   2.822   5.486  12.076  0.1155 -0.2275  0.0760
 5763TIP3   OH238779   5.458   0.034  15.634  0.3859  0.7213 -0.2695
 5763TIP3    H138780   5.385   0.072  15.586 -0.7278 -0.1060  0.7024
 5763TIP3    H238781   5.422   0.014  15.720  1.6075 -0.2091  0.0529
 5764TIP3   OH238782   6.714   0.352  14.900  0.2646  0.3854 -0.2243
 5764TIP3    H138783   6.722   0.407  14.823 -3.3393  1.0392 -0.3416
 5764TIP3    H238784   6.725   0.412  14.974  2.1536  0.0561 -0.1995
 5765TIP3   OH238785   1.477   5.842  12.792 -0.1499  0.0932  0.1427
 5765TIP3    H138786   1.541   5.795  12.738 -1.4044 -1.8106  0.2141
 5765TIP3    H238787   1.523   5.861  12.873  0.1679 -1.8919  0.4834
 5766TIP3   OH238788   1.021   0.449   5.874  0.1443 -0.4207 -0.2826
 5766TIP3    H138789   0.990   0.455   5.964 -0.6723 -2.6831 -0.3704
 5766TIP3    H238790   1.029   0.356   5.857  1.2045 -0.0226 -2.2699
 5767TIP3   OH238791   0.059   3.868   5.872  0.4488 -0.3423 -0.1138
 5767TIP3    H138792  -0.012   3.888   5.810  1.8077  1.2092 -1.2668
 5767TIP3    H238793   0.018   3.875   5.958 -0.1969  3.9527 -0.5416
 5768TIP3   OH238794   0.723   2.609  11.598  0.1601  0.0234 -0.0199
 5768TIP3    H138795   0.669   2.562  11.660  0.5296  0.3128  0.5320
 5768TIP3    H238796   0.678   2.600  11.514  0.8485 -2.3624 -0.2006
 5769TIP3   OH238797   3.780   4.996  14.240  0.0425 -0.1139 -0.0176
 5769TIP3    H138798   3.804   4.940  14.167  0.0135  0.5983 -0.5916
 5769TIP3    H238799   3.848   4.982  14.305  1.3245  0.8907 -1.0827
 5770TIP3   OH238800   1.138   2.591   3.166  0.0954 -0.0331 -0.6070
 5770TIP3    H138801   1.194   2.533   3.217  1.2424  0.7343 -0.9466
 5770TIP3    H238802   1.053   2.546   3.162  0.1057 -0.3315  1.5315
 5771TIP3   OH238803   2.198   2.455  16.984 -0.0171 -0.2996  0.0563
 5771TIP3    H138804   2.198   2.423  17.074  0.4205  0.1854  0.2375
 5771TIP3    H238805   2.109   2.439  16.953 -0.2510 -0.2235  0.6636
 5772TIP3   OH238806   1.285   2.456  14.472 -0.4567 -0.0015  0.1927
 5772TIP3    H138807   1.368   2.412  14.488  0.1188  0.9455 -0.1388
 5772TIP3    H238808   1.293   2.494  14.385 -1.2558  0.0650  0.1356
 5773TIP3   OH238809   2.974   6.416   2.090 -0.3109  0.0643 -0.4081
 5773TIP3    H138810   2.990   6.326   2.118  0.5657  0.5571  0.7483
 5773TIP3    H238811   2.878   6.423   2.087 -0.3968 -1.0863 -1.2003
 5774TIP3   OH238812   0.866   1.647  13.746 -0.9418 -0.9647 -0.2688
 5774TIP3    H138813   0.846   1.662  13.838 -0.7116 -2.3532  0.0253
 5774TIP3    H238814   0.822   1.718  13.699  0.9765  1.2708  1.0881
 5775TIP3   OH238815   2.589   6.028  13.482  0.2247 -0.3965 -0.3498
 5775TIP3    H138816   2.669   5.975  13.487  0.2268 -0.4739 -1.1505
 5775TIP3    H238817   2.520   5.970  13.516  0.6954  0.1245  1.6651
 5776TIP3   OH238818   6.008   0.974   4.108 -0.2203 -0.7147 -0.8407
 5776TIP3    H138819   5.988   0.926   4.188  0.9015  0.6649  0.3234
 5776TIP3    H238820   6.092   0.938   4.078  0.6911  0.5240  0.1092
 5777TIP3   OH238821   4.748   0.275  14.797 -0.8748  0.0214  0.1154
 5777TIP3    H138822   4.708   0.268  14.710 -0.3408  0.4120 -0.1665
 5777TIP3    H238823   4.766   0.368  14.807  2.7133 -0.3858 -1.0466
 5778TIP3   OH238824   1.108   4.710  15.812 -0.4039  0.3808  0.3455
 5778TIP3    H138825   1.195   4.713  15.853 -0.6150 -2.2564  1.1694
 5778TIP3    H238826   1.126   4.692  15.720 -0.0550  1.3940  0.2047
 5779TIP3   OH238827   1.386   2.786   1.548 -0.2095  1.1012  0.3897
 5779TIP3    H138828   1.293   2.763   1.555 -0.1724  1.2319  1.6667
 5779TIP3    H238829   1.392   2.838   1.468 -0.8982 -0.4177 -0.6969
 5780TIP3   OH238830   1.064   5.071   5.470 -0.1247 -0.5767 -0.1640
 5780TIP3    H138831   1.072   5.001   5.535  0.1416 -1.0405 -0.6844
 5780TIP3    H238832   0.991   5.044   5.414 -0.3573 -0.1773 -0.0577
 5781TIP3   OH238833   4.825   5.087  12.957 -0.0316  0.3006  0.5880
 5781TIP3    H138834   4.874   5.160  12.994  0.2344  0.6287 -0.3791
 5781TIP3    H238835   4.875   5.009  12.983 -0.2025  0.4781  1.4442
 5782TIP3   OH238836   1.161   5.662   2.859 -0.2748 -0.2658  0.0671
 5782TIP3    H138837   1.090   5.682   2.920  0.7681  0.9816  0.9233
 5782TIP3    H238838   1.148   5.723   2.787 -0.3314 -0.3483  0.0073
 5783TIP3   OH238839   2.380   5.150  15.806 -0.1695 -0.1814  0.2000
 5783TIP3    H138840   2.453   5.209  15.825 -0.6451  0.5330 -0.1405
 5783TIP3    H238841   2.359   5.110  15.890  0.5248 -0.2863  0.3285
 5784TIP3   OH238842   2.048   0.212  12.025  0.1255  0.0109 -0.1589
 5784TIP3    H138843   2.083   0.131  11.988  0.4294  0.1741 -0.2255
 5784TIP3    H238844   1.967   0.184  12.070 -1.4600  0.1252 -2.7281
 5785TIP3   OH238845   3.253   5.224  15.693 -0.3760 -0.1669  0.1615
 5785TIP3    H138846   3.162   5.231  15.722 -1.1751 -2.4041 -1.4931
 5785TIP3    H238847   3.305   5.244  15.771 -2.3081  0.1492  1.4224
 5786TIP3   OH238848   6.037   1.483  14.639  0.0086  0.1995 -0.6890
 5786TIP3    H138849   6.027   1.558  14.698  1.6502  0.6860 -0.9998
 5786TIP3    H238850   5.985   1.414  14.680  0.4502  0.7684  0.9038
 5787TIP3   OH238851   2.107   5.771   5.838 -0.1012 -0.1882  0.2160
 5787TIP3    H138852   2.012   5.785   5.837 -0.1832 -0.7727 -0.2483
 5787TIP3    H238853   2.123   5.719   5.917 -0.0463  0.6639  0.7902
 5788TIP3   OH238854   0.919   0.488  11.980  0.5091  0.0683  0.1711
 5788TIP3    H138855   0.868   0.552  12.031 -1.2334 -1.0685 -0.0350
 5788TIP3    H238856   0.928   0.528  11.893  0.7312  0.6566  0.4595
 5789TIP3   OH238857   3.301   6.698  11.342  0.6560 -0.4127 -0.8992
 5789TIP3    H138858   3.297   6.792  11.324 -1.4495 -0.3777 -0.4577
 5789TIP3    H238859   3.210   6.671  11.348  1.2358 -2.2361  0.3565
 5790TIP3   OH238860   4.616   2.595  13.934  0.0103 -0.3969  0.1508
 5790TIP3    H138861   4.568   2.514  13.950 -0.5534 -0.1858 -0.4199
 5790TIP3    H238862   4.670   2.607  14.012 -1.6716 -0.0734  1.3164
 5791TIP3   OH238863   2.710   5.111  11.372 -0.3432  0.3656 -0.1898
 5791TIP3    H138864   2.672   5.103  11.459 -0.9647 -0.2039 -0.5069
 5791TIP3    H238865   2.671   5.040  11.322  0.3542  0.4109 -0.8128
 5792TIP3   OH238866   3.357   4.135   6.690  0.6350 -0.2996 -0.3579
 5792TIP3    H138867   3.300   4.098   6.623 -0.0661 -0.3758  0.2744
 5792TIP3    H238868   3.347   4.230   6.679  0.5116 -0.3116 -0.3531
 5793TIP3   OH238869   4.349   4.191   5.615  0.4422  0.1719  0.4168
 5793TIP3    H138870   4.367   4.103   5.646  0.7501 -0.3617 -1.1844
 5793TIP3    H238871   4.433   4.222   5.581 -0.2774 -0.1176 -1.8008
 5794TIP3   OH238872   2.395   0.952  15.734 -0.4125  0.1239 -0.0448
 5794TIP3    H138873   2.395   1.047  15.724 -0.9297  0.1128 -0.2046
 5794TIP3    H238874   2.328   0.922  15.673 -0.2329 -0.3447 -0.0106
 5795TIP3   OH238875   6.655   0.944   4.627 -0.1370  0.5743  0.3561
 5795TIP3    H138876   6.628   0.998   4.552  1.3019 -0.2443 -0.8303
 5795TIP3    H238877   6.718   0.999   4.674 -2.5178  1.8872  2.2401
 5796TIP3   OH238878   4.937   5.932   0.210 -0.0172 -0.0680  0.5464
 5796TIP3    H138879   4.974   5.911   0.296 -0.4498 -1.7005  0.3786
 5796TIP3    H238880   5.011   5.928   0.150  0.1153  0.0513  0.7028
 5797TIP3   OH238881   2.849   1.847  16.987  0.1217  0.0414  0.3014
 5797TIP3    H138882   2.818   1.780  16.925 -0.7847  0.6363  0.0752
 5797TIP3    H238883   2.769   1.892  17.014  0.7197  1.0792  0.3858
 5798TIP3   OH238884   2.056   6.162  12.245 -0.7803  0.9782 -0.1252
 5798TIP3    H138885   2.000   6.086  12.260 -1.0372  1.2341  0.2203
 5798TIP3    H238886   2.014   6.233  12.293 -0.0053  1.1100  0.3725
 5799TIP3   OH238887   6.772   4.665   0.226 -0.6683  0.1218 -0.5556
 5799TIP3    H138888   6.800   4.627   0.309 -1.3587  0.3914 -0.1932
 5799TIP3    H238889   6.783   4.594   0.163 -1.7533 -0.6274  0.0772
 5800TIP3   OH238890   1.417   6.514   6.129 -0.2659 -0.5094  0.7117
 5800TIP3    H138891   1.496   6.487   6.175 -0.3533 -0.9562  0.6087
 5800TIP3    H238892   1.388   6.594   6.174  0.2408 -0.3454  0.7465
 5801TIP3   OH238893   3.148   0.681   6.353  0.1689 -0.4404  0.3758
 5801TIP3    H138894   3.234   0.689   6.395  0.6120  1.9138 -0.7839
 5801TIP3    H238895   3.108   0.767   6.364 -1.4675 -1.0799 -0.3043
 5802TIP3   OH238896   3.854   6.165   6.505  0.1974 -0.1036 -0.1816
 5802TIP3    H138897   3.867   6.220   6.583 -1.4274  0.8844 -0.5550
 5802TIP3    H238898   3.894   6.215   6.434 -1.6783  0.9144 -0.6019
 5803TIP3   OH238899   5.288   4.073   1.544 -0.1491  0.3177  0.6551
 5803TIP3    H138900   5.294   4.055   1.450 -2.6103 -1.8821  0.8440
 5803TIP3    H238901   5.371   4.117   1.564  0.1466  1.5792 -2.6532
 5804TIP3   OH238902   4.396   6.414  14.298 -0.4968  0.3998  0.1023
 5804TIP3    H138903   4.387   6.503  14.331  0.8556  0.4062  0.5405
 5804TIP3    H238904   4.446   6.423  14.217  0.6991 -0.0274  0.7654
 5805TIP3   OH238905   6.640   2.469  13.782  0.1198  0.5981  0.6021
 5805TIP3    H138906   6.719   2.423  13.753  0.3825  1.6010 -0.3649
 5805TIP3    H238907   6.648   2.472  13.877 -0.5637 -2.4587  0.8649
 5806TIP3   OH238908   4.415   5.358  13.719  0.5195  0.1495 -0.4380
 5806TIP3    H138909   4.429   5.296  13.647 -0.4774 -0.9424  0.2734
 5806TIP3    H238910   4.325   5.343  13.746  0.3676  1.7011 -0.0237
 5807TIP3   OH238911   3.394   6.448   3.768 -0.0879  0.2050  0.1866
 5807TIP3    H138912   3.457   6.378   3.787  0.8879  0.5924 -1.4234
 5807TIP3    H238913   3.426   6.524   3.817 -0.6476 -0.2040  1.2230
 5808TIP3   OH238914   4.159   3.849   3.964  1.1713 -0.1570 -0.6082
 5808TIP3    H138915   4.064   3.850   3.956  1.1747 -0.9184 -0.7982
 5808TIP3    H238916   4.184   3.757   3.955  1.8932 -0.0212 -0.1707
 5809TIP3   OH238917   3.660   5.435   5.941  0.2607  0.0971 -0.0886
 5809TIP3    H138918   3.627   5.394   6.021  1.4208  0.5217  0.6168
 5809TIP3    H238919   3.706   5.365   5.895  0.5314  0.1221  0.1454
 5810TIP3   OH238920   5.574   0.241   1.785  0.1721  0.5018  0.3700
 5810TIP3    H138921   5.487   0.215   1.815  1.3989 -1.7804  2.2867
 5810TIP3    H238922   5.586   0.195   1.701 -0.5557  1.0920 -0.0670
 5811TIP3   OH238923   1.548   2.359  13.687 -0.1910  0.1905 -0.1770
 5811TIP3    H138924   1.544   2.327  13.597  0.1322 -0.1960 -0.0562
 5811TIP3    H238925   1.636   2.395  13.696  0.5729 -1.7889  0.6443
 5812TIP3   OH238926   1.130   2.525   2.244  0.1573 -0.5607  0.0790
 5812TIP3    H138927   1.051   2.528   2.190 -0.1695 -1.9743  0.4433
 5812TIP3    H238928   1.198   2.565   2.189 -0.9092  1.2645 -0.0071
 5813TIP3   OH238929   0.534   1.964  11.276  0.2907  0.4225 -0.0956
 5813TIP3    H138930   0.560   1.917  11.196  0.0534 -0.3712  0.2901
 5813TIP3    H238931   0.517   1.896  11.340  1.2865  1.0808  0.9004
 5814TIP3   OH238932   4.555   1.914  15.750  0.6113 -0.3423 -0.2203
 5814TIP3    H138933   4.610   1.839  15.728  1.7471  0.3927  0.0231
 5814TIP3    H238934   4.535   1.955  15.666  0.0708 -0.8425 -0.3444
 5815TIP3   OH238935   0.320   0.799  15.485 -0.1220  0.1850  0.7687
 5815TIP3    H138936   0.396   0.839  15.528 -1.1252  1.3774  1.5262
 5815TIP3    H238937   0.256   0.788  15.556 -0.7827 -0.4912  0.0876
 5816TIP3   OH238938   3.687   5.237   1.355  0.0089  0.0885 -0.1967
 5816TIP3    H138939   3.688   5.308   1.418 -2.6717 -0.4057  0.5380
 5816TIP3    H238940   3.766   5.186   1.375  0.6466  1.4559  0.9224
 5817TIP3   OH238941   3.173   3.198   2.325  0.1763 -0.0990  0.1728
 5817TIP3    H138942   3.118   3.128   2.290  0.5174 -0.9889  1.3425
 5817TIP3    H238943   3.214   3.160   2.403  2.0606  0.7086 -0.3608
 5818TIP3   OH238944   1.568   2.523  12.229  0.0766 -0.3751 -0.8488
 5818TIP3    H138945   1.507   2.460  12.193 -1.0144 -1.0088  1.8182
 5818TIP3    H238946   1.522   2.562  12.304  2.5625 -0.2501  0.7739
 5819TIP3   OH238947   0.267   2.500  16.914  0.4426  0.0710 -0.0796
 5819TIP3    H138948   0.239   2.422  16.867  0.7454 -1.1268  1.6611
 5819TIP3    H238949   0.266   2.475  17.006  1.8792  1.6832  0.4348
 5820TIP3   OH238950   5.810   4.392   1.613 -0.0060  1.0828  0.3148
 5820TIP3    H138951   5.771   4.474   1.581 -0.1034  1.4768  1.3853
 5820TIP3    H238952   5.814   4.336   1.536  0.7256  2.3407 -0.6122
 5821TIP3   OH238953   0.160   5.038  10.771 -0.0438 -0.2914  0.0752
 5821TIP3    H138954   0.170   4.990  10.853  0.5631 -2.2112 -1.0764
 5821TIP3    H238955   0.248   5.068  10.749 -0.0552 -0.5258 -0.3060
 5822TIP3   OH238956   0.999   0.005   5.631 -0.1541  0.1948 -0.5554
 5822TIP3    H138957   0.958   0.087   5.659  0.2744  0.2009  0.0822
 5822TIP3    H238958   0.931  -0.061   5.642 -0.5908  0.4944 -1.3322
 5823TIP3   OH238959   6.655   1.872  13.111  0.2552  0.2054  0.6088
 5823TIP3    H138960   6.701   1.790  13.089 -0.1903 -0.1252  0.8929
 5823TIP3    H238961   6.665   1.927  13.033  3.6677  1.3199  1.6635
 5824TIP3   OH238962   1.959   5.740  15.828  0.0199  0.3329  0.2285
 5824TIP3    H138963   1.902   5.667  15.803 -0.2891  1.1725 -1.7569
 5824TIP3    H238964   2.030   5.699  15.877 -0.5705 -1.1880 -0.1062
 5825TIP3   OH238965   3.446   1.582  12.602  0.7477  0.0996  0.3517
 5825TIP3    H138966   3.424   1.573  12.509 -0.8131  0.1683  0.6952
 5825TIP3    H238967   3.381   1.643  12.636  2.5659  1.7687  1.0654
 5826TIP3   OH238968   1.971   4.284  11.681 -0.2513 -0.4971  0.7170
 5826TIP3    H138969   1.957   4.189  11.676  0.9779 -0.6395 -1.1270
 5826TIP3    H238970   1.898   4.322  11.634  0.5034 -0.7145 -0.7043
 5827TIP3   OH238971   2.548   1.757  17.077 -0.2389 -0.1467  0.0460
 5827TIP3    H138972   2.595   1.721  17.152  0.9510 -1.3582 -1.1993
 5827TIP3    H238973   2.565   1.851  17.079 -1.7006  0.1431  2.2348
 5828TIP3   OH238974   5.153   2.984  15.786 -0.3382  0.2955 -0.3466
 5828TIP3    H138975   5.105   3.045  15.842 -0.8584 -0.6397  0.2418
 5828TIP3    H238976   5.244   2.991  15.816 -0.3190  1.0747 -0.5612
 5829TIP3   OH238977   1.093   5.262   0.578  0.4839 -0.4543 -0.0723
 5829TIP3    H138978   1.066   5.172   0.594 -3.1549  0.0236 -2.2703
 5829TIP3    H238979   1.079   5.307   0.661 -1.3766 -1.2338  0.0862
 5830TIP3   OH238980   3.836   5.494  10.500 -0.4683 -0.1703 -0.7984
 5830TIP3    H138981   3.806   5.585  10.491 -0.4091 -0.2144 -1.5179
 5830TIP3    H238982   3.765   5.451  10.547  0.0786  0.5350  0.7217
 5831TIP3   OH238983   2.602   4.207  12.490 -0.3623 -0.2427  0.3451
 5831TIP3    H138984   2.541   4.161  12.432  1.0405  0.8170 -2.1063
 5831TIP3    H238985   2.582   4.299  12.477  1.4878  0.1128 -0.2354
 5832TIP3   OH238986   6.002   0.700   0.086  0.0404  0.4360 -0.0565
 5832TIP3    H138987   5.911   0.706   0.058 -0.3066  0.4120  1.0342
 5832TIP3    H238988   6.049   0.670   0.008 -1.2789 -2.2803  0.0726
 5833TIP3   OH238989   3.528   4.660   2.882 -0.1987  0.3348  0.1304
 5833TIP3    H138990   3.433   4.658   2.894 -0.0172  1.8377  2.4033
 5833TIP3    H238991   3.562   4.603   2.951  0.5591 -0.7692 -1.1129
 5834TIP3   OH238992   4.386   0.004  12.280  0.1152  0.1669 -0.1502
 5834TIP3    H138993   4.324   0.069  12.247  0.2666  1.2292  1.4977
 5834TIP3    H238994   4.446  -0.012  12.208 -1.0720  0.4072 -1.2174
 5835TIP3   OH238995   1.022   1.964   1.888 -0.2534  0.1116  0.0239
 5835TIP3    H138996   1.113   1.987   1.907  0.0803  0.2093 -1.5317
 5835TIP3    H238997   0.988   1.928   1.970  1.0566  0.4762  0.7481
 5836TIP3   OH238998   0.250   4.653   4.250  0.3814  0.4920  0.4862
 5836TIP3    H138999   0.223   4.739   4.216 -0.3429  0.8572  1.8978
 5836TIP3    H239000   0.268   4.601   4.172 -1.0904  1.3164 -0.4576
 5837TIP3   OH239001   4.179   1.258   1.575  0.2974 -0.2646 -0.0099
 5837TIP3    H139002   4.123   1.245   1.652  0.6888  0.4946  0.4252
 5837TIP3    H239003   4.256   1.304   1.610  0.9548 -0.8453 -0.6818
 5838TIP3   OH239004   1.446   3.226   4.357  0.1796 -0.0193 -0.2494
 5838TIP3    H139005   1.421   3.134   4.344 -2.5670  0.3985  1.1991
 5838TIP3    H239006   1.498   3.226   4.437 -0.2437 -0.2705  0.0290
 5839TIP3   OH239007   5.182   1.200  11.447  0.1136 -0.3048 -0.2317
 5839TIP3    H139008   5.176   1.271  11.511  0.8513 -0.2848 -0.1693
 5839TIP3    H239009   5.208   1.242  11.366 -0.5893 -0.3617 -0.4924
 5840TIP3   OH239010   0.084   0.326  16.412 -0.2679 -0.1455  0.1953
 5840TIP3    H139011   0.123   0.347  16.327 -1.4572  0.2893 -0.2616
 5840TIP3    H239012   0.015   0.263  16.392  0.1957 -0.9395  1.0019
 5841TIP3   OH239013   5.590   3.395   5.155  0.5796 -0.4316 -0.3138
 5841TIP3    H139014   5.555   3.321   5.106 -1.4760  0.9480 -1.0478
 5841TIP3    H239015   5.553   3.386   5.243  0.0020 -0.0656 -0.5175
 5842TIP3   OH239016   6.503   1.136   0.884 -0.0062 -0.5248  0.3899
 5842TIP3    H139017   6.509   1.200   0.954  1.6092 -0.2744  0.0503
 5842TIP3    H239018   6.569   1.070   0.905  0.5148 -0.4439 -0.8821
 5843TIP3   OH239019   4.010   1.912   3.759  0.0487  0.0928  0.9926
 5843TIP3    H139020   3.955   1.909   3.680  2.4869 -0.4501 -0.8056
 5843TIP3    H239021   3.978   1.841   3.813 -1.5112  0.2876  0.3861
 5844TIP3   OH239022   3.546   6.741  14.157  0.1627 -0.1155  0.0582
 5844TIP3    H139023   3.585   6.676  14.215  0.9471  0.6198  0.3693
 5844TIP3    H239024   3.472   6.695  14.116  0.0973 -0.8927  1.0071
 5845TIP3   OH239025   5.247   2.420   2.636 -0.0410  0.0580  0.4591
 5845TIP3    H139026   5.238   2.374   2.552  1.9316  0.8638 -0.2684
 5845TIP3    H239027   5.169   2.396   2.685  0.0521 -2.6445 -0.5345
 5846TIP3   OH239028   3.756   5.697  17.011  0.0802 -0.2060  0.3730
 5846TIP3    H139029   3.736   5.789  17.026  1.4951  0.2030 -0.0505
 5846TIP3    H239030   3.680   5.662  16.965 -0.2925  0.8572  0.1671
 5847TIP3   OH239031   3.367   1.738  14.914  0.5560  0.4552  0.0865
 5847TIP3    H139032   3.277   1.765  14.933  0.7998  0.4191  1.3890
 5847TIP3    H239033   3.365   1.643  14.917  0.5201  0.4335 -0.5010
 5848TIP3   OH239034   3.043   5.978  11.535  0.4604  0.5452  0.1303
 5848TIP3    H139035   3.015   5.897  11.494 -1.5905  1.4744 -0.4143
 5848TIP3    H239036   3.123   5.955  11.582  1.7620 -1.0486 -2.6193
 5849TIP3   OH239037   0.114   0.709   2.061 -0.3841  0.6230  0.8582
 5849TIP3    H139038   0.027   0.741   2.084 -0.0800  1.3559  1.0188
 5849TIP3    H239039   0.134   0.749   1.977 -0.3527  0.1498  0.6330
 5850TIP3   OH239040   5.889   1.009  15.609  0.0709 -1.0727  0.0558
 5850TIP3    H139041   5.984   0.995  15.602  0.4693  1.4142 -0.6808
 5850TIP3    H239042   5.861   1.027  15.519 -0.5208  1.0179  0.5879
 5851TIP3   OH239043   3.642   1.123  10.789 -0.2354  0.0823 -0.1622
 5851TIP3    H139044   3.604   1.204  10.822 -0.3406  0.1556 -0.4572
 5851TIP3    H239045   3.720   1.109  10.843 -0.7369 -0.1231  0.5185
 5852TIP3   OH239046   2.810   5.437  16.474 -0.2977 -0.3518 -0.0501
 5852TIP3    H139047   2.801   5.389  16.557 -0.5353  1.1373  0.8214
 5852TIP3    H239048   2.905   5.448  16.464 -0.2677 -0.5317  0.0182
 5853TIP3   OH239049   4.570   3.209   2.285  0.1582 -0.1070  0.0887
 5853TIP3    H139050   4.550   3.121   2.319  1.3587 -0.4233  0.0414
 5853TIP3    H239051   4.657   3.199   2.245  0.3957  1.1564  0.2655
 5854TIP3   OH239052   1.242   6.239   1.897 -0.0747  0.2054  0.2140
 5854TIP3    H139053   1.322   6.202   1.932 -0.1474  1.1189  1.3981
 5854TIP3    H239054   1.217   6.180   1.825  0.7153 -1.0408  0.9412
 5855TIP3   OH239055   1.842   5.397   2.300 -0.2763 -0.2674  0.4247
 5855TIP3    H139056   1.906   5.450   2.253 -0.8204  0.3800  0.3848
 5855TIP3    H239057   1.893   5.345   2.361  0.1708  1.5979  1.7224
 5856TIP3   OH239058   1.832   1.402   5.468 -0.3173 -0.6532 -0.6730
 5856TIP3    H139059   1.771   1.392   5.395 -1.3749  1.1524 -0.0970
 5856TIP3    H239060   1.776   1.411   5.545  0.7309 -0.3305  0.0686
 5857TIP3   OH239061   2.774   6.798  13.564  0.1384  0.1011  0.2730
 5857TIP3    H139062   2.748   6.873  13.617 -1.7331  0.7131 -1.3782
 5857TIP3    H239063   2.708   6.730  13.584  0.0546 -0.0359 -0.4167
 5858TIP3   OH239064   6.129   0.601  10.538  0.0111 -0.0683  0.5619
 5858TIP3    H139065   6.035   0.617  10.551 -0.1032 -0.0859 -0.1739
 5858TIP3    H239066   6.137   0.581  10.444  0.9509  1.4064  0.2893
 5859TIP3   OH239067   4.018   4.256   1.975 -0.0145 -0.3369 -0.2274
 5859TIP3    H139068   4.010   4.196   2.050 -0.4958 -0.6030 -0.4891
 5859TIP3    H239069   3.948   4.320   1.989  0.9764  0.6348  0.4623
 5860TIP3   OH239070   0.681   3.150   0.609 -0.9614 -0.2797  0.6069
 5860TIP3    H139071   0.759   3.205   0.613  0.6661 -2.3573 -0.4775
 5860TIP3    H239072   0.609   3.212   0.599  0.8818  1.6652 -2.4091
 5861TIP3   OH239073   4.993   4.129   1.480 -0.1937 -0.2266 -0.4033
 5861TIP3    H139074   5.052   4.088   1.543 -3.8047 -1.0323  2.8364
 5861TIP3    H239075   4.982   4.218   1.512 -0.3347  0.0837 -1.2857
 5862TIP3   OH239076   6.818   3.959  13.765 -0.2266  0.3525  0.4524
 5862TIP3    H139077   6.868   4.037  13.791 -1.8279  1.7421 -0.4050
 5862TIP3    H239078   6.807   3.909  13.846  0.9870  0.9193  0.9907
 5863TIP3   OH239079   1.797   4.016   1.996 -0.2400  0.1468 -0.4760
 5863TIP3    H139080   1.725   3.953   2.000  1.1182 -1.4644 -0.2630
 5863TIP3    H239081   1.811   4.042   2.087 -1.3072  1.3909 -0.6488
 5864TIP3   OH239082   0.364   0.399   6.340 -0.3240  0.3495  0.2133
 5864TIP3    H139083   0.355   0.480   6.289 -1.0064  1.4007  1.9271
 5864TIP3    H239084   0.274   0.368   6.350 -0.0251 -0.9800 -0.9141
 5865TIP3   OH239085   4.356   5.158   0.671 -0.3406  0.8674  0.4202
 5865TIP3    H139086   4.348   5.175   0.577 -1.2391 -0.0111  0.3232
 5865TIP3    H239087   4.268   5.134   0.699  0.2375 -0.5275  1.1469
 5866TIP3   OH239088   3.821   6.420   0.460 -0.1805  0.6093  0.3678
 5866TIP3    H139089   3.791   6.396   0.372 -0.6281  0.7182  0.4929
 5866TIP3    H239090   3.892   6.483   0.445  1.8462 -1.6019 -0.0231
 5867TIP3   OH239091   6.460   6.201   3.913  0.0347  0.2809 -0.7633
 5867TIP3    H139092   6.434   6.109   3.921 -2.0365  0.9707  1.9276
 5867TIP3    H239093   6.378   6.250   3.917  1.2211  2.3396  0.5656
 5868TIP3   OH239094   3.139   5.384  17.181 -0.2650  0.3899 -0.2460
 5868TIP3    H139095   3.075   5.346  17.121  0.4901 -1.8565  0.2643
 5868TIP3    H239096   3.191   5.443  17.126 -0.8194 -0.1158 -1.3562
 5869TIP3   OH239097   1.885   2.543  11.893 -0.6145 -0.0323 -0.5378
 5869TIP3    H139098   1.809   2.593  11.922 -0.6933  0.1210 -0.9953
 5869TIP3    H239099   1.905   2.484  11.966 -1.2624 -0.1786 -0.4758
 5870TIP3   OH239100   6.444   2.739   1.145 -0.4531  0.1679  0.1026
 5870TIP3    H139101   6.502   2.722   1.219  0.9434 -0.4338 -1.0878
 5870TIP3    H239102   6.369   2.784   1.184  0.9010  1.1989  1.6636
 5871TIP3   OH239103   3.096   4.521  14.961 -0.5926  0.0670 -0.5733
 5871TIP3    H139104   3.007   4.513  14.927 -0.3255 -0.1928 -1.2156
 5871TIP3    H239105   3.134   4.594  14.912 -0.7717  0.8552  0.4180
 5872TIP3   OH239106   5.616   1.662  15.387  0.1140  0.4478  0.1830
 5872TIP3    H139107   5.635   1.740  15.441  0.0636 -0.3234  1.3521
 5872TIP3    H239108   5.521   1.667  15.372 -0.3073 -0.5002  2.1378
 5873TIP3   OH239109   1.441   6.264  14.865  0.0820 -0.0749  0.1688
 5873TIP3    H139110   1.502   6.327  14.902  0.5338 -0.1771 -0.3695
 5873TIP3    H239111   1.444   6.280  14.770 -2.2260  1.2501  0.2505
 5874TIP3   OH239112   3.141   1.621  13.042 -0.0756 -0.0446  0.5378
 5874TIP3    H139113   3.063   1.676  13.029  0.6246  1.1084  1.0208
 5874TIP3    H239114   3.108   1.542  13.083 -1.1712 -0.1502 -0.4801
 5875TIP3   OH239115   4.660   3.100  13.559  0.4830 -0.1852  0.2128
 5875TIP3    H139116   4.590   3.160  13.583 -0.0533  0.4572 -2.5947
 5875TIP3    H239117   4.631   3.061  13.477  2.1780 -2.0487  0.4290
 5876TIP3   OH239118   4.060   3.399  16.496  0.0941  0.1308  0.5688
 5876TIP3    H139119   4.049   3.425  16.587 -3.6935 -0.0183  0.3116
 5876TIP3    H239120   4.030   3.475  16.445 -0.3605 -0.7181 -0.4700
 5877TIP3   OH239121   4.816   0.117   5.395  0.4983 -0.2223 -0.3214
 5877TIP3    H139122   4.871   0.079   5.464  1.4498 -0.8075 -1.3680
 5877TIP3    H239123   4.744   0.055   5.385  0.7299 -0.4935 -0.3271
 5878TIP3   OH239124   1.901   2.056  16.446  0.3693  0.1951  0.1540
 5878TIP3    H139125   1.931   2.137  16.486 -0.4033  0.0471  1.0648
 5878TIP3    H239126   1.892   2.076  16.353 -0.7701  1.4405  0.5141
 5879TIP3   OH239127   3.079   5.893   1.046 -0.3340 -0.0342  0.1597
 5879TIP3    H139128   3.115   5.827   1.105  0.4144  0.8375  0.6998
 5879TIP3    H239129   3.151   5.953   1.030 -0.5752 -0.1210 -1.4862
 5880TIP3   OH239130   2.638   2.641   0.923 -0.2920 -0.3337 -0.7099
 5880TIP3    H139131   2.666   2.662   1.012 -1.4696 -1.3090 -0.0794
 5880TIP3    H239132   2.697   2.571   0.895 -0.2149 -0.3475 -0.5163
 5881TIP3   OH239133   4.073   5.277  16.801 -0.7054  0.3727 -0.1847
 5881TIP3    H139134   4.014   5.341  16.761 -1.8855  0.1138  1.0760
 5881TIP3    H239135   4.137   5.329  16.848  1.7438  0.7591 -3.6042
 5882TIP3   OH239136   2.101   5.469   4.128  0.3017  0.0203  0.3968
 5882TIP3    H139137   2.195   5.461   4.142  0.4143 -1.8025 -1.0715
 5882TIP3    H239138   2.065   5.385   4.156 -0.9214  0.7085  0.9748
 5883TIP3   OH239139   6.699   3.762   3.150  0.7944  0.1826 -0.1078
 5883TIP3    H139140   6.624   3.816   3.125  0.7244 -0.1940 -0.7261
 5883TIP3    H239141   6.758   3.822   3.195  0.3225  0.5792 -0.0147
 5884TIP3   OH239142   5.812   1.389   0.560  0.4339  0.3846 -0.1995
 5884TIP3    H139143   5.803   1.312   0.616  0.8461  1.0320  0.7876
 5884TIP3    H239144   5.737   1.444   0.581 -0.8124 -0.4891 -2.1587
 5885TIP3   OH239145   3.617   3.224   4.958  0.3224  0.0357  0.2584
 5885TIP3    H139146   3.659   3.198   5.040 -1.9061 -0.9788  1.1468
 5885TIP3    H239147   3.523   3.220   4.976 -0.2186  1.9656 -1.7168
 5886TIP3   OH239148   6.225   4.030   1.630  0.4417 -0.4735  0.0779
 5886TIP3    H139149   6.130   4.019   1.631  0.5627 -1.6040  0.2995
 5886TIP3    H239150   6.243   4.086   1.705 -0.2032  1.2936 -1.0338
 5887TIP3   OH239151   5.333   6.716   2.441 -0.0691 -0.3188  0.5060
 5887TIP3    H139152   5.309   6.689   2.352  0.2272  0.9179  0.0350
 5887TIP3    H239153   5.428   6.727   2.437  0.0157 -0.8039  1.1331
 5888TIP3   OH239154   5.355   3.693  15.643  0.2694 -0.6229 -0.3711
 5888TIP3    H139155   5.405   3.770  15.671  0.6663 -1.6950  2.0434
 5888TIP3    H239156   5.414   3.619  15.655 -0.4204 -1.4563 -1.7654
 5889TIP3   OH239157   3.701   0.335   0.804 -0.0799  0.1600 -0.0578
 5889TIP3    H139158   3.612   0.310   0.829  0.0108 -0.3633 -0.2481
 5889TIP3    H239159   3.745   0.354   0.887 -0.2645  0.0747  0.0608
 5890TIP3   OH239160   1.390   3.483  13.324  0.0591  0.0717 -0.1138
 5890TIP3    H139161   1.413   3.406  13.272  0.4780  0.2184 -0.1452
 5890TIP3    H239162   1.409   3.457  13.414 -0.1361  0.0160 -0.0873
 5891TIP3   OH239163   0.113   0.593   1.035 -0.0616  0.1740 -0.2679
 5891TIP3    H139164   0.078   0.592   0.946  0.0167  0.8605 -0.3122
 5891TIP3    H239165   0.041   0.625   1.089  0.1321  0.4892 -0.1954
 5892TIP3   OH239166   0.949   0.036   0.477 -0.1125  0.3451  0.1089
 5892TIP3    H139167   1.013   0.006   0.412  0.9592 -0.3046  1.4084
 5892TIP3    H239168   1.003   0.063   0.552 -1.3172  1.0487  0.7473
 5893TIP3   OH239169   5.292   6.115  16.670  0.2910  0.1548 -0.2701
 5893TIP3    H139170   5.380   6.147  16.687  1.4173 -2.2102 -1.1968
 5893TIP3    H239171   5.260   6.085  16.755 -0.8065  3.4544  0.6302
 5894TIP3   OH239172   6.354   1.527  17.027 -0.3962  0.4425  0.0257
 5894TIP3    H139173   6.311   1.441  17.025  0.8761 -0.2634  1.0484
 5894TIP3    H239174   6.342   1.558  17.117  1.0133  0.3095  0.2823
 5895TIP3   OH239175   0.319   5.404   5.243  0.1669 -0.3242  0.1358
 5895TIP3    H139176   0.303   5.466   5.172 -0.0633  0.4291  0.8238
 5895TIP3    H239177   0.370   5.334   5.203  0.4465  0.3129 -0.6599
 5896TIP3   OH239178   3.486   5.686  13.774  0.7408  0.3262  0.4638
 5896TIP3    H139179   3.488   5.664  13.681  1.8050 -0.4311  0.6463
 5896TIP3    H239180   3.396   5.713  13.791 -0.0821 -1.8359 -0.2609
 5897TIP3   OH239181   5.387   3.444  13.979 -0.1456 -0.8048 -0.3464
 5897TIP3    H139182   5.341   3.362  13.964  0.2029 -1.1922  0.6070
 5897TIP3    H239183   5.320   3.512  13.967 -0.5863 -1.2644 -0.5137
 5898TIP3   OH239184   2.717   5.744  16.658 -0.1210  0.2714 -0.3409
 5898TIP3    H139185   2.632   5.731  16.699  0.3752 -0.2138  0.5711
 5898TIP3    H239186   2.776   5.688  16.707  0.8462  1.0695 -0.5535
 5899TIP3   OH239187   4.525   1.056  10.713  0.3484  0.6392 -0.1568
 5899TIP3    H139188   4.589   1.016  10.653 -1.4232 -1.0018 -1.0741
 5899TIP3    H239189   4.533   1.150  10.698  1.6746  0.4006 -1.1412
 5900TIP3   OH239190   1.964   5.717   2.922 -0.2949 -0.4907 -0.0930
 5900TIP3    H139191   1.978   5.708   3.016 -1.1588 -1.8935 -0.0781
 5900TIP3    H239192   2.035   5.667   2.882  0.8494  1.1681 -0.2597
 5901TIP3   OH239193   1.833   2.338   3.315  0.2786  0.0965  0.1085
 5901TIP3    H139194   1.847   2.429   3.339  0.7274  0.3162 -0.9342
 5901TIP3    H239195   1.921   2.300   3.308  0.0818 -0.7751  1.7608
 5902TIP3   OH239196   6.772   1.692   5.193 -0.3014 -0.3893 -0.8983
 5902TIP3    H139197   6.692   1.726   5.154 -0.3214 -0.8003 -1.2251
 5902TIP3    H239198   6.771   1.724   5.283  0.7421  2.2916 -1.7407
 5903TIP3   OH239199   1.334   0.081  11.839 -0.2211  0.0792  0.4994
 5903TIP3    H139200   1.332   0.071  11.934  0.2732 -0.5458  0.4497
 5903TIP3    H239201   1.391   0.156  11.824  0.9688 -0.7501  0.6529
 5904TIP3   OH239202   6.682   0.969   3.443  0.9150 -0.4499 -0.2076
 5904TIP3    H139203   6.665   1.042   3.501  1.5064 -2.1930  2.3349
 5904TIP3    H239204   6.601   0.958   3.393  0.8114  1.8481 -0.6135
 5905TIP3   OH239205   3.418   1.315   6.445 -0.5519  0.1322 -0.2110
 5905TIP3    H139206   3.421   1.411   6.450 -1.6075  0.1179  1.5676
 5905TIP3    H239207   3.485   1.286   6.506  0.2189 -0.3035 -1.2292
 5906TIP3   OH239208   6.776   5.406  15.349 -0.1117  0.0558 -0.1251
 5906TIP3    H139209   6.699   5.357  15.376  0.6844 -1.0205  0.2559
 5906TIP3    H239210   6.765   5.419  15.255 -0.4416 -0.6636 -0.1923
 5907TIP3   OH239211   3.535   4.600  12.835  1.0960  0.3662  0.6177
 5907TIP3    H139212   3.496   4.521  12.798  0.4898  1.2045 -0.6277
 5907TIP3    H239213   3.629   4.580  12.840  0.9228 -0.5053  0.5251
 5908TIP3   OH239214   2.738   0.025   6.444 -0.2154 -0.6009  0.4873
 5908TIP3    H139215   2.777   0.054   6.526 -0.5667 -1.1256  0.8486
 5908TIP3    H239216   2.644   0.042   6.454 -0.3082 -1.0120  0.3416
 5909TIP3   OH239217   2.111   5.279   5.363 -0.4636  0.3909  0.0289
 5909TIP3    H139218   2.178   5.231   5.411 -0.8909 -1.8642 -1.4962
 5909TIP3    H239219   2.152   5.364   5.345  0.6315  0.3741  2.1102
 5910TIP3   OH239220   1.823   2.694   5.675 -0.3938  0.0838  0.1677
 5910TIP3    H139221   1.893   2.756   5.698 -0.9441  0.9963 -0.5255
 5910TIP3    H239222   1.869   2.612   5.657  0.5315  0.7154 -0.4665
 5911TIP3   OH239223   6.449   0.852   3.841  0.6664 -0.0602  0.2198
 5911TIP3    H139224   6.456   0.811   3.754 -0.9417  0.5485 -0.2212
 5911TIP3    H239225   6.539   0.873   3.864  1.1495 -0.4510 -1.1981
 5912TIP3   OH239226   2.575   6.313  12.964 -0.4457  0.4309 -0.0052
 5912TIP3    H139227   2.526   6.393  12.982 -2.3854 -0.4904 -0.7709
 5912TIP3    H239228   2.625   6.297  13.043 -1.3801  1.4745  0.8374
 5913TIP3   OH239229   1.393   3.360  12.520  0.5719 -0.0917 -0.4559
 5913TIP3    H139230   1.321   3.370  12.458 -0.6387 -2.4961  0.4278
 5913TIP3    H239231   1.373   3.419  12.592  0.3155  0.3959 -0.9246
 5914TIP3   OH239232   1.133   2.837   0.788  0.3658  0.4355 -0.6625
 5914TIP3    H139233   1.115   2.912   0.845  1.3355  0.2018 -0.0118
 5914TIP3    H239234   1.142   2.874   0.701 -1.9605  0.7002 -0.8526
 5915TIP3   OH239235   0.278   1.521  14.760  0.9302 -0.2859 -0.2562
 5915TIP3    H139236   0.275   1.604  14.807  0.3194 -1.0421  1.0957
 5915TIP3    H239237   0.254   1.543  14.670 -0.7193  0.7929  0.3979
 5916TIP3   OH239238   3.310   4.501  12.084  0.5735 -0.0881 -0.1095
 5916TIP3    H139239   3.309   4.467  12.173 -0.7802 -0.5521 -0.2764
 5916TIP3    H239240   3.243   4.570  12.083  0.1787 -0.4573 -0.8811
 5917TIP3   OH239241   6.558   6.714  13.569  0.4376 -0.0959 -0.0884
 5917TIP3    H139242   6.580   6.805  13.548 -0.0493 -0.1284 -0.7611
 5917TIP3    H239243   6.595   6.700  13.656  0.2929  0.8294  0.1338
 5918TIP3   OH239244   1.791   6.495  16.261  0.2899 -0.3389  0.3704
 5918TIP3    H139245   1.753   6.412  16.233 -0.7484  0.6041 -1.2295
 5918TIP3    H239246   1.817   6.538  16.179  0.1294  1.1936  1.0841
 5919TIP3   OH239247   1.615   1.079   3.399  0.0535  0.5396 -0.3009
 5919TIP3    H139248   1.668   1.016   3.351  0.1585  1.1676 -1.0213
 5919TIP3    H239249   1.528   1.040   3.401  0.1999  0.1987 -0.4147
 5920TIP3   OH239250   5.225   1.384   2.940 -0.0892  0.5591 -0.2824
 5920TIP3    H139251   5.160   1.452   2.920 -0.7281 -0.0976 -0.4558
 5920TIP3    H239252   5.293   1.395   2.873 -0.7163  0.3453 -0.9709
 5921TIP3   OH239253   3.275   0.964  15.929 -0.0510  0.3415  0.1498
 5921TIP3    H139254   3.208   0.901  15.955  0.6756 -0.2348  0.6871
 5921TIP3    H239255   3.233   1.018  15.862 -0.4261 -1.2914 -0.9917
 5922TIP3   OH239256   0.012   2.136   3.143  0.3937  0.2555 -0.5561
 5922TIP3    H139257  -0.022   2.178   3.222 -3.6657 -0.8854 -1.4341
 5922TIP3    H239258   0.050   2.055   3.173  0.9121  0.8482  0.4136
 5923TIP3   OH239259   5.143   4.794   2.941 -0.5752 -0.0651 -0.4186
 5923TIP3    H139260   5.215   4.845   2.979  0.1357 -0.8944 -0.6151
 5923TIP3    H239261   5.092   4.764   3.016 -0.9230  0.8195 -0.2970
 5924TIP3   OH239262   5.172   5.115   5.146 -0.5253  0.2793 -0.5817
 5924TIP3    H139263   5.235   5.118   5.074  1.3958  0.2865  1.0244
 5924TIP3    H239264   5.193   5.035   5.193 -2.7778 -0.5380 -0.8394
 5925TIP3   OH239265   1.437   3.612  14.233  0.0536 -0.6466  0.2732
 5925TIP3    H139266   1.521   3.593  14.190 -1.0940  1.4905 -3.2230
 5925TIP3    H239267   1.398   3.526  14.246  0.1485 -1.5375 -3.9370
 5926TIP3   OH239268   0.461   3.942   1.736 -0.6266  0.1099  0.3181
 5926TIP3    H139269   0.491   3.891   1.660 -0.1137  0.5618  0.2195
 5926TIP3    H239270   0.413   3.878   1.790 -1.3834 -0.1250 -0.5956
 5927TIP3   OH239271   0.901   1.443  12.797 -0.4567 -0.3112  0.2729
 5927TIP3    H139272   0.866   1.517  12.748 -0.5446 -0.4012  0.1994
 5927TIP3    H239273   0.838   1.372  12.783 -0.0159 -0.6119 -0.2299
 5928TIP3   OH239274   3.306   0.553   3.657 -0.0061  0.3164  0.3388
 5928TIP3    H139275   3.214   0.528   3.665 -0.2183  1.1040  0.4831
 5928TIP3    H239276   3.310   0.642   3.694  0.9052  0.1047  0.7763
 5929TIP3   OH239277   5.385   5.085   4.023 -0.3010  1.0680  0.1586
 5929TIP3    H139278   5.328   5.161   4.010 -0.0204  1.0871 -1.1090
 5929TIP3    H239279   5.346   5.039   4.097 -1.9157  1.1461 -0.5929
 5930TIP3   OH239280   0.501   4.877  17.096  0.2753  0.4684 -0.2438
 5930TIP3    H139281   0.410   4.850  17.087 -0.0908  0.8352  1.7630
 5930TIP3    H239282   0.498   4.973  17.102  0.7058  0.4461  0.4998
 5931TIP3   OH239283   4.693   2.511   4.992  0.3216  0.0372  0.3249
 5931TIP3    H139284   4.666   2.430   4.950  1.9773 -0.6671  0.5678
 5931TIP3    H239285   4.718   2.485   5.081  1.7947  0.6223  0.1093
 5932TIP3   OH239286   1.428   6.489  15.986  0.0649 -0.3512  0.5242
 5932TIP3    H139287   1.519   6.460  15.982 -0.2861 -1.6412  1.2878
 5932TIP3    H239288   1.380   6.428  15.930 -0.3949  0.0697  0.4479
 5933TIP3   OH239289   1.480   3.242   1.595  0.1233  0.0211 -0.2897
 5933TIP3    H139290   1.462   3.169   1.654 -1.5841 -1.3201 -2.3578
 5933TIP3    H239291   1.521   3.308   1.651 -1.1642 -1.2647  2.3175
 5934TIP3   OH239292   0.247   1.290  13.081  0.1038  0.4948 -0.1141
 5934TIP3    H139293   0.191   1.215  13.101 -0.0788  0.4984 -0.5917
 5934TIP3    H239294   0.309   1.294  13.153  3.4062 -3.1845 -2.4104
 5935TIP3   OH239295   1.201   3.708   1.631 -0.3271  0.0158 -0.7380
 5935TIP3    H139296   1.181   3.784   1.576 -0.8065 -0.9982 -2.0083
 5935TIP3    H239297   1.187   3.632   1.574 -0.9903 -1.1007  0.8246
 5936TIP3   OH239298   3.815   1.843  11.220 -0.3425 -0.0191  0.0745
 5936TIP3    H139299   3.838   1.934  11.242  0.2011 -0.3229  0.7859
 5936TIP3    H239300   3.806   1.799  11.305 -0.7026 -0.6122 -0.2649
 5937TIP3   OH239301   0.957   1.096  14.885  0.0001  0.5334  0.0809
 5937TIP3    H139302   0.959   1.182  14.843 -0.1536  1.2242  1.4207
 5937TIP3    H239303   0.943   1.115  14.978 -2.4111 -1.0217  0.1460
 5938TIP3   OH239304   4.129   4.647  11.546 -0.6563  0.1556 -0.2930
 5938TIP3    H139305   4.098   4.564  11.581  0.4267 -0.8176 -1.5238
 5938TIP3    H239306   4.222   4.632  11.527 -0.4966  1.5712 -0.7587
 5939TIP3   OH239307   1.886   0.625  15.901 -0.4580  0.0088 -0.4995
 5939TIP3    H139308   1.886   0.668  15.986 -1.0794  2.3859 -1.6104
 5939TIP3    H239309   1.926   0.689  15.842 -1.1127 -1.0840 -2.2130
 5940TIP3   OH239310   5.073   4.498   2.145  0.0620  0.0226 -0.0450
 5940TIP3    H139311   5.018   4.424   2.168 -2.4312  1.5546 -0.7604
 5940TIP3    H239312   5.034   4.573   2.189  3.2023  0.8523  1.6654
 5941TIP3   OH239313   1.406   0.083   2.846  0.1599  0.0518  0.1239
 5941TIP3    H139314   1.492   0.042   2.833 -0.5019 -0.7134 -2.2747
 5941TIP3    H239315   1.347   0.033   2.790 -2.0096  0.1974  2.1340
 5942TIP3   OH239316   6.026   3.178  17.015  0.0527  0.4738 -0.1237
 5942TIP3    H139317   6.081   3.099  17.012  0.7209  0.9587 -1.9718
 5942TIP3    H239318   6.082   3.244  17.056 -0.7453 -0.1275  2.0667
 5943TIP3   OH239319   0.985   6.764  14.027 -0.1879 -0.0025  0.4200
 5943TIP3    H139320   1.043   6.692  14.050  0.5703 -0.7005 -3.0435
 5943TIP3    H239321   0.899   6.722  14.014  0.0375 -0.1618 -0.6600
 5944TIP3   OH239322   1.289   1.178  13.664 -0.3653 -0.7339  0.1000
 5944TIP3    H139323   1.301   1.230  13.743  0.8970 -0.2720 -0.3713
 5944TIP3    H239324   1.208   1.213  13.625  0.9818  1.6825 -0.7432
 5945TIP3   OH239325   6.761   4.351   3.801 -0.3912  0.6722  0.6210
 5945TIP3    H139326   6.820   4.379   3.731 -0.8350 -1.3205 -0.6414
 5945TIP3    H239327   6.816   4.300   3.860 -0.1536  1.8043  1.4064
 5946TIP3   OH239328   3.491   2.557  13.825 -0.1245  0.1998 -0.4394
 5946TIP3    H139329   3.446   2.576  13.907  1.8387 -0.7814  0.9373
 5946TIP3    H239330   3.541   2.637  13.807 -0.3196  0.3019 -0.5403
 5947TIP3   OH239331   6.814   2.413  12.169  0.5530 -0.5648  0.1189
 5947TIP3    H139332   6.775   2.340  12.217 -0.6694  0.2400  0.3964
 5947TIP3    H239333   6.767   2.490  12.201  0.8262  0.1777 -1.2094
 5948TIP3   OH239334   0.694   0.288   6.120 -0.2450  0.2761 -0.7049
 5948TIP3    H139335   0.658   0.291   6.209 -1.7111  0.0572 -1.2731
 5948TIP3    H239336   0.701   0.195   6.100  1.3037  0.2801 -0.3848
 5949TIP3   OH239337   0.571   6.604   2.837  0.2683 -0.3292 -0.2514
 5949TIP3    H139338   0.554   6.555   2.757  1.4202  0.2470 -0.8760
 5949TIP3    H239339   0.652   6.651   2.819 -0.2006  0.9088  0.7493
 5950TIP3   OH239340   4.227   2.489  11.713 -0.5125  0.5108 -0.3081
 5950TIP3    H139341   4.289   2.544  11.761 -0.0588 -0.6618  0.5031
 5950TIP3    H239342   4.281   2.419  11.676 -1.1113  0.4584 -1.1061
 5951TIP3   OH239343   5.958   3.275  14.853  0.0444  0.1788 -0.0043
 5951TIP3    H139344   5.868   3.264  14.883  0.4033 -0.2367  0.9567
 5951TIP3    H239345   6.000   3.328  14.921  0.8932 -0.8304  0.2868
 5952TIP3   OH239346   6.776   4.941  12.793 -0.1408  0.5458 -0.3280
 5952TIP3    H139347   6.698   4.941  12.738 -0.4379  0.4340  0.0815
 5952TIP3    H239348   6.742   4.921  12.881  0.3697  0.3298 -0.1784
 5953TIP3   OH239349   5.431   0.334   5.526 -0.3313  0.5853  0.1041
 5953TIP3    H139350   5.479   0.330   5.443  0.1646  0.4540  0.3987
 5953TIP3    H239351   5.361   0.397   5.509 -2.0063 -1.5033 -1.3451
 5954TIP3   OH239352   0.711   1.954  12.560 -0.2771  0.0288 -0.3598
 5954TIP3    H139353   0.634   1.897  12.568  1.0410 -1.6810  1.0351
 5954TIP3    H239354   0.714   2.001  12.643 -0.1607  0.5407 -0.6529
 5955TIP3   OH239355   2.945   2.757  13.778  0.2846  0.0303 -0.1688
 5955TIP3    H139356   2.991   2.841  13.781 -0.4857  0.4550  0.4845
 5955TIP3    H239357   2.893   2.761  13.698  0.6360 -0.0431 -0.4029
 5956TIP3   OH239358   1.763   2.458   4.900  0.1276  0.6577 -0.3680
 5956TIP3    H139359   1.750   2.418   4.986 -0.9556 -1.3090 -1.3759
 5956TIP3    H239360   1.858   2.459   4.888  0.2207 -1.0677 -0.0107
 5957TIP3   OH239361   5.248   3.998  12.997  0.4003 -0.2318 -0.0332
 5957TIP3    H139362   5.253   3.997  13.093 -0.9001  1.1000  0.0846
 5957TIP3    H239363   5.191   3.925  12.975 -0.7188  0.5015  0.3494
 5958TIP3   OH239364   4.505   1.703  15.355 -0.1156  0.5202  0.0025
 5958TIP3    H139365   4.493   1.626  15.411 -0.2056  1.5333  1.4559
 5958TIP3    H239366   4.456   1.684  15.276 -0.5859 -0.6998  0.5677
 5959TIP3   OH239367   5.916   2.129   4.510  0.2044 -0.7928  0.0105
 5959TIP3    H139368   5.985   2.145   4.574 -0.0046  2.8772 -0.5161
 5959TIP3    H239369   5.919   2.204   4.451 -3.5668 -0.9673 -0.6472
 5960TIP3   OH239370   2.908   2.233   3.519  0.9026 -0.2074 -0.0402
 5960TIP3    H139371   2.954   2.218   3.602  1.6045  3.0232  0.2825
 5960TIP3    H239372   2.817   2.248   3.544  1.2925  1.7873  0.3544
 5961TIP3   OH239373   3.505   6.073  16.617  0.0795 -0.2357 -0.1452
 5961TIP3    H139374   3.502   6.090  16.712  1.9329 -1.2005  0.1426
 5961TIP3    H239375   3.534   6.156  16.579 -0.5624  0.1233  0.1281
 5962TIP3   OH239376   0.228   0.835  17.021 -0.1302  0.0820  0.0595
 5962TIP3    H139377   0.314   0.877  17.019 -0.8892  1.6855 -1.9700
 5962TIP3    H239378   0.233   0.769  16.951 -0.2943 -0.4192  0.5121
 5963TIP3   OH239379   2.575   1.933   5.116  0.0959 -0.5155 -0.6949
 5963TIP3    H139380   2.669   1.951   5.121  0.3246 -1.6757 -0.5314
 5963TIP3    H239381   2.557   1.929   5.022 -0.5469  3.1974 -0.8934
 5964TIP3   OH239382   5.027   5.199  15.847  0.4179 -0.3312 -0.0084
 5964TIP3    H139383   4.939   5.232  15.864  1.3869  2.1446  0.5730
 5964TIP3    H239384   5.062   5.255  15.778  1.5955 -1.2157 -0.1776
 5965TIP3   OH239385   5.361   5.044  13.329  0.1965 -0.3863 -0.0767
 5965TIP3    H139386   5.374   5.023  13.237 -0.4847 -0.7875 -0.0850
 5965TIP3    H239387   5.413   5.124  13.343 -1.1362  0.7485 -1.2709
 5966TIP3   OH239388   4.502   0.785   3.675 -0.0458 -1.1702  0.0772
 5966TIP3    H139389   4.579   0.744   3.714 -0.2045 -0.7562  0.8471
 5966TIP3    H239390   4.433   0.774   3.740 -0.9491 -2.4751 -1.0356
 5967TIP3   OH239391   5.992   6.213  16.518 -0.0574 -0.6598 -0.5268
 5967TIP3    H139392   6.030   6.284  16.467  2.0604 -0.4545  1.1597
 5967TIP3    H239393   6.043   6.136  16.494  0.0784 -0.8299  0.2691
 5968TIP3   OH239394   3.512   4.276  11.344 -0.1868 -0.4186  0.1332
 5968TIP3    H139395   3.476   4.293  11.431  2.6462  0.2997  1.2907
 5968TIP3    H239396   3.456   4.326  11.284 -1.8222 -0.4283  1.5845
 5969TIP3   OH239397   5.597   5.473  14.416  0.0490 -0.3068  0.2072
 5969TIP3    H139398   5.571   5.492  14.506 -0.4495  0.7211 -0.1460
 5969TIP3    H239399   5.570   5.382  14.402  0.6965 -0.6949  1.2832
 5970TIP3   OH239400   1.155   2.914  15.181 -0.2119 -0.6107 -0.2241
 5970TIP3    H139401   1.149   2.963  15.099 -1.7182 -1.7889 -0.8725
 5970TIP3    H239402   1.215   2.842  15.162 -1.2168 -1.3768 -0.5978
 5971TIP3   OH239403   6.365   1.591   4.148  0.0175  0.0128 -0.2507
 5971TIP3    H139404   6.426   1.618   4.079 -0.7591 -0.0061 -0.9474
 5971TIP3    H239405   6.284   1.638   4.129 -0.1127  0.2557  0.8354
 5972TIP3   OH239406   4.837   2.099  12.408 -0.3676 -0.1706 -0.5101
 5972TIP3    H139407   4.820   2.006  12.394 -1.5016 -0.2057  0.8802
 5972TIP3    H239408   4.825   2.111  12.502  1.4282  1.0700 -0.4025
 5973TIP3   OH239409   2.885   0.719  13.656  0.7978 -0.1607  0.1133
 5973TIP3    H139410   2.847   0.753  13.738 -0.9702 -0.0373 -0.7032
 5973TIP3    H239411   2.865   0.626  13.657  1.7487 -0.3706  0.3120
 5974TIP3   OH239412   1.444   4.338   0.692  0.1234 -0.0843 -0.1929
 5974TIP3    H139413   1.480   4.411   0.743  0.2716  0.3456 -0.8877
 5974TIP3    H239414   1.510   4.270   0.696 -0.5266 -0.6491  1.4499
 5975TIP3   OH239415   5.915   3.218   0.018 -0.2193  0.5236  0.0916
 5975TIP3    H139416   5.930   3.226  -0.076  0.8215  1.5222  0.3144
 5975TIP3    H239417   5.956   3.135   0.042  1.2289  1.1648 -0.0481
 5976TIP3   OH239418   3.934   3.072  14.020 -0.2132 -0.0512 -0.2141
 5976TIP3    H139419   4.009   3.068  14.080  0.8347  1.2449 -1.3868
 5976TIP3    H239420   3.950   3.149  13.967 -1.6050 -0.6431 -1.5550
 5977TIP3   OH239421   4.814   5.628   0.231  0.0324 -0.0372  0.6591
 5977TIP3    H139422   4.766   5.705   0.199  1.1978  0.3707 -0.1659
 5977TIP3    H239423   4.817   5.638   0.326 -0.7205  0.3947  0.6420
 5978TIP3   OH239424   2.107   2.618  12.924  0.2322 -0.4043  0.6101
 5978TIP3    H139425   2.201   2.613  12.944  0.1170  0.5091  1.4897
 5978TIP3    H239426   2.072   2.533  12.950  0.6550 -0.3980  1.2312
 5979TIP3   OH239427   3.391   2.179   4.223  0.6089 -0.1421  0.2247
 5979TIP3    H139428   3.395   2.120   4.148  0.9028 -0.2215  0.3024
 5979TIP3    H239429   3.423   2.126   4.296  0.5598  0.0127  0.3581
 5980TIP3   OH239430   3.291   3.194  14.339  0.0549  0.6029  0.1582
 5980TIP3    H139431   3.309   3.251  14.414  0.4303  2.1808 -1.1022
 5980TIP3    H239432   3.204   3.221  14.309  0.2140  0.4747 -0.4228
 5981TIP3   OH239433   0.688   6.230   1.328 -0.7106  0.2870 -0.0745
 5981TIP3    H139434   0.679   6.318   1.364  0.8728  0.4006  0.0795
 5981TIP3    H239435   0.687   6.173   1.405 -0.5697  0.2620 -0.0921
 5982TIP3   OH239436   2.350   4.929   3.633 -0.5528 -0.8982  0.0343
 5982TIP3    H139437   2.326   4.925   3.726  1.8625 -1.0394  0.7260
 5982TIP3    H239438   2.438   4.890   3.630 -0.5055 -0.7243 -2.2954
 5983TIP3   OH239439   1.852   0.690  13.204 -0.3671  0.4286  0.2637
 5983TIP3    H139440   1.808   0.689  13.119  1.2364  0.0276 -0.5959
 5983TIP3    H239441   1.792   0.740  13.261 -1.4427  0.7537 -1.0915
 5984TIP3   OH239442   0.643   0.728   0.539  0.2231 -0.2820  0.1947
 5984TIP3    H139443   0.698   0.769   0.606  0.3618  0.3710 -0.3058
 5984TIP3    H239444   0.669   0.636   0.539 -0.1529 -0.4160  1.4064
 5985TIP3   OH239445   5.708   6.072  13.592  0.1181  0.0100  0.3180
 5985TIP3    H139446   5.636   6.111  13.640 -1.0786 -0.9361 -0.6503
 5985TIP3    H239447   5.749   6.145  13.546 -0.5494  0.4839  0.4657
 5986TIP3   OH239448   2.979   0.370   3.495 -0.1751  0.9067 -0.0334
 5986TIP3    H139449   3.055   0.311   3.497  0.6891  1.9949  0.4099
 5986TIP3    H239450   2.922   0.337   3.565  0.4486  0.7873  0.4319
 5987TIP3   OH239451   3.979   3.323  11.239  0.5050  0.1778  0.3816
 5987TIP3    H139452   3.934   3.345  11.158 -0.4891  2.9262  1.5777
 5987TIP3    H239453   3.922   3.257  11.280  0.7524 -0.8468 -0.8505
 5988TIP3   OH239454   4.695   2.453   0.176 -0.1181 -0.1460  0.2613
 5988TIP3    H139455   4.722   2.544   0.182  1.7984 -0.6820  0.3641
 5988TIP3    H239456   4.772   2.403   0.202 -1.0275 -1.8168 -0.0864
 5989TIP3   OH239457   5.838   4.797  16.442 -0.5840  0.1806 -0.0428
 5989TIP3    H139458   5.821   4.869  16.381  1.7826  0.1069 -0.8828
 5989TIP3    H239459   5.852   4.720  16.386 -1.3947 -0.5867  0.7620
 5990TIP3   OH239460   4.451   6.597  13.496  0.5370  0.9809  0.0778
 5990TIP3    H139461   4.416   6.686  13.507 -0.2026  0.7888 -0.6871
 5990TIP3    H239462   4.383   6.540  13.531  0.8758  0.6882  0.2700
 5991TIP3   OH239463   1.958   5.241   2.548 -0.0267  0.4435 -0.6557
 5991TIP3    H139464   1.981   5.187   2.472 -0.2464  0.0367 -0.4342
 5991TIP3    H239465   1.924   5.179   2.612  3.9659  0.1427  1.4212
 5992TIP3   OH239466   0.008   4.001  11.351 -0.0458 -0.5008  0.1066
 5992TIP3    H139467  -0.035   3.933  11.403  0.2080 -1.6527 -1.1233
 5992TIP3    H239468  -0.064   4.044  11.304 -0.0955 -0.7703 -0.0665
 5993TIP3   OH239469   1.250   0.960   2.774 -0.3767 -0.1724  0.0906
 5993TIP3    H139470   1.225   0.983   2.864 -1.2781  0.7858 -0.3890
 5993TIP3    H239471   1.170   0.974   2.723 -0.0219 -1.2284 -0.7794
 5994TIP3   OH239472   3.481   2.978  11.948  0.4072 -0.0247 -0.4926
 5994TIP3    H139473   3.467   2.997  12.041  3.3774  0.1824  0.0004
 5994TIP3    H239474   3.497   2.884  11.945  0.3101 -0.0328 -0.7939
 5995TIP3   OH239475   0.655   2.144   3.198  0.1440 -0.1645  0.5450
 5995TIP3    H139476   0.685   2.227   3.234  0.1185 -0.6015  1.6209
 5995TIP3    H239477   0.576   2.167   3.149  0.6993  0.5835 -0.0197
 5996TIP3   OH239478   6.783   5.348  13.352  0.3925 -0.0110  0.2791
 5996TIP3    H139479   6.871   5.334  13.387 -0.7235 -0.8255  3.0061
 5996TIP3    H239480   6.743   5.410  13.413 -1.8430 -1.8719  0.8459
 5997TIP3   OH239481   3.449   3.095   5.114 -0.0149 -0.0621 -0.7498
 5997TIP3    H139482   3.412   3.030   5.055 -0.9414 -0.5954  0.3694
 5997TIP3    H239483   3.518   3.049   5.161 -1.1221 -0.4912  0.5321
 5998TIP3   OH239484   6.773   5.869   3.475 -0.6698 -0.4649  0.6341
 5998TIP3    H139485   6.738   5.782   3.455 -0.9938 -0.0800 -0.5573
 5998TIP3    H239486   6.700   5.929   3.459 -0.3479  0.0638  1.1021
 5999TIP3   OH239487   2.307   2.965  13.206 -0.1111  0.1371 -0.1588
 5999TIP3    H139488   2.326   3.001  13.293  0.2116 -1.5153  0.4985
 5999TIP3    H239489   2.254   2.887  13.224  0.1390 -0.3516 -1.4340
 6000TIP3   OH239490   0.486   6.573  16.310  0.5078  0.1168 -0.3430
 6000TIP3    H139491   0.581   6.577  16.324  0.2357 -1.3709  2.8439
 6000TIP3    H239492   0.471   6.487  16.270  0.4330 -0.3099  0.5671
 6001TIP3   OH239493   4.667   2.739   0.158  0.1445 -0.3217  0.1394
 6001TIP3    H139494   4.708   2.733   0.072  0.2167  0.2169  0.1328
 6001TIP3    H239495   4.573   2.735   0.140  0.1732 -0.6527  0.0729
 6002TIP3   OH239496   1.187   2.017   0.249  0.4856 -0.7336  0.0635
 6002TIP3    H139497   1.185   2.023   0.154  2.8436 -2.4244 -0.2082
 6002TIP3    H239498   1.227   2.099   0.278 -1.3428  0.3132 -0.2431
 6003TIP3   OH239499   6.270   6.094  11.537  0.0422 -0.1846 -0.2053
 6003TIP3    H139500   6.344   6.153  11.550 -1.9782  3.3002 -2.7257
 6003TIP3    H239501   6.253   6.057  11.624  3.0958  0.8176  0.9469
 6004TIP3   OH239502   0.440   5.639  10.904  0.3599  0.0515  0.0526
 6004TIP3    H139503   0.481   5.655  10.819  1.1961 -2.3735 -0.0857
 6004TIP3    H239504   0.367   5.580  10.884 -0.6475  1.0184  0.8021
 6005TIP3   OH239505   2.581   4.870   1.298 -0.0629  0.0694 -0.0669
 6005TIP3    H139506   2.634   4.947   1.277  1.6635 -0.8281  0.7596
 6005TIP3    H239507   2.525   4.899   1.370  0.9086  0.4620  0.5706
 6006TIP3   OH239508   6.273   3.794  13.277  0.0780 -0.7454 -0.0629
 6006TIP3    H139509   6.196   3.763  13.325 -0.9237  0.4209 -0.8263
 6006TIP3    H239510   6.240   3.812  13.189  1.4065 -0.9050 -0.6162
 6007TIP3   OH239511   2.959   5.616  13.303  0.1439 -0.5516  0.3140
 6007TIP3    H139512   2.935   5.697  13.259  2.0130  0.4851  1.0591
 6007TIP3    H239513   2.960   5.550  13.234 -1.9468 -0.0864 -0.1968
 6008TIP3   OH239514   4.839   4.099  11.627  0.2425 -0.0921 -0.1570
 6008TIP3    H139515   4.826   4.099  11.532  0.9476  0.1120 -0.2627
 6008TIP3    H239516   4.821   4.009  11.654  2.1343 -0.7318 -0.8193
 6009TIP3   OH239517   3.363   5.939   0.231 -0.4630 -0.1856 -0.0489
 6009TIP3    H139518   3.344   5.846   0.241 -1.6391 -0.3177 -2.7110
 6009TIP3    H239519   3.336   5.960   0.142 -0.1981  2.7267  0.4473
 6010TIP3   OH239520   2.619   6.590   5.040  0.2284 -0.1300  0.1175
 6010TIP3    H139521   2.584   6.501   5.033  1.0021 -0.3701 -0.8939
 6010TIP3    H239522   2.714   6.580   5.030  0.4416  0.7051  1.0487
 6011TIP3   OH239523   1.022   2.471  12.236 -0.3055  0.1031  0.1451
 6011TIP3    H139524   0.969   2.418  12.296 -0.4626  0.7635  0.6057
 6011TIP3    H239525   1.001   2.561  12.260  2.8142  0.4605  1.9601
 6012TIP3   OH239526   0.496   2.085   1.089  0.6966 -0.1434  0.3229
 6012TIP3    H139527   0.447   2.012   1.128  0.5264  0.5486  1.4494
 6012TIP3    H239528   0.429   2.150   1.067  0.8205 -0.4113 -0.9041
 6013TIP3   OH239529   0.358   5.242  12.927  0.7220  0.4711  0.0761
 6013TIP3    H139530   0.328   5.211  13.013 -0.5895  1.8622  0.1607
 6013TIP3    H239531   0.277   5.262  12.880  1.4114  4.2913  0.2538
 6014TIP3   OH239532   4.826   1.138  14.760  0.6889  0.1349 -0.2905
 6014TIP3    H139533   4.817   1.146  14.855 -0.5283 -0.5379 -0.3325
 6014TIP3    H239534   4.743   1.170  14.725  0.3534 -1.4689 -1.0278
 6015TIP3   OH239535   3.292   0.365   1.746  0.0489  0.0967  0.1190
 6015TIP3    H139536   3.266   0.408   1.827  0.4726  0.6788 -0.0507
 6015TIP3    H239537   3.248   0.414   1.677 -1.2984 -1.1397  0.0474
 6016TIP3   OH239538   1.584   3.625   1.499  0.2126  0.3015 -0.8127
 6016TIP3    H139539   1.678   3.607   1.492  0.5255  1.3868  0.2439
 6016TIP3    H239540   1.579   3.717   1.526 -1.1595  0.2982 -0.9785
 6017TIP3   OH239541   1.625   1.815  11.785  0.1051 -0.3989  0.8123
 6017TIP3    H139542   1.555   1.765  11.744 -0.1708 -0.2933  1.1481
 6017TIP3    H239543   1.618   1.794  11.878 -0.9108  1.3460  1.1754
 6018TIP3   OH239544   1.480   6.419   0.827 -0.3234  0.0071 -0.4146
 6018TIP3    H139545   1.487   6.328   0.856 -0.3011  0.4706  1.1620
 6018TIP3    H239546   1.430   6.416   0.746  0.7382 -1.5167 -1.0470
 6019TIP3   OH239547   0.497   4.831  14.444 -0.3832 -0.2319 -0.1155
 6019TIP3    H139548   0.563   4.790  14.501 -0.4080 -0.0387  0.0507
 6019TIP3    H239549   0.502   4.781  14.362 -0.5120 -0.6647  0.1369
 6020TIP3   OH239550   5.921   1.197  10.952  0.2179  0.1134  0.0129
 6020TIP3    H139551   5.873   1.114  10.955 -1.1862  0.8299 -1.2041
 6020TIP3    H239552   6.006   1.174  10.915 -0.5890 -0.6341 -1.4874
 6021TIP3   OH239553   2.773   1.562   1.619  0.5065 -0.1769  0.5794
 6021TIP3    H139554   2.827   1.490   1.650 -2.2573 -1.8834  1.8413
 6021TIP3    H239555   2.688   1.522   1.601 -0.0605  2.0813 -2.5894
 6022TIP3   OH239556   4.350   2.758  17.008 -0.4757  0.0931 -0.1913
 6022TIP3    H139557   4.263   2.770  16.969 -1.1622  0.5298  1.3977
 6022TIP3    H239558   4.373   2.667  16.987 -0.9627  0.1970 -1.2633
 6023TIP3   OH239559   6.221   6.732  13.899  0.4805  0.1081  0.1066
 6023TIP3    H139560   6.154   6.766  13.958  1.6811  2.8134  0.0583
 6023TIP3    H239561   6.182   6.654  13.860 -2.1008  0.8396  1.0596
 6024TIP3   OH239562   1.264   3.847  12.775  0.5885 -0.0179 -0.6859
 6024TIP3    H139563   1.212   3.796  12.713  0.7194 -1.6344  0.4937
 6024TIP3    H239564   1.332   3.888  12.720 -1.4878  1.6921 -2.1627
 6025TIP3   OH239565   3.637   5.746  11.162 -0.5210 -0.2289  0.5981
 6025TIP3    H139566   3.716   5.798  11.151  0.6477 -2.3099 -1.6613
 6025TIP3    H239567   3.585   5.763  11.084 -0.8664 -1.1816  0.6006
 6026TIP3   OH239568   1.669   3.761   1.939 -0.2766  0.0096  0.0303
 6026TIP3    H139569   1.672   3.748   2.034 -3.1236  1.0255  0.3435
 6026TIP3    H239570   1.576   3.761   1.918  0.2827  0.2152 -2.7287
 6027TIP3   OH239571   4.250   4.484   2.237  0.2211 -0.3610 -0.9097
 6027TIP3    H139572   4.313   4.553   2.218 -0.1681 -0.2482 -1.8592
 6027TIP3    H239573   4.251   4.428   2.159 -0.3607 -0.7260 -0.6630
 6028TIP3   OH239574   0.845   0.763   2.701 -0.2432 -0.3335  1.0959
 6028TIP3    H139575   0.765   0.710   2.709  0.2974 -1.1292  1.3438
 6028TIP3    H239576   0.814   0.854   2.705 -1.1469 -0.6291  1.0558
 6029TIP3   OH239577   5.564   4.988  14.787 -0.1526 -0.0572  0.0469
 6029TIP3    H139578   5.554   4.896  14.812  0.8868 -0.1149  0.3241
 6029TIP3    H239579   5.513   4.997  14.706  1.1439 -1.3406 -0.9712
 6030TIP3   OH239580   1.327   1.427   2.236 -0.2023 -0.7313 -0.5409
 6030TIP3    H139581   1.375   1.488   2.180  0.1201 -0.3541  0.1329
 6030TIP3    H239582   1.281   1.483   2.298 -0.9989 -1.1221 -0.7726
 6031TIP3   OH239583   1.527   0.588  17.195 -0.2781  0.0214  0.3266
 6031TIP3    H139584   1.505   0.496  17.179  0.2269 -0.0320 -0.0932
 6031TIP3    H239585   1.620   0.586  17.217 -0.2088  0.4586  0.0745
 6032TIP3   OH239586   1.436   0.901  14.866 -0.1396 -0.2655 -0.0119
 6032TIP3    H139587   1.441   0.889  14.961 -1.8029  2.3363  0.4927
 6032TIP3    H239588   1.361   0.849  14.839  1.3873 -2.4814 -0.2968
 6033TIP3   OH239589   5.519   2.668   1.274  0.0047 -0.3844  0.0002
 6033TIP3    H139590   5.528   2.762   1.258 -1.1528 -0.3766 -0.7464
 6033TIP3    H239591   5.605   2.641   1.306  1.3692  0.3354 -2.7223
 6034TIP3   OH239592   5.102   1.843  11.700 -0.0387  0.0948 -0.6821
 6034TIP3    H139593   5.028   1.886  11.658  1.5025  2.8324 -0.8482
 6034TIP3    H239594   5.109   1.885  11.786  1.2011 -0.1869 -0.6252
 6035TIP3   OH239595   1.533   0.524  16.401  0.0979  0.2257 -0.4451
 6035TIP3    H139596   1.530   0.551  16.493 -1.9450 -0.4111 -0.2658
 6035TIP3    H239597   1.534   0.429  16.404 -2.0433  0.1228 -1.0172
 6036TIP3   OH239598   0.957   0.570  13.604 -0.8739  0.1656  0.1074
 6036TIP3    H139599   0.945   0.491  13.657 -1.3927 -0.9486 -1.5682
 6036TIP3    H239600   0.870   0.586  13.566 -1.0688  2.2480  1.2891
 6037TIP3   OH239601   5.563   6.681   2.154  0.0360 -0.0579 -0.6067
 6037TIP3    H139602   5.603   6.715   2.074 -1.5916  0.3500 -1.2899
 6037TIP3    H239603   5.546   6.588   2.136 -0.3369  0.0356 -0.7493
 6038TIP3   OH239604   4.846   4.582  10.334  0.4417  1.0893 -0.2283
 6038TIP3    H139605   4.822   4.569  10.426 -0.0302 -2.0846 -0.6641
 6038TIP3    H239606   4.763   4.569  10.286  0.8372  1.8487 -1.1420
 6039TIP3   OH239607   6.481   0.426   4.955  0.1071  0.3977  0.2224
 6039TIP3    H139608   6.392   0.415   4.922 -0.6555  0.2151  2.1688
 6039TIP3    H239609   6.492   0.356   5.019  1.1839  1.1653  0.9207
 6040TIP3   OH239610   6.491   2.773   4.696 -0.0259  0.3617  0.1767
 6040TIP3    H139611   6.496   2.709   4.767 -0.1424  0.7709  0.5611
 6040TIP3    H239612   6.529   2.853   4.733  0.1931  0.4927 -0.3227
 6041TIP3   OH239613   3.256   4.097  11.476 -0.3235 -0.0955 -0.3581
 6041TIP3    H139614   3.261   4.049  11.394  0.3593  1.4393 -1.2600
 6041TIP3    H239615   3.208   4.177  11.454  1.2427  1.0859  0.3219
 6042TIP3   OH239616   1.657   4.400   5.586  0.2018  0.1107  0.9403
 6042TIP3    H139617   1.703   4.323   5.619 -1.2118 -1.2524 -0.1726
 6042TIP3    H239618   1.576   4.403   5.637 -0.8897 -0.6200 -0.6908
 6043TIP3   OH239619   0.695   3.170   0.917 -0.0628 -0.0495 -0.1696
 6043TIP3    H139620   0.644   3.250   0.901  0.3014  0.3655  0.6719
 6043TIP3    H239621   0.783   3.202   0.937 -0.2613 -0.5540  1.6593
 6044TIP3   OH239622   3.762   4.334  16.427 -0.1432  0.3988  0.2880
 6044TIP3    H139623   3.717   4.375  16.354 -1.5195  1.1290  1.4926
 6044TIP3    H239624   3.796   4.408  16.478  0.1347 -0.0701  0.7874
 6045TIP3   OH239625   6.699   2.006  16.432  0.1916 -0.2957  0.2222
 6045TIP3    H139626   6.689   1.974  16.522 -1.2992  2.5457  1.1935
 6045TIP3    H239627   6.623   1.970  16.385 -0.5710  0.4372  0.8659
 6046TIP3   OH239628   4.045   6.247   1.974 -0.8562  0.0766  0.7143
 6046TIP3    H139629   4.109   6.195   1.926 -1.5785 -1.0055  0.9086
 6046TIP3    H239630   4.091   6.330   1.992  0.0523 -0.2038 -0.2194
 6047TIP3   OH239631   3.179   6.826   2.705  0.1389  0.3752 -0.5137
 6047TIP3    H139632   3.184   6.825   2.801  2.2499 -0.7430 -0.5757
 6047TIP3    H239633   3.177   6.733   2.681 -0.3944  0.6442 -1.5747
 6048TIP3   OH239634   2.604   0.296   4.084 -0.1402  0.0717  0.0529
 6048TIP3    H139635   2.646   0.225   4.036  0.7392  0.6429 -0.0482
 6048TIP3    H239636   2.570   0.255   4.164 -0.6439 -0.6706 -0.5312
 6049TIP3   OH239637   1.258   0.226  15.609  0.0969  0.5135 -0.6852
 6049TIP3    H139638   1.250   0.230  15.704 -2.3845  1.5916 -0.8648
 6049TIP3    H239639   1.330   0.164  15.594 -0.6730 -1.1575  1.8516
 6050TIP3   OH239640   5.095   1.691   5.824  0.0461 -0.1712 -0.2083
 6050TIP3    H139641   5.190   1.703   5.831 -0.1838  1.2809  1.3107
 6050TIP3    H239642   5.061   1.779   5.811 -1.2579 -0.1818  2.4406
 6051TIP3   OH239643   4.991   5.727   3.726 -1.0191 -0.7897  0.1881
 6051TIP3    H139644   4.979   5.638   3.695  0.9281 -1.1934  0.4250
 6051TIP3    H239645   5.086   5.737   3.734 -1.2319  0.9540  1.1798
 6052TIP3   OH239646   0.302   6.574  15.588 -0.2232 -0.1006 -0.3235
 6052TIP3    H139647   0.353   6.654  15.592  1.5415 -1.1712 -0.3200
 6052TIP3    H239648   0.301   6.551  15.495  1.0299 -1.1081 -0.1171
 6053TIP3   OH239649   0.978   2.114   4.795 -0.6471  0.3248  0.2797
 6053TIP3    H139650   0.951   2.025   4.775 -0.6157  0.6700 -1.4541
 6053TIP3    H239651   1.019   2.108   4.881 -0.8800 -1.2761  0.3107
 6054TIP3   OH239652   0.105   2.826   5.138 -0.4659  0.1508 -0.1883
 6054TIP3    H139653   0.092   2.894   5.205  0.8675 -0.0668  0.3189
 6054TIP3    H239654   0.197   2.834   5.114 -0.3040 -1.4311 -0.1589
 6055TIP3   OH239655   4.136   5.424   0.354 -0.2086 -1.0885  0.1878
 6055TIP3    H139656   4.101   5.343   0.392 -1.3377 -0.5776  0.2579
 6055TIP3    H239657   4.125   5.413   0.260  1.1199 -1.6747  0.0743
 6056TIP3   OH239658   4.452   6.635   0.060 -0.0049  0.2430  0.5508
 6056TIP3    H139659   4.488   6.619   0.147 -0.0286 -0.8249  0.3668
 6056TIP3    H239660   4.388   6.706   0.074  1.5972  1.6725  0.9992
 6057TIP3   OH239661   1.787   1.016   2.234 -0.0236 -0.0088 -0.1864
 6057TIP3    H139662   1.764   1.105   2.206  0.1571  0.0907 -0.0179
 6057TIP3    H239663   1.711   0.986   2.284 -0.2108 -0.0623 -0.5015
 6058TIP3   OH239664   0.545   3.764  15.687  0.0901 -0.5139 -0.0514
 6058TIP3    H139665   0.634   3.775  15.654  0.1339 -1.4979 -0.2782
 6058TIP3    H239666   0.535   3.835  15.751  0.8331 -0.0488 -0.4304
 6059TIP3   OH239667   4.582   4.005   2.369  0.3333  0.3270 -0.1047
 6059TIP3    H139668   4.564   4.021   2.462 -3.6954 -0.2932 -0.5957
 6059TIP3    H239669   4.604   4.091   2.333  0.3974  0.8382  1.0980
 6060TIP3   OH239670   4.771   3.411   4.993  0.0189 -0.0744 -0.0097
 6060TIP3    H139671   4.693   3.396   4.940 -0.0564  0.9318 -0.2129
 6060TIP3    H239672   4.808   3.492   4.957  2.1382 -1.4263 -1.1017
 6061TIP3   OH239673   6.762   6.700  16.605 -0.3271 -0.6804  0.5671
 6061TIP3    H139674   6.839   6.686  16.661 -0.2524 -0.6721  0.4671
 6061TIP3    H239675   6.707   6.623  16.621 -0.6586 -0.3204  1.2228
 6062TIP3   OH239676   3.820   4.512   5.259  0.4211 -0.3562 -0.2764
 6062TIP3    H139677   3.846   4.587   5.204 -1.0102 -1.5953 -2.8506
 6062TIP3    H239678   3.807   4.549   5.346 -1.6409  2.7428 -1.7270
 6063TIP3   OH239679   2.228   1.672  11.706 -0.1374  0.4916  0.9249
 6063TIP3    H139680   2.185   1.675  11.621  1.6831  1.9421 -0.0038
 6063TIP3    H239681   2.304   1.615  11.692 -0.2107  0.1682  1.7857
 6064TIP3   OH239682   5.201   6.143  14.533 -0.2831 -0.1461 -0.2963
 6064TIP3    H139683   5.193   6.157  14.628  0.6442 -1.2624 -0.0266
 6064TIP3    H239684   5.113   6.160  14.499 -0.9166 -0.8033  0.9280
 6065TIP3   OH239685   2.755   0.949  14.269  0.3123  0.4276 -0.2411
 6065TIP3    H139686   2.723   0.861  14.252 -0.8870  0.5944  1.0197
 6065TIP3    H239687   2.834   0.936  14.322 -0.6933  0.1166  1.2321
 6066TIP3   OH239688   0.019   1.545  16.028 -0.0365 -0.1563  0.5017
 6066TIP3    H139689   0.046   1.553  15.937 -1.0423 -1.9549 -0.0246
 6066TIP3    H239690  -0.007   1.453  16.037 -0.0872  0.0069  2.5740
 6067TIP3   OH239691   4.975   4.350  11.596  0.0503 -0.4169  0.3901
 6067TIP3    H139692   4.944   4.350  11.686  2.3982 -1.1650  1.2903
 6067TIP3    H239693   4.987   4.257  11.575  0.5547 -0.2061 -0.2934
 6068TIP3   OH239694   6.245   6.205  14.812 -0.2003  0.5777  0.0695
 6068TIP3    H139695   6.266   6.296  14.831 -0.7725  0.6224  0.4937
 6068TIP3    H239696   6.177   6.182  14.875 -0.5746  0.0720 -0.5045
 6069TIP3   OH239697   0.301   3.793   5.760  0.0501 -0.3688  0.0672
 6069TIP3    H139698   0.209   3.809   5.783  0.2193  0.0853  0.4423
 6069TIP3    H239699   0.297   3.750   5.675 -0.5261 -0.6751  0.2435
 6070TIP3   OH239700   6.732   1.815   3.384  0.2851  0.2866  0.1028
 6070TIP3    H139701   6.757   1.802   3.476 -0.3905  0.6307  0.3445
 6070TIP3    H239702   6.696   1.731   3.357  0.0427  0.3222  0.3064
 6071TIP3   OH239703   0.314   4.930   0.850 -0.2584  0.7710 -0.1794
 6071TIP3    H139704   0.338   4.994   0.917 -1.6514  0.0760  1.0368
 6071TIP3    H239705   0.225   4.905   0.872  0.5185 -2.2392 -0.0879
 6072TIP3   OH239706   2.748   5.062   2.080 -0.0268 -0.1664  0.2527
 6072TIP3    H139707   2.842   5.046   2.082  0.0318  0.2149  1.1692
 6072TIP3    H239708   2.711   4.994   2.136 -0.2556 -0.0725  0.2162
 6073TIP3   OH239709   0.414   3.445  13.453  0.2691 -0.2289  0.1537
 6073TIP3    H139710   0.319   3.442  13.466  0.2888 -1.6510  0.0715
 6073TIP3    H239711   0.439   3.533  13.481 -0.8014 -0.4701  2.0239
 6074TIP3   OH239712   3.321   1.817  17.083  0.0425  0.3551 -0.1867
 6074TIP3    H139713   3.329   1.785  16.994  0.4526 -1.1155  0.3527
 6074TIP3    H239714   3.235   1.860  17.086 -0.8090 -1.2320 -0.8141
 6075TIP3   OH239715   3.291   3.418   6.711  0.1122 -0.4349  0.3554
 6075TIP3    H139716   3.230   3.363   6.661  1.9041 -1.5502 -0.7264
 6075TIP3    H239717   3.292   3.501   6.664 -0.2154 -0.5581  0.1219
 6076TIP3   OH239718   1.330   3.499   3.472  0.1773  0.2932 -0.6675
 6076TIP3    H139719   1.390   3.500   3.398  1.2145  0.6422  0.1646
 6076TIP3    H239720   1.337   3.411   3.507  0.6743  0.5167 -0.1980
 6077TIP3   OH239721   0.791   5.969   2.241 -0.3787  0.0363 -0.3399
 6077TIP3    H139722   0.853   5.900   2.218 -0.5838 -0.1950 -0.2061
 6077TIP3    H239723   0.841   6.030   2.295 -0.2772 -0.1653 -0.2054
 6078TIP3   OH239724   2.978   5.904   3.020 -0.3921 -0.4152 -0.1056
 6078TIP3    H139725   2.988   5.939   2.932 -0.8502  0.0609  0.0268
 6078TIP3    H239726   2.929   5.823   3.008 -0.9432 -0.0706 -0.2437
 6079TIP3   OH239727   1.754   0.018  10.347  0.1345 -0.4344 -0.5698
 6079TIP3    H139728   1.687   0.074  10.308  0.6751  1.0139  0.5017
 6079TIP3    H239729   1.833   0.036  10.297  1.2564  2.6697  1.9713
 6080TIP3   OH239730   6.812   5.139  16.682  0.0245  0.3551 -0.4094
 6080TIP3    H139731   6.854   5.099  16.758 -0.2944  0.8654  0.0412
 6080TIP3    H239732   6.808   5.069  16.617 -1.0405 -0.5105  0.5637
 6081TIP3   OH239733   5.611   5.204   4.879  0.0993 -0.1293  0.1122
 6081TIP3    H139734   5.609   5.215   4.784  0.0829  1.9416  0.3171
 6081TIP3    H239735   5.693   5.246   4.907 -0.3669  0.1521  1.1097
 6082TIP3   OH239736   5.117   1.392  14.894 -0.1442  0.2743  0.3599
 6082TIP3    H139737   5.044   1.358  14.841 -0.8989  0.7099  1.0861
 6082TIP3    H239738   5.129   1.327  14.963  2.1720 -1.3241 -1.3908
 6083TIP3   OH239739   3.507   3.938  11.270  0.3503 -0.1489 -0.3050
 6083TIP3    H139740   3.511   3.912  11.362  1.8002  0.4776 -0.1595
 6083TIP3    H239741   3.590   3.983  11.254 -0.1556  0.3398 -1.7495
 6084TIP3   OH239742   4.334   4.143  13.607  0.0565  0.6323 -0.1135
 6084TIP3    H139743   4.276   4.216  13.586  0.7051  1.6568  1.3998
 6084TIP3    H239744   4.422   4.177  13.587  0.1869 -0.8359 -2.2388
 6085TIP3   OH239745   5.504   1.649  13.355  0.2052  0.2671  0.3293
 6085TIP3    H139746   5.443   1.576  13.355 -0.4914  0.8027 -1.1074
 6085TIP3    H239747   5.454   1.723  13.320  1.5096  0.8755 -0.3564
 6086TIP3   OH239748   6.456   6.070  10.522 -0.4615  0.1135  0.5523
 6086TIP3    H139749   6.508   6.023  10.457  0.6445  1.3145  0.5295
 6086TIP3    H239750   6.375   6.092  10.476 -0.3387 -0.4055  0.0803
 6087TIP3   OH239751   0.240   5.890   5.474  0.1229 -0.1666 -1.0453
 6087TIP3    H139752   0.266   5.902   5.566 -0.8572 -0.9531 -0.6484
 6087TIP3    H239753   0.267   5.801   5.452 -0.3589 -0.2661 -1.2614
 6088TIP3   OH239754   2.647   1.376   0.309  0.4258 -0.4334  0.8227
 6088TIP3    H139755   2.569   1.412   0.352  1.3437  1.2133  1.2046
 6088TIP3    H239756   2.644   1.283   0.328 -1.9080 -0.5590  0.0847
 6089TIP3   OH239757   2.144   4.192  14.807  0.1237  0.1267 -0.7545
 6089TIP3    H139758   2.094   4.144  14.873 -1.8206  0.8293 -1.6644
 6089TIP3    H239759   2.203   4.247  14.858 -2.1178  1.4994  0.5001
 6090TIP3   OH239760   2.920   4.706   3.912 -0.0862  0.0105 -0.1153
 6090TIP3    H139761   2.868   4.630   3.889 -0.9334  0.1162  1.3385
 6090TIP3    H239762   2.928   4.703   4.007  1.0178  1.0031 -0.1423
 6091TIP3   OH239763   6.167   6.628  15.340  0.5213 -0.2590  0.7619
 6091TIP3    H139764   6.249   6.579  15.332  0.8248  0.4330 -0.7183
 6091TIP3    H239765   6.188   6.699  15.402  0.4258 -1.2423  1.9646
 6092TIP3   OH239766   3.246   0.732   5.293  0.5162  0.4755  0.0341
 6092TIP3    H139767   3.179   0.701   5.354  0.2183 -1.2601 -1.1024
 6092TIP3    H239768   3.328   0.693   5.325  0.0358 -2.3399 -1.8015
 6093TIP3   OH239769   4.404   6.496   0.996  0.0036  0.2658  0.0873
 6093TIP3    H139770   4.342   6.527   0.931  0.6836 -0.5962 -1.0079
 6093TIP3    H239771   4.481   6.553   0.984  0.1180  0.1256  0.1550
 6094TIP3   OH239772   2.186   5.565  10.426  0.1049 -0.2233 -0.2791
 6094TIP3    H139773   2.245   5.510  10.373  0.9908 -1.0776  1.5149
 6094TIP3    H239774   2.199   5.654  10.390  1.7119 -0.5528 -0.6192
 6095TIP3   OH239775   3.102   1.576   3.061 -0.2106  0.0706 -0.2685
 6095TIP3    H139776   3.054   1.656   3.040  0.0390  0.1082 -0.7183
 6095TIP3    H239777   3.041   1.523   3.111 -0.0179  1.0058  0.9908
 6096TIP3   OH239778   5.824   2.347  15.312  0.6475  0.4064 -0.1394
 6096TIP3    H139779   5.856   2.429  15.349 -0.6468  0.0848  1.8504
 6096TIP3    H239780   5.904   2.301  15.285  1.7398  0.7812  2.1265
 6097TIP3   OH239781   3.774   0.459  12.350 -0.0311 -0.4482 -0.1554
 6097TIP3    H139782   3.771   0.366  12.370 -1.0331 -0.3594  0.1264
 6097TIP3    H239783   3.755   0.464  12.256 -1.0593 -0.4600  0.0429
 6098TIP3   OH239784   0.702   0.338  13.900  0.9946  0.0356  0.5767
 6098TIP3    H139785   0.690   0.338  13.995 -0.2466  1.0146  0.4420
 6098TIP3    H239786   0.786   0.293  13.887  1.1214 -0.2361  2.1167
 6099TIP3   OH239787   0.035   0.697  16.410  0.4147 -0.1799  0.1160
 6099TIP3    H139788  -0.043   0.740  16.446 -0.5892 -1.1097 -0.8517
 6099TIP3    H239789   0.070   0.760  16.347  0.7641  0.4507  0.9211
 6100TIP3   OH239790   3.439   3.146   0.664 -0.8013 -0.1847 -0.1729
 6100TIP3    H139791   3.459   3.053   0.667  1.1538  0.2100  1.9911
 6100TIP3    H239792   3.470   3.174   0.578  1.2079 -1.0693  0.1943
 6101TIP3   OH239793   0.457   4.544   3.394 -0.1857  0.1407 -0.2682
 6101TIP3    H139794   0.377   4.501   3.364 -1.4811  3.0606 -1.3156
 6101TIP3    H239795   0.523   4.521   3.328 -0.1944 -1.8764  0.3420
 6102TIP3   OH239796   4.571   6.758  16.795  0.4247  0.4507 -0.5330
 6102TIP3    H139797   4.552   6.673  16.835 -0.3612  0.8243 -0.0951
 6102TIP3    H239798   4.503   6.769  16.729  0.0646  1.0789 -0.0635
 6103TIP3   OH239799   1.905   3.592   1.537  0.1359  0.2199 -0.0026
 6103TIP3    H139800   1.905   3.653   1.611 -1.0824 -1.1839  1.2149
 6103TIP3    H239801   1.989   3.547   1.543 -0.2129 -0.3197  0.9103
 6104TIP3   OH239802   6.667   0.746  15.889 -0.2693  0.2770  0.1609
 6104TIP3    H139803   6.740   0.784  15.937 -1.0353  1.1554  0.6673
 6104TIP3    H239804   6.652   0.661  15.930  0.0976  0.3384  0.4237
 6105TIP3   OH239805   3.563   5.528  14.211  0.6920  0.0821 -0.1292
 6105TIP3    H139806   3.638   5.471  14.196 -0.1404 -0.9901 -0.3374
 6105TIP3    H239807   3.593   5.615  14.185  1.5297 -0.5125 -1.2164
 6106TIP3   OH239808   2.339   4.433   1.984  0.1522 -0.2624 -0.0611
 6106TIP3    H139809   2.358   4.343   2.010 -2.8893 -0.9584  0.1896
 6106TIP3    H239810   2.328   4.480   2.067  1.8382  0.4011 -0.1910
 6107TIP3   OH239811   0.453   2.000  11.692  0.3483 -0.6570  0.3644
 6107TIP3    H139812   0.493   2.040  11.615  0.3826 -3.0732 -0.9871
 6107TIP3    H239813   0.360   2.017  11.682  0.5202  0.6820  0.8503
 6108TIP3   OH239814   4.774   2.880  14.304  0.1292  0.2213 -0.5476
 6108TIP3    H139815   4.734   2.904  14.221  0.5589 -0.5233 -0.9835
 6108TIP3    H239816   4.721   2.924  14.370 -0.0238  1.0955 -1.2234
 6109TIP3   OH239817   4.773   1.342  13.039  0.1964 -0.2204  0.5381
 6109TIP3    H139818   4.717   1.295  13.100  0.7150 -0.2918  0.9622
 6109TIP3    H239819   4.856   1.296  13.042  0.3291 -0.0293  0.0171
 6110TIP3   OH239820   2.942   3.616  11.285 -0.2489 -0.4228  0.2096
 6110TIP3    H139821   2.880   3.571  11.343 -0.0728  1.2731  1.7623
 6110TIP3    H239822   2.987   3.545  11.239  1.3205 -2.0220  3.8766
 6111TIP3   OH239823   1.512   0.584  16.710 -0.2347  0.4302 -0.6651
 6111TIP3    H139824   1.478   0.533  16.783  0.7161  0.7868  0.0505
 6111TIP3    H239825   1.460   0.665  16.710 -1.0322 -0.0718 -1.1426
 6112TIP3   OH239826   3.172   3.348  11.922  0.0392  0.3023 -0.1292
 6112TIP3    H139827   3.239   3.384  11.863  1.4221 -0.9379  0.6215
 6112TIP3    H239828   3.209   3.358  12.009 -0.8383 -0.2776  0.3258
 6113TIP3   OH239829   3.900   3.852   5.913  0.1886  0.6694  0.1473
 6113TIP3    H139830   3.815   3.808   5.909  0.2980  0.3680  0.9762
 6113TIP3    H239831   3.880   3.941   5.941  0.0095  1.0423 -1.1114
 6114TIP3   OH239832   0.865   3.199   3.497 -0.3569 -0.8414 -1.3817
 6114TIP3    H139833   0.873   3.120   3.444 -1.5863 -1.7738 -0.2280
 6114TIP3    H239834   0.773   3.222   3.492 -0.0908  0.2898 -1.3559
 6115TIP3   OH239835   2.882   0.217   6.132 -0.2235  0.6193 -0.1009
 6115TIP3    H139836   2.889   0.206   6.037 -1.7858  0.0960 -0.1735
 6115TIP3    H239837   2.834   0.299   6.143 -0.4920  0.4195  0.2232
 6116TIP3   OH239838   3.653   1.507   1.283  0.3580  0.2207 -0.2047
 6116TIP3    H139839   3.657   1.468   1.196 -0.7832 -1.0436  0.2774
 6116TIP3    H239840   3.736   1.481   1.324  0.7974  0.6264 -0.8092
 6117TIP3   OH239841   1.197   1.277  13.906 -0.2774 -0.8065  0.2232
 6117TIP3    H139842   1.253   1.353  13.892 -2.1378  0.5683 -0.1087
 6117TIP3    H239843   1.171   1.283  13.998 -0.3779 -1.0968  0.2167
 6118TIP3   OH239844   2.409   1.964  11.869  0.2465 -0.1336  0.2314
 6118TIP3    H139845   2.478   1.923  11.921 -0.3647  0.1698  1.3163
 6118TIP3    H239846   2.452   2.038  11.826  0.9875 -0.9608 -0.5026
 6119TIP3   OH239847   6.371   6.403   1.025  0.2768  0.6304  0.1207
 6119TIP3    H139848   6.414   6.321   0.998  0.5932  0.7313  0.3155
 6119TIP3    H239849   6.432   6.472   0.997  0.0826  0.7922  0.0947
 6120TIP3   OH239850   6.822   0.992  17.088  0.5944  0.0431  0.5485
 6120TIP3    H139851   6.808   1.067  17.029  1.3612  0.9062  1.4270
 6120TIP3    H239852   6.904   0.953  17.057 -1.7433 -3.0931 -2.5923
 6121TIP3   OH239853   1.052   0.086  13.306 -0.6568 -0.4270  0.0473
 6121TIP3    H139854   0.958   0.076  13.316 -0.6641 -2.1831 -1.3420
 6121TIP3    H239855   1.087   0.070  13.393 -1.7568  4.1372  1.6220
 6122TIP3   OH239856   3.450   5.620   5.934 -0.4705  0.4482 -0.2815
 6122TIP3    H139857   3.519   5.553   5.929  0.3054  1.1730  0.4251
 6122TIP3    H239858   3.488   5.696   5.889 -0.3555  1.2128  1.0647
 6123TIP3   OH239859   5.558   2.981   5.006  0.3340  0.5271 -0.1928
 6123TIP3    H139860   5.579   2.895   4.972 -0.1479  0.3144  0.0488
 6123TIP3    H239861   5.631   3.002   5.065 -0.9846 -1.0089  2.0972
 6124TIP3   OH239862   0.941   1.274  16.832  0.5383 -0.2504  0.0718
 6124TIP3    H139863   0.947   1.233  16.746 -0.5275 -1.7712  0.6690
 6124TIP3    H239864   0.985   1.358  16.822  0.6656 -0.5023 -1.8721
 6125TIP3   OH239865   3.295   4.533   5.363 -0.1495 -0.6315  0.2823
 6125TIP3    H139866   3.274   4.562   5.452 -0.0155  0.8750 -0.1542
 6125TIP3    H239867   3.349   4.455   5.375 -0.4341 -0.6492  1.5138
 6126TIP3   OH239868   0.268   6.495  12.673 -0.3453  0.3180 -0.2954
 6126TIP3    H139869   0.196   6.436  12.696 -1.1446  0.9864 -1.0025
 6126TIP3    H239870   0.325   6.443  12.616 -1.1422  0.2584 -1.0689
 6127TIP3   OH239871   3.884   6.698   3.753 -0.1114  0.4210 -0.0712
 6127TIP3    H139872   3.926   6.783   3.747  1.0985 -0.0650  1.0376
 6127TIP3    H239873   3.888   6.676   3.846  1.4673 -1.7432 -0.5713
 6128TIP3   OH239874   1.548   1.475  14.204 -0.4678  0.2207  0.1720
 6128TIP3    H139875   1.541   1.395  14.153  0.5258  1.2818 -1.7258
 6128TIP3    H239876   1.496   1.539  14.157 -0.1435  1.0506  0.9043
 6129TIP3   OH239877   3.487   3.767   4.191  0.1568  0.7647 -0.2434
 6129TIP3    H139878   3.407   3.790   4.144 -0.0420  1.1893  0.2908
 6129TIP3    H239879   3.457   3.738   4.277  0.5333  0.2569 -0.2805
 6130TIP3   OH239880   0.471   6.202  14.701 -0.1387 -0.0533  0.2867
 6130TIP3    H139881   0.528   6.239  14.635 -1.2573 -1.7191 -1.7363
 6130TIP3    H239882   0.402   6.268  14.713 -0.1153  0.1244 -0.5000
 6131TIP3   OH239883   2.898   0.615   5.262  0.9896  0.1311  0.5960
 6131TIP3    H139884   2.928   0.628   5.172 -1.3288 -0.8040 -0.3878
 6131TIP3    H239885   2.965   0.559   5.301  0.4262 -2.3422 -1.6520
 6132TIP3   OH239886   3.507   6.096   0.620  0.1022  0.4883  0.0764
 6132TIP3    H139887   3.449   6.166   0.651  0.5028  0.5658  0.6650
 6132TIP3    H239888   3.590   6.112   0.664  0.8690  0.9183 -1.4729
 6133TIP3   OH239889   5.217   4.423  12.108 -0.0651 -0.5203  0.1065
 6133TIP3    H139890   5.260   4.399  12.190 -0.6396 -0.0518  0.5521
 6133TIP3    H239891   5.157   4.494  12.132 -0.3778 -0.5111 -0.6784
 6134TIP3   OH239892   3.289   3.153  16.893 -0.3265 -0.4910 -0.0097
 6134TIP3    H139893   3.277   3.067  16.853 -1.9649 -0.7260  0.8951
 6134TIP3    H239894   3.222   3.208  16.852  0.0372  0.0880  0.1623
 6135TIP3   OH239895   2.757   6.499   5.581  0.1231  0.1020 -0.3615
 6135TIP3    H139896   2.750   6.444   5.503  1.2673 -2.5816  1.2801
 6135TIP3    H239897   2.841   6.475   5.619 -1.1666 -0.0160  2.6507
 6136TIP3   OH239898   6.672   4.813   1.740  0.4893 -0.4683  0.0080
 6136TIP3    H139899   6.750   4.866   1.724  1.1522 -0.8474  1.7349
 6136TIP3    H239900   6.697   4.724   1.716  0.0288 -0.3438 -0.9881
 6137TIP3   OH239901   4.477   3.635   2.213  0.1579 -0.0745 -0.1239
 6137TIP3    H139902   4.446   3.594   2.133  1.5428 -1.8503  0.1824
 6137TIP3    H239903   4.441   3.580   2.283 -2.1850  2.2191  0.6486
 6138TIP3   OH239904   3.693   5.487   4.631 -0.8490 -0.0479 -0.3762
 6138TIP3    H139905   3.620   5.455   4.683 -0.3696  1.6685  1.4622
 6138TIP3    H239906   3.666   5.575   4.602  0.7667  1.0230  1.1357
 6139TIP3   OH239907   3.000   4.128  13.930  0.3359  0.0364 -0.2580
 6139TIP3    H139908   3.057   4.185  13.880  1.0574 -1.6020 -1.3744
 6139TIP3    H239909   2.927   4.109  13.871 -0.6160  0.8815  0.6051
 6140TIP3   OH239910   3.782   3.863   6.188  0.1092  0.0655 -0.1939
 6140TIP3    H139911   3.839   3.828   6.120 -0.9322  1.9527 -2.1464
 6140TIP3    H239912   3.720   3.792   6.206  1.3419 -1.0093 -0.0147
 6141TIP3   OH239913   0.936   6.695   4.135  0.0352 -0.1815  0.0541
 6141TIP3    H139914   0.878   6.675   4.063 -1.4307  0.9194  0.8636
 6141TIP3    H239915   0.982   6.613   4.153 -1.0215 -1.0007 -0.8287
 6142TIP3   OH239916   4.108   2.423   0.325  0.1985 -0.8146  0.5561
 6142TIP3    H139917   4.035   2.378   0.282  0.7428 -0.5843 -0.6483
 6142TIP3    H239918   4.072   2.508   0.351 -0.6747 -1.6695  2.3385
 6143TIP3   OH239919   1.284   6.432  12.931 -0.3294 -0.0624  0.1474
 6143TIP3    H139920   1.211   6.492  12.949 -1.2254 -1.5374  1.7553
 6143TIP3    H239921   1.327   6.422  13.016  1.3954  0.2733 -0.6481
 6144TIP3   OH239922   0.159   2.246  16.832 -0.3740  0.0984 -0.0272
 6144TIP3    H139923   0.179   2.178  16.898 -1.1953  0.1441  0.2780
 6144TIP3    H239924   0.077   2.217  16.792 -1.4024  1.5324  0.9631
 6145TIP3   OH239925   4.326   2.015  13.942 -0.1172  0.2736 -0.3737
 6145TIP3    H139926   4.420   2.000  13.949 -0.4313 -3.4202 -1.7308
 6145TIP3    H239927   4.318   2.101  13.901  2.6311  0.8286  0.0771
 6146TIP3   OH239928   4.296   2.968   1.410 -0.1931 -0.2602 -0.0424
 6146TIP3    H139929   4.330   3.042   1.461  2.6614 -1.3121 -0.2024
 6146TIP3    H239930   4.243   3.008   1.341 -0.2844  1.4825  0.9782
 6147TIP3   OH239931   1.693   1.853  13.436 -0.4819  0.0262 -0.5453
 6147TIP3    H139932   1.611   1.843  13.484  0.2143  2.5695  1.4266
 6147TIP3    H239933   1.757   1.807  13.490  0.0101  1.4173  0.1053
 6148TIP3   OH239934   2.768   3.295   2.515  0.4706  0.0111 -0.1367
 6148TIP3    H139935   2.680   3.273   2.483  0.0626 -2.4143  2.3190
 6148TIP3    H239936   2.823   3.293   2.436 -1.5576  1.4260 -1.7154
 6149TIP3   OH239937   4.258   2.484   3.933  0.4175 -0.0570  0.2393
 6149TIP3    H139938   4.353   2.474   3.934  0.6431  1.4248 -1.0376
 6149TIP3    H239939   4.238   2.507   3.842 -1.6218 -3.7923 -0.4275
 6150TIP3   OH239940   5.130   2.314   6.525 -0.0567  0.1556  0.1506
 6150TIP3    H139941   5.161   2.224   6.518  1.2589  0.6071 -0.2273
 6150TIP3    H239942   5.050   2.316   6.473 -0.8835 -1.1124  1.3304
 6151TIP3   OH239943   3.267   0.507  16.045  0.0830  0.1331 -0.1223
 6151TIP3    H139944   3.303   0.577  16.099 -2.4554  0.9475  0.6449
 6151TIP3    H239945   3.222   0.450  16.107 -0.6788 -0.3427 -1.0905
 6152TIP3   OH239946   1.369   3.972  13.078 -0.3887 -0.3451  0.5549
 6152TIP3    H139947   1.358   3.877  13.081  1.6940 -0.7483 -1.5361
 6152TIP3    H239948   1.314   4.000  13.004 -2.4834  0.4317  2.2958
 6153TIP3   OH239949   3.317   1.261   3.196  0.5863  0.4374 -0.5243
 6153TIP3    H139950   3.287   1.171   3.208 -1.4499  1.2415  0.9829
 6153TIP3    H239951   3.400   1.265   3.243  0.8167 -0.6866 -0.7968
 6154TIP3   OH239952   4.079   5.224  12.953 -0.0153 -0.3609  0.0827
 6154TIP3    H139953   3.999   5.277  12.962 -1.0687 -1.4874 -2.0014
 6154TIP3    H239954   4.050   5.143  12.912  2.1485 -0.9943 -0.3141
 6155TIP3   OH239955   6.597   5.204   1.093  0.0018 -0.4000  0.3556
 6155TIP3    H139956   6.510   5.231   1.064  0.2153  2.5246  2.1157
 6155TIP3    H239957   6.581   5.145   1.167 -0.6690  2.6078  2.8090
 6156TIP3   OH239958   2.404   0.586  16.099 -0.4977  0.0678  0.1148
 6156TIP3    H139959   2.444   0.668  16.128  1.8226 -0.4448 -1.3359
 6156TIP3    H239960   2.372   0.544  16.179  3.2107 -0.0974  1.6820
 6157TIP3   OH239961   6.698   2.777   3.796 -0.3394 -0.0817 -0.6771
 6157TIP3    H139962   6.750   2.703   3.828 -0.8114 -0.1999 -0.1653
 6157TIP3    H239963   6.671   2.823   3.876  0.5581  1.0734 -1.0104
 6158TIP3   OH239964   2.104   4.221  15.522  0.3349 -0.4041 -0.0806
 6158TIP3    H139965   2.073   4.202  15.610  1.8466 -3.0880 -0.0095
 6158TIP3    H239966   2.192   4.182  15.519  0.4617 -0.0856 -2.6609
 6159TIP3   OH239967   5.635   1.969  14.863 -0.4705 -0.1062 -0.0440
 6159TIP3    H139968   5.700   1.918  14.911 -0.1029  0.6413  0.2782
 6159TIP3    H239969   5.686   2.034  14.815 -0.9958  0.6486  0.4057
 6160TIP3   OH239970   3.354   6.690   2.259 -0.1309 -0.5993 -0.3548
 6160TIP3    H139971   3.402   6.637   2.196  1.2312  0.0214  0.1061
 6160TIP3    H239972   3.363   6.780   2.227 -0.0148 -0.3571  0.3270
 6161TIP3   OH239973   3.861   4.071  16.915 -0.3328  0.0123 -0.8588
 6161TIP3    H139974   3.802   4.141  16.940  0.7778  0.3854  0.9043
 6161TIP3    H239975   3.949   4.108  16.927  0.2690 -1.4139 -0.6562
 6162TIP3   OH239976   5.238   5.703  10.600 -0.1227 -0.1542 -0.0569
 6162TIP3    H139977   5.151   5.707  10.639  0.0770  0.1957  0.3574
 6162TIP3    H239978   5.239   5.775  10.537 -0.5035 -0.8219 -0.8389
 6163TIP3   OH239979   3.003   1.717   5.370 -0.3754  0.4015 -0.5856
 6163TIP3    H139980   3.093   1.707   5.338 -0.0765 -0.6126  0.5297
 6163TIP3    H239981   2.949   1.685   5.298  0.1067  1.4886 -1.4681
 6164TIP3   OH239982   1.744   3.293  15.800  0.7273  0.0743 -0.2801
 6164TIP3    H139983   1.832   3.295  15.838  1.0782 -0.1538 -1.0626
 6164TIP3    H239984   1.757   3.314  15.708  0.2099 -1.8406 -0.8468
 6165TIP3   OH239985   1.913   3.107   6.608 -0.3478  0.1425  0.1497
 6165TIP3    H139986   1.976   3.050   6.652  1.1160  0.4818 -1.3798
 6165TIP3    H239987   1.961   3.189   6.595 -0.4396 -0.1335 -2.5592
 6166TIP3   OH239988   2.338   1.042  12.560 -0.0117 -0.0828 -0.1204
 6166TIP3    H139989   2.367   1.038  12.651 -0.2064  1.2247  0.0214
 6166TIP3    H239990   2.310   0.953  12.539 -1.8945  0.0200  1.7416
 6167TIP3   OH239991   1.823   2.280   0.993 -0.8637  0.8031 -0.1344
 6167TIP3    H139992   1.795   2.192   1.018  1.7646 -0.0230  0.2189
 6167TIP3    H239993   1.759   2.308   0.928 -3.4740 -0.1209  1.8359
 6168TIP3   OH239994   1.667   0.903   3.000  0.1070 -0.1018 -0.1757
 6168TIP3    H139995   1.599   0.932   3.060  0.4841 -0.7161  0.5623
 6168TIP3    H239996   1.627   0.910   2.913 -1.3239 -1.5970  0.3106
 6169TIP3   OH239997   4.400   2.739  13.813 -0.0526  0.0075  0.0825
 6169TIP3    H139998   4.462   2.687  13.865  0.4512  0.2407 -0.2792
 6169TIP3    H239999   4.455   2.801  13.765 -0.5861  0.3539 -0.0867
 6170TIP3   OH240000   0.631   5.520  12.371  0.2302 -0.0289  0.0898
 6170TIP3    H140001   0.663   5.546  12.284  0.0368 -0.7563 -0.2014
 6170TIP3    H240002   0.573   5.591  12.397  0.0099  0.0237 -0.5294
 6171TIP3   OH240003   5.248   3.292  15.557  0.8881 -0.4032  0.3428
 6171TIP3    H140004   5.328   3.254  15.593  0.4665 -0.4898  1.2386
 6171TIP3    H240005   5.236   3.373  15.607  2.6550  1.8576 -2.6178
 6172TIP3   OH240006   1.793   4.718   3.716  0.0260  0.0964 -0.4485
 6172TIP3    H140007   1.793   4.643   3.776 -0.7447  0.1106 -0.4136
 6172TIP3    H240008   1.819   4.681   3.632  0.2557 -0.0943 -0.2933
 6173TIP3   OH240009   4.029   5.231  15.776 -0.3139  0.2748  0.3208
 6173TIP3    H140010   3.983   5.200  15.697 -0.8412  1.1524  0.2762
 6173TIP3    H240011   4.112   5.183  15.775  0.1412  1.0245 -1.3403
 6174TIP3   OH240012   1.671   0.872  16.268 -0.0074 -1.0703 -0.3434
 6174TIP3    H140013   1.748   0.844  16.218  1.0163  0.8011  0.1083
 6174TIP3    H240014   1.692   0.960  16.297 -2.8384 -0.0081 -1.1962
 6175TIP3   OH240015   0.506   0.164  14.326 -0.1065  0.1988 -0.1116
 6175TIP3    H140016   0.550   0.218  14.260  0.6756 -1.2758 -0.8469
 6175TIP3    H240017   0.413   0.172  14.305 -0.1069  1.8843  0.3254
 6176TIP3   OH240018   4.135   3.887   0.180  0.4391  0.1453 -0.2791
 6176TIP3    H140019   4.153   3.981   0.171  1.9793 -0.0492  0.4876
 6176TIP3    H240020   4.214   3.851   0.219 -0.6255 -1.2693  0.6780
 6177TIP3   OH240021   2.804   4.521  13.902  0.2104  0.2211 -0.8595
 6177TIP3    H140022   2.842   4.565  13.978  1.4036 -0.0443 -1.2727
 6177TIP3    H240023   2.748   4.588  13.862  0.6298  0.8031 -0.5002
 6178TIP3   OH240024   5.411   5.663  13.378 -0.3788  0.2971 -0.3293
 6178TIP3    H140025   5.504   5.654  13.358 -0.4314  1.4841 -1.1966
 6178TIP3    H240026   5.398   5.756  13.396 -1.5728  0.3509 -1.2829
 6179TIP3   OH240027   2.521   3.928  11.712  0.6294  0.3314 -0.1757
 6179TIP3    H140028   2.571   3.879  11.647  1.1181  0.1918  0.3023
 6179TIP3    H240029   2.444   3.875  11.728  0.5152  0.3539 -0.6176
 6180TIP3   OH240030   3.018   0.132   1.752 -0.0467 -0.3262  0.5986
 6180TIP3    H140031   3.011   0.223   1.724  1.0131  1.0932  4.3116
 6180TIP3    H240032   3.112   0.113   1.749 -0.1096 -0.7741  1.1769
 6181TIP3   OH240033   1.401   4.113  15.933 -0.1061 -0.0294  0.1116
 6181TIP3    H140034   1.451   4.195  15.934 -0.3621  0.1266  0.4855
 6181TIP3    H240035   1.441   4.061  15.863 -0.2674  0.6167 -0.4686
 6182TIP3   OH240036   1.680   0.688  12.308  0.6065  0.1949  0.1915
 6182TIP3    H140037   1.725   0.675  12.392 -0.4712  2.8092  1.2896
 6182TIP3    H240038   1.699   0.608  12.258  2.4844 -0.8386  2.3498
 6183TIP3   OH240039   1.742   0.801  10.911  0.1620 -0.1759  0.3544
 6183TIP3    H140040   1.794   0.881  10.906  1.3268 -0.9733 -1.0710
 6183TIP3    H240041   1.689   0.811  10.991 -0.1362  2.2256 -0.0829
 6184TIP3   OH240042   1.187   0.600   3.956 -0.4285  0.3064 -0.3548
 6184TIP3    H140043   1.195   0.629   3.866 -0.6758 -1.8640 -1.1384
 6184TIP3    H240044   1.244   0.523   3.962 -3.5486 -2.2097  0.0461
 6185TIP3   OH240045   3.657   4.328   3.933 -0.1195 -0.0238  0.1013
 6185TIP3    H140046   3.646   4.422   3.942  1.5505  0.2212 -0.1775
 6185TIP3    H240047   3.572   4.291   3.958 -0.8763  1.5539 -0.0490
 6186TIP3   OH240048   0.405   4.033   5.319 -0.3979  0.7382  0.5053
 6186TIP3    H140049   0.496   4.024   5.348 -1.1461 -0.0865  2.8194
 6186TIP3    H240050   0.392   3.960   5.259  0.6767  1.3959 -0.5894
 6187TIP3   OH240051   5.197   3.942   3.970  0.4978 -0.1166  0.0179
 6187TIP3    H140052   5.291   3.946   3.953  0.5683  0.3219  0.4949
 6187TIP3    H240053   5.162   4.021   3.931  0.6258  0.7744  1.6039
 6188TIP3   OH240054   0.423   4.712   1.867  0.6109 -0.0273  0.5237
 6188TIP3    H140055   0.338   4.674   1.889  0.9430 -1.1245  0.0075
 6188TIP3    H240056   0.410   4.807   1.875 -1.0825 -0.0725 -0.9058
 6189TIP3   OH240057   1.892   0.286  12.957 -0.3054  0.3905  0.2600
 6189TIP3    H140058   1.969   0.334  12.990  1.4560 -0.8931 -1.7650
 6189TIP3    H240059   1.818   0.336  12.990  1.3954  2.5692  1.0661
 6190TIP3   OH240060   6.576   3.178  14.871  0.3673 -0.1855  0.5193
 6190TIP3    H140061   6.615   3.132  14.796 -1.7238 -1.6847  0.2537
 6190TIP3    H240062   6.599   3.123  14.947 -0.9276 -0.9533  0.3892
 6191TIP3   OH240063   2.275   6.365   2.228  0.1923  0.7378 -0.0590
 6191TIP3    H140064   2.214   6.372   2.302 -0.4716 -1.4140 -0.3384
 6191TIP3    H240065   2.222   6.389   2.152 -0.3876 -1.1919 -0.3094
 6192TIP3   OH240066   5.344   2.721  13.835 -0.1566  0.2022  0.2391
 6192TIP3    H140067   5.423   2.686  13.793 -0.4274 -0.9683  0.6725
 6192TIP3    H240068   5.358   2.815  13.836  0.0217  0.2721 -2.1402
 6193TIP3   OH240069   0.508   5.551  10.652  0.5287 -0.2768  0.3282
 6193TIP3    H140070   0.539   5.466  10.683  1.1507 -0.3635 -0.5012
 6193TIP3    H240071   0.552   5.563  10.567  0.3070  0.7838  0.3536
 6194TIP3   OH240072   4.096   2.244   1.257 -0.0212 -0.0769  0.2073
 6194TIP3    H140073   4.031   2.174   1.257  1.0040 -1.0947  1.8737
 6194TIP3    H240074   4.177   2.202   1.285  0.3977  1.9107  2.3020
 6195TIP3   OH240075   3.513   1.636   4.085 -0.3424 -0.7636  0.3924
 6195TIP3    H140076   3.573   1.563   4.072  0.9660  0.1580  0.9303
 6195TIP3    H240077   3.563   1.713   4.055 -1.1358  0.0693  1.1526
 6196TIP3   OH240078   4.437   0.374  17.122  0.1782 -0.2089 -0.0881
 6196TIP3    H140079   4.476   0.317  17.056  0.1540 -0.4933  0.1418
 6196TIP3    H240080   4.405   0.450  17.073 -0.2656 -0.6378 -0.4728
 6197TIP3   OH240081   2.608   1.246  10.791  0.2516 -0.3359 -0.3608
 6197TIP3    H140082   2.527   1.205  10.822 -0.6720  0.8413 -1.1086
 6197TIP3    H240083   2.591   1.264  10.698  1.7066 -0.8404 -0.7429
 6198TIP3   OH240084   3.194   6.353   0.991  0.4302  0.2286 -0.0942
 6198TIP3    H140085   3.183   6.446   1.007  1.4108  0.1648  1.1679
 6198TIP3    H240086   3.142   6.311   1.059 -0.1982 -0.1554 -0.8023
 6199TIP3   OH240087   1.609   6.452  11.915 -0.4855 -0.4805 -0.2577
 6199TIP3    H140088   1.517   6.475  11.910 -0.5096 -0.3493  0.6714
 6199TIP3    H240089   1.651   6.505  11.848 -0.4422  2.7675  2.0924
 6200TIP3   OH240090   0.927   3.844  11.279  0.1625 -0.0113 -1.0097
 6200TIP3    H140091   1.012   3.809  11.306  1.0534  2.0185 -0.9273
 6200TIP3    H240092   0.906   3.797  11.198  0.9405 -1.1451 -0.5767
 6201TIP3   OH240093   2.320   6.363  13.324  0.3399  0.7065 -0.4166
 6201TIP3    H140094   2.271   6.372  13.243 -0.2120  0.9633 -0.0628
 6201TIP3    H240095   2.388   6.298  13.305 -2.0256 -2.1073 -0.0641
 6202TIP3   OH240096   6.066   2.594  13.768 -0.0114  0.4490  0.2273
 6202TIP3    H140097   6.013   2.588  13.848  0.2883 -1.0284  0.3402
 6202TIP3    H240098   6.075   2.504  13.738  0.2905  0.9331 -1.2255
 6203TIP3   OH240099   6.491   6.215  11.678  0.4570 -0.0608 -0.1546
 6203TIP3    H140100   6.547   6.209  11.601  2.6005 -0.4179  1.3346
 6203TIP3    H240101   6.534   6.280  11.734 -2.5358  2.3186 -0.3405
 6204TIP3   OH240102   2.359   1.293  12.451 -0.0298 -0.5550  0.4055
 6204TIP3    H140103   2.452   1.310  12.437 -0.5414  1.6555 -0.6890
 6204TIP3    H240104   2.357   1.207  12.494  2.5062 -0.5135  0.7629
 6205TIP3   OH240105   3.589   3.418   5.346 -0.0751  0.1937 -0.4242
 6205TIP3    H140106   3.668   3.431   5.295  0.0895 -0.1711 -0.2667
 6205TIP3    H240107   3.612   3.448   5.434  0.5486 -1.7311  0.1391
 6206TIP3   OH240108   3.692   5.843   5.334 -0.3599 -0.4766 -0.0716
 6206TIP3    H140109   3.607   5.840   5.377 -1.1559 -1.3954 -1.6012
 6206TIP3    H240110   3.755   5.822   5.403 -1.4574 -0.6434  0.9049
 6207TIP3   OH240111   6.022   1.906   2.127 -0.4178  0.1865  0.1275
 6207TIP3    H140112   6.029   1.864   2.042  0.8929  0.0894  0.2654
 6207TIP3    H240113   6.027   1.833   2.190 -1.7768  0.2124  0.3092
 6208TIP3   OH240114   0.167   5.550   4.055  0.0226  0.0632  0.3138
 6208TIP3    H140115   0.074   5.546   4.036 -0.7047  3.2070  2.4677
 6208TIP3    H240116   0.185   5.469   4.104 -1.4094 -0.8040 -0.5455
 6209TIP3   OH240117   3.625   3.973   4.893  0.0542 -0.2449 -0.3927
 6209TIP3    H140118   3.572   4.049   4.869 -0.7415 -0.2181  1.2720
 6209TIP3    H240119   3.715   4.004   4.889 -0.2159  0.5402 -0.5556
 6210TIP3   OH240120   3.844   6.137   1.022 -0.0508 -0.0927  0.4676
 6210TIP3    H140121   3.864   6.191   1.098 -0.0563 -0.0817  0.4611
 6210TIP3    H240122   3.848   6.047   1.055  0.2728 -0.1008  0.4044
 6211TIP3   OH240123   2.426   5.451  13.199 -0.0702  0.0442 -0.0195
 6211TIP3    H140124   2.491   5.453  13.129  0.9243  0.6891  0.8981
 6211TIP3    H240125   2.403   5.544  13.213  1.5853  0.1981  2.1517
 6212TIP3   OH240126   4.250   3.176   3.466  0.0645  0.0020  0.3075
 6212TIP3    H140127   4.336   3.140   3.488  0.4275  0.9292  0.4466
 6212TIP3    H240128   4.194   3.099   3.455  0.9061 -0.6141  0.2174
 6213TIP3   OH240129   3.846   0.611   2.739 -0.4489 -0.0838 -0.2636
 6213TIP3    H140130   3.834   0.556   2.662 -0.3494  1.3767 -1.3507
 6213TIP3    H240131   3.934   0.589   2.770 -0.7228 -1.1191 -0.1758
 6214TIP3   OH240132   0.767   3.430  15.377  0.0825  0.5461 -0.5470
 6214TIP3    H140133   0.757   3.408  15.470 -1.9839  1.9268 -0.3666
 6214TIP3    H240134   0.780   3.345  15.334 -0.6984 -0.3130  0.8246
 6215TIP3   OH240135   2.056   3.262  11.458  0.1549  0.1461  0.0907
 6215TIP3    H140136   2.029   3.253  11.366  2.3465 -1.2299 -0.4909
 6215TIP3    H240137   2.106   3.343  11.460 -0.8833  0.7985  0.3672
 6216TIP3   OH240138   5.593   0.795  14.044 -0.2518  0.5719 -0.3463
 6216TIP3    H140139   5.640   0.737  13.984 -1.4521  0.7709 -1.5351
 6216TIP3    H240140   5.503   0.763  14.043 -0.7342  1.8563 -0.2924
 6217TIP3   OH240141   5.889   3.695  11.930  0.0311 -0.2643  0.2941
 6217TIP3    H140142   5.875   3.772  11.874 -0.8950 -0.9704 -0.4699
 6217TIP3    H240143   5.958   3.645  11.886 -0.9531 -1.0067 -0.4498
 6218TIP3   OH240144   4.618   2.246  16.204  0.1505  0.7204 -0.3715
 6218TIP3    H140145   4.609   2.200  16.120  0.1104  1.5910 -0.8511
 6218TIP3    H240146   4.661   2.182  16.261  1.3323  0.5379 -1.4183
 6219TIP3   OH240147   6.158   4.518   6.266  0.1089  0.0511  0.0057
 6219TIP3    H140148   6.246   4.486   6.285  0.3850  0.8162  0.0300
 6219TIP3    H240149   6.142   4.585   6.332 -0.4159  0.0526 -0.1201
 6220TIP3   OH240150   3.079   4.781  16.219 -0.2385  0.1045  0.5862
 6220TIP3    H140151   2.989   4.812  16.230 -0.1274 -0.0369  2.1696
 6220TIP3    H240152   3.126   4.856  16.183 -0.8126  0.4416  0.5292
 6221TIP3   OH240153   2.332   2.633  16.470  0.1865 -0.2957  0.1730
 6221TIP3    H140154   2.367   2.721  16.484  1.1809 -0.7916  0.8475
 6221TIP3    H240155   2.238   2.642  16.487  0.4303  0.4264  1.2407
 6222TIP3   OH240156   0.290   6.048   0.193  0.2284 -0.0143  0.2120
 6222TIP3    H140157   0.348   5.996   0.249  0.2100  0.4199  0.6414
 6222TIP3    H240158   0.340   6.128   0.176  0.1345 -0.0428 -0.1905
 6223TIP3   OH240159   5.328   5.729  15.389 -0.2503 -0.2723  0.4576
 6223TIP3    H140160   5.386   5.671  15.340 -0.0400 -0.1853  0.6000
 6223TIP3    H240161   5.267   5.763  15.324 -1.2154 -1.6761  0.5952
 6224TIP3   OH240162   1.671   5.235   1.230  0.0547 -0.2069 -0.4654
 6224TIP3    H140163   1.611   5.285   1.286 -0.0066 -0.0864 -0.6412
 6224TIP3    H240164   1.713   5.173   1.291  1.5257  1.2999  0.1192
 6225TIP3   OH240165   3.500   5.239  13.382  0.2363  0.1513 -0.0796
 6225TIP3    H140166   3.444   5.173  13.342  0.2145  0.0263  0.1548
 6225TIP3    H240167   3.582   5.193  13.401  0.7001  0.5228 -1.1092
 6226TIP3   OH240168   6.626   0.728   4.451  0.0352  0.0611 -0.4868
 6226TIP3    H140169   6.695   0.738   4.385  0.1609 -0.2018 -0.3995
 6226TIP3    H240170   6.667   0.757   4.532 -0.8159  2.6199 -0.8667
 6227TIP3   OH240171   3.041   5.918  16.432 -0.0950  0.9108  0.0834
 6227TIP3    H140172   3.095   5.848  16.396 -0.5235  0.6672 -0.0900
 6227TIP3    H240173   3.095   5.957  16.501 -0.2107 -0.1915  0.8124
 6228TIP3   OH240174   2.421   4.407  16.110  0.1726  0.2796  0.2870
 6228TIP3    H140175   2.380   4.321  16.099 -0.2759 -0.0550  3.5844
 6228TIP3    H240176   2.514   4.392  16.090  0.0603 -0.9281  0.5815
 6229TIP3   OH240177   2.186   3.430  11.902  1.3562  0.2416  0.2798
 6229TIP3    H140178   2.151   3.440  11.991  1.4328 -1.3159  0.5240
 6229TIP3    H240179   2.196   3.519  11.869 -0.9781  0.8192  0.9385
 6230TIP3   OH240180   2.224   5.538   5.280 -0.2232 -0.2466 -0.0715
 6230TIP3    H140181   2.316   5.528   5.256 -0.6642 -3.4786 -0.8534
 6230TIP3    H240182   2.192   5.608   5.223  1.8991  1.6740  0.9434
 6231TIP3   OH240183   0.151   0.763   1.320 -0.2324  0.1590  0.0388
 6231TIP3    H140184   0.194   0.701   1.261 -0.9141 -1.6968  1.3603
 6231TIP3    H240185   0.217   0.783   1.387 -0.2652  0.2307  0.0499
 6232TIP3   OH240186   1.091   4.831   3.577 -0.2371 -1.0161  0.9591
 6232TIP3    H140187   1.009   4.787   3.553 -0.4788 -0.1301  0.0736
 6232TIP3    H240188   1.143   4.763   3.619 -1.1913 -1.7537  0.9871
 6233TIP3   OH240189   6.124   6.375  16.349  0.4036  0.2171  0.2190
 6233TIP3    H140190   6.166   6.338  16.271 -2.2408 -0.4065 -1.0004
 6233TIP3    H240191   6.099   6.463  16.323 -0.9412 -0.1681  0.1701
 6234TIP3   OH240192   4.522   5.861  11.553 -0.4086 -0.4170 -1.0583
 6234TIP3    H140193   4.468   5.782  11.549 -1.2859  0.1191 -0.1967
 6234TIP3    H240194   4.482   5.914  11.621  1.8937 -0.5007  0.4896
 6235TIP3   OH240195   0.470   5.024  13.823 -0.2489  0.2438 -0.1685
 6235TIP3    H140196   0.446   5.024  13.916 -1.3547  0.8314 -0.4375
 6235TIP3    H240197   0.495   5.114  13.805 -0.1771  0.1609 -0.4857
 6236TIP3   OH240198   0.574   4.810  11.254 -0.2919  0.3801 -0.5602
 6236TIP3    H140199   0.644   4.755  11.217  0.1952  0.3406  0.3904
 6236TIP3    H240200   0.515   4.749  11.297  0.7958  0.6250  1.4002
 6237TIP3   OH240201   6.562   3.079  16.334 -0.7613 -0.5356 -0.2192
 6237TIP3    H140202   6.498   3.108  16.399 -0.6728 -0.1205 -0.3160
 6237TIP3    H240203   6.623   3.023  16.384 -0.4591  0.1058  0.1449
 6238TIP3   OH240204   5.288   3.032  16.531  0.2952  0.2969 -0.2694
 6238TIP3    H140205   5.321   2.957  16.483 -0.7231  1.9381 -3.8544
 6238TIP3    H240206   5.270   3.098  16.464 -4.9732  1.5002  1.8418
 6239TIP3   OH240207   4.876   1.921   0.229  0.1097  0.9656  0.1575
 6239TIP3    H140208   4.913   1.887   0.311 -1.2179  0.1759  0.4513
 6239TIP3    H240209   4.876   1.845   0.170  0.6129  1.4109 -0.4339
 6240TIP3   OH240210   2.795   2.105   5.391 -0.2979 -0.4853  0.4204
 6240TIP3    H140211   2.808   2.117   5.297 -0.4167 -0.9488  0.3459
 6240TIP3    H240212   2.791   2.194   5.426 -0.3141 -0.3119 -0.0202
 6241TIP3   OH240213   5.245   3.551   4.212 -0.0900 -0.0299  0.2729
 6241TIP3    H140214   5.251   3.628   4.155 -2.5172  1.1651  1.4796
 6241TIP3    H240215   5.188   3.491   4.165  1.9656 -1.2735 -0.7598
 6242TIP3   OH240216   1.259   2.792   4.196 -0.1122  0.3112  0.4208
 6242TIP3    H140217   1.232   2.700   4.192 -2.6971  1.0664 -1.6472
 6242TIP3    H240218   1.355   2.788   4.198 -0.1540 -2.4171  1.8467
 6243TIP3   OH240219   5.619   3.948   0.047 -0.2139 -0.0954  0.1809
 6243TIP3    H140220   5.588   3.859   0.032  2.1515 -0.8497 -0.6909
 6243TIP3    H240221   5.640   3.950   0.141  0.5160 -0.7321  0.0344
 6244TIP3   OH240222   6.187   4.581   4.885 -0.6006  0.5189 -0.2731
 6244TIP3    H140223   6.102   4.583   4.840  0.1805  3.3043 -1.8250
 6244TIP3    H240224   6.168   4.612   4.974 -1.2830  0.6225 -0.4509
 6245TIP3   OH240225   1.993   0.314   3.930  0.0311  0.4594 -0.8938
 6245TIP3    H140226   1.913   0.315   3.983  1.0503 -0.9039  0.7580
 6245TIP3    H240227   2.014   0.221   3.919  1.0556  0.7769 -1.8287
 6246TIP3   OH240228   6.715   2.160  16.003  0.3322  0.4895  0.5919
 6246TIP3    H140229   6.637   2.127  16.046  0.5086  1.2296  1.4875
 6246TIP3    H240230   6.778   2.173  16.073  1.4751 -0.6206 -0.1652
 6247TIP3   OH240231   2.175   1.480   2.314  1.1251  0.0671 -0.4361
 6247TIP3    H140232   2.226   1.524   2.382  1.1095 -0.7116  0.0903
 6247TIP3    H240233   2.238   1.458   2.247  1.1460  0.8171 -0.6722
 6248TIP3   OH240234   1.589   1.767   1.273 -0.5518  0.1290  0.0412
 6248TIP3    H140235   1.558   1.736   1.358  0.0002  0.4525  0.3689
 6248TIP3    H240236   1.511   1.769   1.218 -0.7900 -0.7647  0.3306
 6249TIP3   OH240237   5.302   1.909  17.093  0.1362 -0.6325 -0.5958
 6249TIP3    H140238   5.207   1.905  17.102  0.2002 -0.3812  0.2626
 6249TIP3    H240239   5.336   1.872  17.174  0.7391  2.0972  0.5251
 6250TIP3   OH240240   5.371   4.870   4.781 -0.0149 -0.2566 -0.7551
 6250TIP3    H140241   5.312   4.938   4.812 -0.9107 -1.5379  0.5292
 6250TIP3    H240242   5.449   4.879   4.837 -0.7129 -1.1359  0.4159
 6251TIP3   OH240243   6.622   6.763   4.220 -0.2541 -0.4409 -0.0517
 6251TIP3    H140244   6.707   6.740   4.183 -0.5343  1.2146 -1.8475
 6251TIP3    H240245   6.629   6.738   4.312  1.5158 -2.0001 -0.5553
 6252TIP3   OH240246   3.138   5.590  14.656 -0.2641 -0.4633  0.3295
 6252TIP3    H140247   3.093   5.511  14.687 -0.5465 -0.4091  0.0714
 6252TIP3    H240248   3.153   5.573  14.563  1.2159 -0.9232  0.6358
 6253TIP3   OH240249   2.916   1.625  15.216  0.2109 -0.3439  0.1097
 6253TIP3    H140250   2.857   1.618  15.290 -0.2153 -2.4139 -0.3542
 6253TIP3    H240251   2.863   1.664  15.146  0.3311  0.6915  0.5775
 6254TIP3   OH240252   6.676   1.247  11.997 -0.0167  1.0097 -0.1828
 6254TIP3    H140253   6.648   1.246  11.906  1.3644 -0.1212 -0.6185
 6254TIP3    H240254   6.760   1.292  11.996 -0.2368  1.4682  0.6314
 6255TIP3   OH240255   6.557   5.088  14.515 -0.7495  0.2798  0.6583
 6255TIP3    H140256   6.556   5.176  14.479 -0.5312  0.2115  0.4873
 6255TIP3    H240257   6.524   5.032  14.444 -1.9878  0.3699  1.1471
 6256TIP3   OH240258   2.518   2.067  16.800 -0.0206  0.4885  0.4377
 6256TIP3    H140259   2.538   2.118  16.721  1.3134  0.8202  0.9493
 6256TIP3    H240260   2.465   1.994  16.769 -0.7768  1.4193 -0.5279
 6257TIP3   OH240261   0.627   3.179   3.032 -0.3008  0.1682  0.5307
 6257TIP3    H140262   0.632   3.201   3.125 -0.2592  1.2810  0.2844
 6257TIP3    H240263   0.700   3.120   3.017 -1.3597 -1.4909  1.5601
 6258TIP3   OH240264   1.404   4.430  16.555 -0.1402 -0.0224  0.1301
 6258TIP3    H140265   1.395   4.526  16.554 -0.0134  0.0167  1.2998
 6258TIP3    H240266   1.485   4.414  16.603 -1.3880 -0.7550  2.1350
 6259TIP3   OH240267   5.313   3.167   1.753  0.0321 -0.4596 -0.2274
 6259TIP3    H140268   5.327   3.237   1.817  0.9532 -0.2105 -0.6718
 6259TIP3    H240269   5.240   3.198   1.699  0.2754  0.0540 -0.2700
 6260TIP3   OH240270   1.813   3.421  14.790 -0.4112  0.3018  0.8989
 6260TIP3    H140271   1.806   3.513  14.765  0.4372 -0.1315 -1.1129
 6260TIP3    H240272   1.880   3.385  14.731 -2.3996 -2.1661 -0.0329
 6261TIP3   OH240273   3.735   1.042   5.859  0.2396  0.1101  0.4481
 6261TIP3    H140274   3.664   1.083   5.811  0.5783 -1.0891 -1.2018
 6261TIP3    H240275   3.748   1.096   5.937  0.2172  2.6724 -1.2274
 6262TIP3   OH240276   3.716   4.877   0.294 -0.7159 -0.3606 -0.3458
 6262TIP3    H140277   3.717   4.813   0.223 -0.2048 -0.6171 -0.1167
 6262TIP3    H240278   3.753   4.830   0.369 -0.0404  0.2969 -0.2600
 6263TIP3   OH240279   5.934   3.856   0.526 -0.4947 -0.2886 -0.0096
 6263TIP3    H140280   6.006   3.883   0.583 -1.3582  1.1691  0.4259
 6263TIP3    H240281   5.892   3.937   0.499 -0.7481 -1.0114 -1.9206
 6264TIP3   OH240282   1.387   0.812   3.516  0.4118  0.6380 -0.1046
 6264TIP3    H140283   1.381   0.894   3.466  0.6507  0.5396 -0.2937
 6264TIP3    H240284   1.312   0.761   3.485  0.3691  0.7102 -0.1227
 6265TIP3   OH240285   0.645   2.249  14.702 -0.5660  0.0264 -0.3487
 6265TIP3    H140286   0.574   2.189  14.727 -1.0223  0.7715  0.1854
 6265TIP3    H240287   0.619   2.333  14.739  0.9588  0.1538  0.5085
 6266TIP3   OH240288   5.569   0.347  15.014  0.0557  0.5653 -0.3930
 6266TIP3    H140289   5.631   0.403  15.062  0.6268  0.1167 -0.5879
 6266TIP3    H240290   5.596   0.354  14.923  0.8462 -0.8740 -0.2998
 6267TIP3   OH240291   4.792   4.807  10.594 -0.1445 -0.4963 -0.3508
 6267TIP3    H140292   4.881   4.825  10.564 -0.0313  1.3619  0.9201
 6267TIP3    H240293   4.794   4.716  10.623  1.1375 -0.6940 -0.9965
 6268TIP3   OH240294   3.919   6.697  14.762 -0.4881 -0.2372  0.2209
 6268TIP3    H140295   3.986   6.747  14.809 -0.7206  0.3825 -0.0952
 6268TIP3    H240296   3.871   6.763  14.711 -0.9263 -0.7585 -0.0523
 6269TIP3   OH240297   1.110   4.755  13.424  0.1826 -0.0951  0.2507
 6269TIP3    H140298   1.083   4.832  13.376 -2.3746 -0.1556  1.3986
 6269TIP3    H240299   1.095   4.778  13.516  1.0088 -1.3622  0.7256
 6270TIP3   OH240300   2.727   4.301   5.053  0.5113 -0.2161 -0.1701
 6270TIP3    H140301   2.642   4.303   5.008  0.8888 -0.8717 -0.9310
 6270TIP3    H240302   2.791   4.315   4.983  1.0064  1.5122  0.5593
 6271TIP3   OH240303   4.955   0.801  15.917 -0.5834  0.6442  0.1777
 6271TIP3    H140304   4.994   0.869  15.861  1.0545  0.7327  1.3251
 6271TIP3    H240305   4.871   0.837  15.943 -0.3302  1.6435 -0.3147
 6272TIP3   OH240306   5.964   1.062   3.687  0.0317 -0.3418 -0.1397
 6272TIP3    H140307   5.899   1.088   3.752 -0.3765 -0.5313 -0.4586
 6272TIP3    H240308   6.048   1.071   3.731 -0.2404 -0.4979  0.4210
 6273TIP3   OH240309   0.516   1.442   4.862 -0.1746 -0.4958 -0.9944
 6273TIP3    H140310   0.579   1.440   4.934  1.0773 -1.1789 -2.0623
 6273TIP3    H240311   0.548   1.512   4.805  1.1121 -2.4357 -2.7855
 6274TIP3   OH240312   2.657   0.897   5.103 -0.1277  0.2517 -0.4267
 6274TIP3    H140313   2.612   0.840   5.166 -0.4091  1.6674  0.7003
 6274TIP3    H240314   2.606   0.888   5.023 -0.4763 -0.6625 -0.1242
 6275TIP3   OH240315   6.763   2.476  13.290 -0.5920  0.3408 -0.0037
 6275TIP3    H140316   6.849   2.435  13.281 -0.6465  0.2108  0.0647
 6275TIP3    H240317   6.738   2.461  13.381 -0.9966 -0.2407 -0.2027
 6276TIP3   OH240318   2.402   2.698  13.193 -0.6363 -0.6200 -0.6670
 6276TIP3    H140319   2.473   2.739  13.243 -0.7660 -1.2663  0.0567
 6276TIP3    H240320   2.445   2.662  13.115 -0.2481 -0.6047 -0.4624
 6277TIP3   OH240321   4.938   0.290  14.586  0.2138  0.0641 -0.6529
 6277TIP3    H140322   4.879   0.285  14.662  0.8342 -0.6730 -0.2065
 6277TIP3    H240323   5.005   0.352  14.612  0.7347 -0.6043 -0.3665
 6278TIP3   OH240324   0.205   4.620   1.212  0.5719  0.0120 -0.3687
 6278TIP3    H140325   0.254   4.540   1.230 -0.7593 -0.7315  0.1281
 6278TIP3    H240326   0.118   4.589   1.187 -0.2825  1.3170  0.8418
 6279TIP3   OH240327   0.199   2.068   5.566  0.9257 -0.0906  0.3419
 6279TIP3    H140328   0.131   2.080   5.632  1.7248  0.9276  1.0024
 6279TIP3    H240329   0.266   2.132   5.588  1.0710  0.5099 -1.6630
 6280TIP3   OH240330   3.977   2.823   1.015 -0.3254 -0.3714 -0.2766
 6280TIP3    H140331   3.957   2.788   0.928 -0.9315 -1.2016  0.1769
 6280TIP3    H240332   4.069   2.848   1.011 -0.0209 -1.5391 -0.7968
 6281TIP3   OH240333   1.730   0.629  15.386 -0.1107 -0.0575 -0.4553
 6281TIP3    H140334   1.755   0.546  15.427 -0.3753 -0.5834 -1.3409
 6281TIP3    H240335   1.802   0.688  15.406  2.3467 -1.7280 -3.5942
 6282TIP3   OH240336   3.252   2.303  13.850  0.6393  0.4400 -0.0885
 6282TIP3    H140337   3.291   2.322  13.935  0.9839  0.9927 -0.3619
 6282TIP3    H240338   3.216   2.387  13.821  0.1968  0.1719 -0.3222
 6283TIP3   OH240339   2.303   5.245  16.355 -0.0613 -0.0872 -0.1120
 6283TIP3    H140340   2.208   5.236  16.359 -0.3503 -1.4228 -4.7203
 6283TIP3    H240341   2.319   5.339  16.368 -1.7423 -0.0519  2.3034
 6284TIP3   OH240342   6.388   3.303   5.759 -0.5203  0.1501  0.1560
 6284TIP3    H140343   6.412   3.248   5.834  0.6386 -0.7505 -0.8435
 6284TIP3    H240344   6.297   3.328   5.776 -0.4803 -0.5512  1.5436
 6285TIP3   OH240345   4.691   3.199   5.174  0.5645 -0.6459  0.0068
 6285TIP3    H140346   4.641   3.276   5.147  1.6293  0.2767  0.5692
 6285TIP3    H240347   4.774   3.234   5.207  0.4891 -1.9135  1.7132
 6286TIP3   OH240348   1.169   0.453   4.889  0.6007 -0.3806 -0.3050
 6286TIP3    H140349   1.078   0.464   4.916  0.4732 -0.9486 -0.4815
 6286TIP3    H240350   1.191   0.363   4.914  0.4574 -0.9535 -2.1086
 6287TIP3   OH240351   6.551   2.924   1.506  0.0772  0.4113 -1.2295
 6287TIP3    H140352   6.553   2.994   1.441 -1.3771  1.5168 -0.1377
 6287TIP3    H240353   6.576   2.965   1.588 -1.3891 -0.1605 -0.4505
 6288TIP3   OH240354   3.247   0.494   1.006  0.0892  0.4481  0.1354
 6288TIP3    H140355   3.303   0.481   1.083 -0.7758  0.4420  0.7779
 6288TIP3    H240356   3.282   0.573   0.964  0.1771  0.8265  0.8973
 6289TIP3   OH240357   5.142   5.007  16.329  0.2006 -0.4447  0.0433
 6289TIP3    H140358   5.233   4.976  16.330 -0.5789 -2.9100  0.3859
 6289TIP3    H240359   5.116   5.004  16.237  0.9815  2.1042 -0.3296
 6290TIP3   OH240360   3.339   2.733  12.163 -0.3576 -0.4862 -0.3966
 6290TIP3    H140361   3.270   2.786  12.124  0.3398  0.4746 -0.3646
 6290TIP3    H240362   3.400   2.715  12.091  0.0513 -0.1651 -0.1375
 6291TIP3   OH240363   0.357   5.858  14.722  0.7715  0.5193  0.0253
 6291TIP3    H140364   0.280   5.854  14.665  0.8597 -1.6087 -0.0294
 6291TIP3    H240365   0.340   5.932  14.780 -1.3085  0.1483 -0.0270
 6292TIP3   OH240366   2.290   4.938   3.934 -0.4590  0.3015  0.0653
 6292TIP3    H140367   2.271   5.032   3.943 -0.4330  0.3045  0.0894
 6292TIP3    H240368   2.204   4.896   3.932 -0.5111  0.4267 -1.0672
 6293TIP3   OH240369   1.770   6.229   2.982  0.0762  0.5171  0.0793
 6293TIP3    H140370   1.856   6.196   2.956 -0.2950 -0.2985 -0.1446
 6293TIP3    H240371   1.709   6.161   2.954 -0.6256  0.9997  0.4144
 6294TIP3   OH240372   2.245   2.327   2.868  0.1490  0.4759  0.1768
 6294TIP3    H140373   2.339   2.344   2.864  0.4518 -1.2037 -0.4494
 6294TIP3    H240374   2.235   2.238   2.836 -1.5486  0.2210  1.2870
 6295TIP3   OH240375   6.380   6.132   2.582  0.0386 -0.6529 -0.2227
 6295TIP3    H140376   6.329   6.130   2.501 -0.2973 -2.1547  0.0062
 6295TIP3    H240377   6.384   6.041   2.610 -3.1575  0.0890  3.4890
 6296TIP3   OH240378   2.300   1.894  14.243  0.2965 -0.0811 -0.0347
 6296TIP3    H140379   2.386   1.935  14.252  0.7764 -1.1054  0.1832
 6296TIP3    H240380   2.314   1.802  14.266 -1.0723 -0.0615  1.0537
 6297TIP3   OH240381   3.759   5.011  11.641  0.4243  0.4100  0.1926
 6297TIP3    H140382   3.757   4.919  11.617 -0.7293  0.1879  1.1090
 6297TIP3    H240383   3.840   5.044  11.601 -0.9231 -0.1009 -3.3043
 6298TIP3   OH240384   0.804   1.634   3.963  0.1761  0.4428 -0.0010
 6298TIP3    H140385   0.780   1.722   3.931  0.8903  0.2074 -1.2619
 6298TIP3    H240386   0.790   1.577   3.887 -0.2726 -0.5490  0.8041
 6299TIP3   OH240387   5.779   4.193   2.858 -0.1330 -0.5145  0.5539
 6299TIP3    H140388   5.793   4.101   2.836  0.6484 -0.3178  0.1781
 6299TIP3    H240389   5.862   4.222   2.896 -0.1685  0.1777  0.1417
 6300TIP3   OH240390   6.697   0.255  15.429  0.3720  0.0316 -0.7181
 6300TIP3    H140391   6.643   0.333  15.429  1.5866  0.8969 -0.6620
 6300TIP3    H240392   6.635   0.183  15.444 -0.8859  0.8712 -1.6980
 6301TIP3   OH240393   5.110   4.101   1.740 -0.8321 -0.3274  0.0243
 6301TIP3    H140394   5.175   4.099   1.670  0.3942 -0.7195  1.1350
 6301TIP3    H240395   5.102   4.194   1.762 -0.9935 -0.2332 -0.4157
 6302TIP3   OH240396   3.319   0.391   6.437  0.4647 -0.3661  0.1334
 6302TIP3    H140397   3.411   0.394   6.461  1.0322 -0.4242 -1.8123
 6302TIP3    H240398   3.287   0.481   6.450  0.9629 -0.2076  0.2702
 6303TIP3   OH240399   4.163   6.237   1.600 -0.3836 -0.5792 -0.0865
 6303TIP3    H140400   4.110   6.316   1.604  0.5332  0.0720 -0.3923
 6303TIP3    H240401   4.253   6.268   1.602  0.0461 -1.4166 -2.6306
 6304TIP3   OH240402   4.790   3.934  15.591 -0.5868 -0.3843  0.4414
 6304TIP3    H140403   4.853   3.994  15.632  1.4756 -1.6161 -0.7573
 6304TIP3    H240404   4.761   3.980  15.512  1.0168 -0.9225 -0.4949
 6305TIP3   OH240405   0.069   4.830   1.027  0.7311  0.0549  0.2584
 6305TIP3    H140406   0.095   4.773   1.100 -0.2494 -3.0482 -1.6364
 6305TIP3    H240407  -0.025   4.815   1.017  0.5432  1.6463 -0.6875
 6306TIP3   OH240408   3.850   2.491  16.088  0.6814 -0.4405  0.5035
 6306TIP3    H140409   3.895   2.411  16.115  0.6063  0.1776  2.5951
 6306TIP3    H240410   3.841   2.482  15.993  1.6083 -2.4167  0.5518
 6307TIP3   OH240411   3.709   2.697   4.596 -0.4207  0.3419 -0.1883
 6307TIP3    H140412   3.705   2.721   4.503  1.3987 -0.2337 -0.4507
 6307TIP3    H240413   3.748   2.610   4.597 -0.7066  0.2048  1.1138
 6308TIP3   OH240414   2.703   3.713   3.880 -0.2978  0.2365  0.2815
 6308TIP3    H140415   2.780   3.685   3.830 -0.4767  0.8339 -0.3374
 6308TIP3    H240416   2.630   3.703   3.819 -0.8549 -1.0803  1.1114
 6309TIP3   OH240417   2.098   5.453   0.827  0.1197 -0.4378 -0.2003
 6309TIP3    H140418   2.154   5.453   0.904  0.3430 -1.4575 -0.3540
 6309TIP3    H240419   2.074   5.361   0.814 -1.0232 -0.1178 -0.5458
 6310TIP3   OH240420   3.797   1.527   4.030 -0.5227 -0.1036  0.3958
 6310TIP3    H140421   3.795   1.532   4.126  1.2225  1.7714  0.4121
 6310TIP3    H240422   3.839   1.443   4.011  0.3553  0.0949  1.3474
 6311TIP3   OH240423   4.246   4.895  14.746  0.3168  0.4134  0.0087
 6311TIP3    H140424   4.189   4.941  14.808 -1.7366 -0.7469 -0.9052
 6311TIP3    H240425   4.261   4.810  14.787  1.7156  0.8155  0.3802
 6312TIP3   OH240426   1.798   2.884  12.280 -0.2624 -0.0275  0.0851
 6312TIP3    H140427   1.721   2.915  12.328 -0.1411 -1.7755  1.4790
 6312TIP3    H240428   1.856   2.848  12.347  0.5916 -1.1750 -1.2100
 6313TIP3   OH240429   0.742   4.930   0.489 -0.1642 -0.0587 -0.2911
 6313TIP3    H140430   0.792   5.002   0.528  1.1229 -0.9576 -0.1973
 6313TIP3    H240431   0.685   4.900   0.560  0.4035 -0.1140  0.1523
 6314TIP3   OH240432   4.914   0.487   2.414  0.1503  0.1719  0.1997
 6314TIP3    H140433   4.999   0.447   2.399 -0.5812 -1.5328  0.3816
 6314TIP3    H240434   4.920   0.522   2.503  0.6718  0.1030  0.1943
 6315TIP3   OH240435   4.462   1.259   4.886  0.1483 -0.1694 -0.3726
 6315TIP3    H140436   4.420   1.292   4.966  0.3399 -0.0546 -0.3179
 6315TIP3    H240437   4.509   1.181   4.914  0.3985 -0.0035 -0.3268
 6316TIP3   OH240438   1.197   5.539  15.456 -0.4143 -0.1406 -0.0112
 6316TIP3    H140439   1.258   5.465  15.449 -0.4069 -0.2555  1.0897
 6316TIP3    H240440   1.144   5.534  15.376  1.8692  0.7866 -1.6802
 6317TIP3   OH240441   3.720   1.366   2.585  0.4616  0.0317  0.4585
 6317TIP3    H140442   3.636   1.348   2.629 -0.5120 -2.0110 -1.9988
 6317TIP3    H240443   3.699   1.431   2.519  1.0128  0.1540  0.4003
 6318TIP3   OH240444   4.713   4.802   3.346  0.0211 -0.5564 -0.2160
 6318TIP3    H140445   4.785   4.744   3.369 -1.0828 -2.4482 -1.2908
 6318TIP3    H240446   4.635   4.746   3.350 -1.2007  1.0640 -0.5265
 6319TIP3   OH240447   0.417   5.404   3.384 -0.7128 -0.3983  0.0023
 6319TIP3    H140448   0.323   5.385   3.384 -1.1381  1.3963  1.4559
 6319TIP3    H240449   0.446   5.377   3.471 -0.2336  0.4893  0.1317
 6320TIP3   OH240450   1.372   0.640   1.366 -0.1389  0.1260 -0.7431
 6320TIP3    H140451   1.402   0.643   1.275  1.8507  0.8750 -0.1174
 6320TIP3    H240452   1.391   0.552   1.396 -0.7954 -0.1210 -1.0226
 6321TIP3   OH240453   1.407   4.737  15.858 -0.2957  0.2695 -0.4300
 6321TIP3    H140454   1.411   4.778  15.944  0.9879  0.0489 -0.3700
 6321TIP3    H240455   1.497   4.736  15.827 -0.2577 -2.3021 -0.4992
 6322TIP3   OH240456   4.311   5.904  15.724 -0.3101 -0.3459  0.1595
 6322TIP3    H140457   4.380   5.863  15.672  1.0690  0.8922  0.9333
 6322TIP3    H240458   4.284   5.837  15.787  0.6024 -0.6558  0.2243
 6323TIP3   OH240459   5.157   0.435   3.089 -0.0868  0.0775 -0.5323
 6323TIP3    H140460   5.112   0.454   3.006  0.4563  0.3157 -0.7738
 6323TIP3    H240461   5.235   0.490   3.088  1.1111 -1.5452 -0.8788
 6324TIP3   OH240462   2.848   5.589  14.428  0.6944  0.2927  0.0902
 6324TIP3    H140463   2.794   5.528  14.379  0.8651 -0.5794  0.9482
 6324TIP3    H240464   2.787   5.637  14.483  0.5327  1.0872 -0.7605
 6325TIP3   OH240465   6.467   0.510  15.946  0.0821  0.3946  0.1355
 6325TIP3    H140466   6.418   0.566  15.885 -1.4389  0.8210  1.6730
 6325TIP3    H240467   6.400   0.461  15.993  1.0987  0.8003  2.1426
 6326TIP3   OH240468   0.456   5.127   3.142  0.5762  0.0882  0.5432
 6326TIP3    H140469   0.368   5.161   3.157  0.7220  0.3860  0.7315
 6326TIP3    H240470   0.450   5.081   3.059  0.6969  1.7260 -0.4174
 6327TIP3   OH240471   2.733   3.269   1.852 -0.3484  0.2003  0.2288
 6327TIP3    H140472   2.725   3.196   1.790  0.3304  0.8714 -0.6787
 6327TIP3    H240473   2.714   3.230   1.937 -1.7919 -0.6385 -0.4417
 6328TIP3   OH240474   1.752   3.408  14.474 -0.6797 -0.1438  0.1851
 6328TIP3    H140475   1.687   3.454  14.527 -0.1017  1.9204 -0.8094
 6328TIP3    H240476   1.829   3.401  14.531 -1.7205 -2.7658  1.4348
 6329TIP3   OH240477   2.149   4.305   5.915  0.8557 -0.1724  0.0457
 6329TIP3    H140478   2.099   4.296   5.996  1.6718 -1.3045  0.4514
 6329TIP3    H240479   2.083   4.324   5.849 -0.0947 -1.3403  0.6160
 6330TIP3   OH240480   5.567   5.205  13.536  0.0829 -0.4828 -0.3797
 6330TIP3    H140481   5.511   5.167  13.603  0.2143 -0.6652 -0.3712
 6330TIP3    H240482   5.613   5.130  13.498  0.7100 -0.2857 -0.0290
 6331TIP3   OH240483   6.450   0.061  11.276  0.2299  0.0371 -0.1348
 6331TIP3    H140484   6.369   0.103  11.246  0.3434  0.7911  0.6098
 6331TIP3    H240485   6.514   0.080  11.207 -0.1385 -0.3297 -0.5916
 6332TIP3   OH240486   1.217   4.881  16.407 -0.1363 -0.0604 -0.5727
 6332TIP3    H140487   1.149   4.948  16.413  0.3073  0.5385 -1.8104
 6332TIP3    H240488   1.260   4.899  16.323  1.2873 -0.6654  0.0081
 6333TIP3   OH240489   1.048   1.925   4.552  0.0123 -0.2560  0.0686
 6333TIP3    H140490   1.104   1.856   4.587  1.5831  0.7340 -0.3687
 6333TIP3    H240491   0.966   1.882   4.531  0.4732 -1.6927  1.0942
 6334TIP3   OH240492   6.360   0.576   3.106  0.2055 -0.3461 -0.0512
 6334TIP3    H140493   6.309   0.542   3.180  2.3921  0.9233  2.2146
 6334TIP3    H240494   6.297   0.628   3.056 -1.4962 -1.7271  0.5480
 6335TIP3   OH240495   2.302   5.767   3.018  0.7217  0.1823  0.1966
 6335TIP3    H140496   2.311   5.810   2.934  1.0925  0.1576  0.2222
 6335TIP3    H240497   2.332   5.678   3.003  1.7779  0.4583  0.5973
 6336TIP3   OH240498   3.179   2.151   0.143 -0.5270  0.5321 -0.0841
 6336TIP3    H140499   3.243   2.185   0.081 -1.5868 -0.0365 -1.5238
 6336TIP3    H240500   3.230   2.097   0.203  0.3929  0.3776 -0.9822
 6337TIP3   OH240501   5.879   4.117  12.205 -0.0034 -0.2835 -0.1496
 6337TIP3    H140502   5.843   4.142  12.290  1.8124 -2.8198  1.5047
 6337TIP3    H240503   5.954   4.175  12.194 -0.8087  0.7146 -0.5479
 6338TIP3   OH240504   2.847   5.192  12.962  0.3215  0.5075  0.0728
 6338TIP3    H140505   2.764   5.173  12.918 -0.3990 -0.0425  1.6085
 6338TIP3    H240506   2.884   5.265  12.912 -1.6667  1.5733  0.0619
 6339TIP3   OH240507   3.863   3.343  14.482 -0.0548 -0.3811  0.0878
 6339TIP3    H140508   3.789   3.314  14.427 -0.4444  0.9095 -0.1106
 6339TIP3    H240509   3.913   3.264  14.499 -1.3702 -1.2456  0.0303
 6340TIP3   OH240510   4.570   4.031   3.113 -0.3096 -0.3747 -0.1639
 6340TIP3    H140511   4.553   3.938   3.128  3.6017 -1.0080  1.6594
 6340TIP3    H240512   4.542   4.074   3.195 -0.7509 -0.1244 -0.4383
 6341TIP3   OH240513   4.995   5.334   2.541 -0.1236 -0.0063  0.6821
 6341TIP3    H140514   5.004   5.427   2.562 -0.6512  0.1398  0.2847
 6341TIP3    H240515   5.078   5.310   2.501  1.3332 -0.5311  3.6947
 6342TIP3   OH240516   1.384   1.433  12.688  0.0046 -0.9443  0.0187
 6342TIP3    H140517   1.431   1.393  12.761  1.7596  0.2879 -0.3774
 6342TIP3    H240518   1.409   1.525  12.691 -1.4713 -0.4774 -0.9634
 6343TIP3   OH240519   1.823   1.995   3.955  0.3344 -0.2628  0.0603
 6343TIP3    H140520   1.867   2.075   3.986 -0.0663 -0.1421  0.3184
 6343TIP3    H240521   1.826   2.003   3.860 -1.8191  1.2700  0.0367
 6344TIP3   OH240522   6.614   2.827  15.809  0.3734 -0.2787  0.3325
 6344TIP3    H140523   6.571   2.769  15.872 -0.4026 -1.3484 -1.1288
 6344TIP3    H240524   6.660   2.768  15.750  2.2390  0.7606  0.6635
 6345TIP3   OH240525   4.309   1.115  16.377  0.3511 -0.0700  0.1806
 6345TIP3    H140526   4.220   1.102  16.345  0.4616  0.5893 -0.4209
 6345TIP3    H240527   4.360   1.048  16.331  0.3893  0.4308 -0.5320
 6346TIP3   OH240528   1.632   5.136  14.386 -0.1792 -0.3202 -0.0224
 6346TIP3    H140529   1.567   5.157  14.319  0.1950 -1.0044 -0.6162
 6346TIP3    H240530   1.586   5.149  14.468 -0.7415  0.2373 -0.4087
 6347TIP3   OH240531   1.998   1.866  13.047 -0.1355 -0.0241  0.0659
 6347TIP3    H140532   2.031   1.848  12.960  0.5165  0.5226  0.1944
 6347TIP3    H240533   2.069   1.841  13.106 -0.7401 -0.8169  0.4728
 6348TIP3   OH240534   2.841   2.336   2.720 -0.4926  0.0064  0.0015
 6348TIP3    H140535   2.892   2.340   2.801 -1.4908 -1.8295  0.7649
 6348TIP3    H240536   2.888   2.273   2.665 -0.0685  0.9119 -0.7198
 6349TIP3   OH240537   1.442   4.382   5.745  0.2277 -0.0355 -0.4831
 6349TIP3    H140538   1.361   4.334   5.734  0.2247 -0.1074 -0.1626
 6349TIP3    H240539   1.471   4.360   5.834  0.1375  0.6854 -0.2707
 6350TIP3   OH240540   6.248   0.947  14.324 -0.1834 -0.0424  0.0886
 6350TIP3    H140541   6.243   0.967  14.230 -1.8090  0.6911  0.2965
 6350TIP3    H240542   6.328   0.896  14.333 -1.2410 -2.2889 -2.1038
 6351TIP3   OH240543   1.675   4.562  17.067 -0.1805  0.3288  0.3004
 6351TIP3    H140544   1.765   4.592  17.055 -0.1430  1.2312  2.4731
 6351TIP3    H240545   1.623   4.614  17.006  0.6325  0.5989 -0.1673
 6352TIP3   OH240546   2.005   4.028  12.007 -0.2518 -0.5315 -0.2535
 6352TIP3    H140547   2.080   3.969  12.004  0.3506  0.1579  0.5870
 6352TIP3    H240548   1.948   3.999  11.936  0.9136 -0.9362 -1.0527
 6353TIP3   OH240549   0.501   5.067  14.313  0.2007  0.1936  0.0163
 6353TIP3    H140550   0.422   5.114  14.342  0.2875  1.2591 -1.3547
 6353TIP3    H240551   0.510   4.995  14.375 -1.0265  0.8976  1.0738
 6354TIP3   OH240552   1.982   4.966   3.188  0.5100  0.1826 -0.2372
 6354TIP3    H140553   1.906   4.969   3.130 -0.5817 -0.8737  1.0910
 6354TIP3    H240554   1.966   5.034   3.253  0.4423 -0.3894  0.3482
 6355TIP3   OH240555   4.441   2.249   1.012  0.3730 -0.0712  0.2965
 6355TIP3    H140556   4.436   2.325   1.070  0.6055 -0.5170  0.9131
 6355TIP3    H240557   4.427   2.285   0.924  0.7346  0.7144  0.5531
 6356TIP3   OH240558   0.546   5.126   4.305 -0.5184 -0.2394 -0.0378
 6356TIP3    H140559   0.513   5.036   4.308  0.8611 -0.8313 -1.4772
 6356TIP3    H240560   0.635   5.121   4.339 -0.5738  0.6726  0.2858
 6357TIP3   OH240561   0.869   3.500   5.525  0.5867 -0.0404 -0.2806
 6357TIP3    H140562   0.908   3.572   5.573  0.5255 -1.2619  1.6948
 6357TIP3    H240563   0.927   3.488   5.449  2.2343  0.2677  0.8748
 6358TIP3   OH240564   3.753   1.175   2.172  0.0311 -0.2509  0.4044
 6358TIP3    H140565   3.741   1.257   2.124 -1.7639 -0.8322 -0.2448
 6358TIP3    H240566   3.741   1.107   2.105  0.2385 -1.0478  1.1656
 6359TIP3   OH240567   5.146   6.667  11.527  0.2029  0.2836  0.6373
 6359TIP3    H140568   5.066   6.627  11.494  1.3523 -1.2841 -0.4107
 6359TIP3    H240569   5.180   6.603  11.590  0.9379  0.6662  0.6388
 6360TIP3   OH240570   2.982   5.807   4.753  0.4710  0.2216 -0.3356
 6360TIP3    H140571   2.976   5.766   4.666 -0.2372  1.7769 -1.0608
 6360TIP3    H240572   3.070   5.844   4.756  1.2168 -1.4879  0.4325
 6361TIP3   OH240573   0.891   3.436   0.695 -0.0537 -0.0150  0.0374
 6361TIP3    H140574   0.861   3.526   0.685  1.0365  0.2389 -1.0917
 6361TIP3    H240575   0.943   3.436   0.775 -0.7133  0.1655  0.4731
 6362TIP3   OH240576   0.622   6.613  11.763  0.0286  0.0766  0.3627
 6362TIP3    H140577   0.608   6.527  11.803  2.7118  0.4800  2.4296
 6362TIP3    H240578   0.580   6.675  11.822 -2.3200  0.2840 -1.3647
 6363TIP3   OH240579   2.870   6.192  12.501 -0.5704  0.3292  0.0507
 6363TIP3    H140580   2.910   6.141  12.572 -0.2398  0.3525 -0.1150
 6363TIP3    H240581   2.838   6.271  12.544 -4.1111 -1.3965  0.9672
 6364TIP3   OH240582   6.147   2.231   3.401  0.0646  0.3918  0.2033
 6364TIP3    H140583   6.101   2.203   3.322  0.1303 -0.8324  0.5801
 6364TIP3    H240584   6.224   2.277   3.368  0.7877 -1.2239 -0.5003
 6365TIP3   OH240585   1.141   5.260  15.538 -0.4256  0.6415 -0.2834
 6365TIP3    H140586   1.075   5.196  15.513 -0.5577  0.1108  1.3164
 6365TIP3    H240587   1.202   5.211  15.594 -1.4378  2.2276  2.3892
 6366TIP3   OH240588   4.420   0.680   5.311 -0.0449 -0.5176  0.2320
 6366TIP3    H140589   4.369   0.755   5.280  1.2625 -0.8549 -3.1566
 6366TIP3    H240590   4.500   0.719   5.347  0.4611 -0.2035 -1.1630
 6367TIP3   OH240591   0.966   1.243  15.117 -0.2954  0.0002  0.3547
 6367TIP3    H140592   0.903   1.195  15.170  1.0374 -0.0844  1.9426
 6367TIP3    H240593   0.924   1.327  15.100 -1.1320 -0.3340  0.7413
 6368TIP3   OH240594   2.183   3.732   3.833  0.5422 -0.1169  0.2716
 6368TIP3    H140595   2.160   3.672   3.762 -0.2477 -0.8460  1.1209
 6368TIP3    H240596   2.115   3.719   3.899  1.6842 -0.0257  1.5078
 6369TIP3   OH240597   4.421   2.434   3.663  0.2279 -0.8947  0.1769
 6369TIP3    H140598   4.501   2.486   3.661 -0.1515 -0.3233 -0.4034
 6369TIP3    H240599   4.442   2.357   3.609  0.0924 -0.2849 -0.7805
 6370TIP3   OH240600   5.693   6.334   5.275 -0.2516 -0.2216  1.0345
 6370TIP3    H140601   5.756   6.262   5.267 -0.4436 -0.3572  0.6853
 6370TIP3    H240602   5.622   6.298   5.327  0.9240  0.6127  3.3295
 6371TIP3   OH240603   5.107   3.038   4.915 -0.4814 -0.4818 -0.4068
 6371TIP3    H140604   5.151   3.087   4.846 -0.2097  0.9214  0.7244
 6371TIP3    H240605   5.178   3.011   4.974 -0.9294  0.3532  0.5392
 6372TIP3   OH240606   1.508   1.211   1.085 -0.0088  0.0606 -0.7338
 6372TIP3    H140607   1.575   1.279   1.093 -0.2968  0.2218  0.7022
 6372TIP3    H240608   1.429   1.252   1.121  0.1891 -1.4886  1.7420
 6373TIP3   OH240609   2.279   4.565  14.450 -0.0076 -0.2544  0.2843
 6373TIP3    H140610   2.199   4.613  14.431  0.3310  0.8736  1.5337
 6373TIP3    H240611   2.347   4.633  14.453  0.3899 -0.6583  2.6648
 6374TIP3   OH240612   6.377   6.086  11.932  0.6672  0.3954 -0.1609
 6374TIP3    H140613   6.387   6.049  11.845 -0.0720  0.5046 -0.3017
 6374TIP3    H240614   6.464   6.080  11.971  1.6889  2.6656 -1.8122
 6375TIP3   OH240615   4.850   3.463  15.596 -0.5296 -0.8166 -0.0907
 6375TIP3    H140616   4.791   3.516  15.649 -0.5094 -1.0497  0.1630
 6375TIP3    H240617   4.899   3.411  15.659  1.1991  0.6244 -0.1492
 6376TIP3   OH240618   2.866   1.890  16.283  0.1691  0.3092 -0.1597
 6376TIP3    H140619   2.803   1.959  16.265  0.6141  0.4315 -1.3339
 6376TIP3    H240620   2.824   1.810  16.252 -0.7042 -0.1188  1.9860
 6377TIP3   OH240621   2.882   2.435  17.070 -0.2527  0.2244  0.2663
 6377TIP3    H140622   2.961   2.379  17.068 -0.3381  0.0577 -2.3188
 6377TIP3    H240623   2.893   2.493  16.994 -1.4192  1.9876  1.3965
 6378TIP3   OH240624   3.316   5.451   0.605 -0.3041  0.4502  0.2639
 6378TIP3    H140625   3.276   5.453   0.518 -1.7997 -1.9342  0.8021
 6378TIP3    H240626   3.277   5.526   0.650 -0.9378  0.6428 -0.5622
 6379TIP3   OH240627   2.356   0.842   0.746 -0.2816  0.7679  0.1607
 6379TIP3    H140628   2.422   0.873   0.808 -1.0857 -0.2177  1.5577
 6379TIP3    H240629   2.352   0.747   0.760 -0.4222  0.4916 -1.4878
 6380TIP3   OH240630   3.024   6.640  11.560 -0.2781 -0.0672 -0.5797
 6380TIP3    H140631   2.949   6.679  11.606  0.2093 -2.6227  2.7845
 6380TIP3    H240632   3.101   6.674  11.605  0.3609 -1.1131 -0.8495
 6381TIP3   OH240633   2.973   3.490   2.952 -0.7317 -0.2230 -0.3756
 6381TIP3    H140634   2.879   3.499   2.964 -0.6753 -0.0293 -0.0696
 6381TIP3    H240635   2.983   3.432   2.877 -1.0958 -1.5423  0.5698
 6382TIP3   OH240636   3.354   3.974  12.596  0.2139  1.0976 -0.5440
 6382TIP3    H140637   3.293   4.041  12.628 -0.2616 -0.2481  1.5519
 6382TIP3    H240638   3.298   3.907  12.558  0.3684  0.1093  0.9010
 6383TIP3   OH240639   0.689   2.214  11.321 -0.1205  0.6828  0.9816
 6383TIP3    H140640   0.691   2.268  11.242  3.0265 -0.6631 -0.0629
 6383TIP3    H240641   0.646   2.133  11.294  1.1758  0.1251  0.4873
 6384TIP3   OH240642   2.660   0.498  11.938  1.0424  0.0158  0.4753
 6384TIP3    H140643   2.741   0.507  11.887  1.0869 -3.0197 -0.1556
 6384TIP3    H240644   2.590   0.520  11.876  1.1466 -2.8739 -0.8206
 6385TIP3   OH240645   1.961   5.989  14.942 -0.8555  0.3286  0.6264
 6385TIP3    H140646   1.955   5.958  14.851 -1.4539 -1.7418  1.3168
 6385TIP3    H240647   1.884   6.045  14.952 -0.8603  0.4746 -0.1128
 6386TIP3   OH240648   4.470   5.616   3.474  0.4298  0.2841 -0.0972
 6386TIP3    H140649   4.441   5.703   3.501  1.2342  0.6681 -0.4614
 6386TIP3    H240650   4.531   5.631   3.402 -0.3332 -0.6415 -0.9783
 6387TIP3   OH240651   3.807   1.723  11.477  0.2044  0.4322 -0.7765
 6387TIP3    H140652   3.716   1.742  11.457  0.4966 -0.1766 -2.9936
 6387TIP3    H240653   3.828   1.647  11.423  1.7741 -0.0434  0.4125
 6388TIP3   OH240654   6.373   3.365   6.558  0.4127  0.4987 -0.4400
 6388TIP3    H140655   6.322   3.408   6.627  0.6512 -0.2944  0.2434
 6388TIP3    H240656   6.320   3.377   6.479 -1.2346 -0.8955  0.3625
 6389TIP3   OH240657   0.695   4.238   2.230  0.2351  0.0130 -0.2193
 6389TIP3    H140658   0.699   4.333   2.229  0.1007  0.0670  1.2999
 6389TIP3    H240659   0.616   4.217   2.179 -0.8230  0.8341  1.0057
 6390TIP3   OH240660   2.371   0.978  15.040  0.5233 -0.1898  0.1397
 6390TIP3    H140661   2.294   0.935  15.077  0.3285 -0.0877 -0.1439
 6390TIP3    H240662   2.357   1.071  15.059  0.3385 -0.1179 -0.3355
 6391TIP3   OH240663   5.727   5.924  13.830 -0.5116 -0.6457 -0.1191
 6391TIP3    H140664   5.641   5.939  13.792 -0.9964 -2.4578  0.1402
 6391TIP3    H240665   5.764   6.011  13.844 -2.1663  0.1491 -0.5276
 6392TIP3   OH240666   3.936   0.975  12.391 -0.3226 -0.0055  0.3153
 6392TIP3    H140667   3.994   0.900  12.392  0.3466  0.4969  0.2183
 6392TIP3    H240668   3.966   1.030  12.463 -1.0834 -0.0307  0.6609
 6393TIP3   OH240669   1.647   5.208   1.848 -0.2235  0.5065  0.4005
 6393TIP3    H140670   1.666   5.115   1.856 -0.5947  0.2893 -1.0070
 6393TIP3    H240671   1.684   5.247   1.928  1.0497 -0.6602  0.4196
 6394TIP3   OH240672   0.532   3.364  12.286  0.3417 -0.3412 -0.6489
 6394TIP3    H140673   0.541   3.289  12.227  0.0012 -0.8870 -0.0121
 6394TIP3    H240674   0.454   3.410  12.255 -0.9576 -1.6683  0.4865
 6395TIP3   OH240675   0.511   5.552  11.154 -0.2612 -0.2299 -0.3352
 6395TIP3    H140676   0.491   5.589  11.068 -0.0677  0.9563  0.1117
 6395TIP3    H240677   0.606   5.543  11.155 -0.3404 -1.2795 -0.6342
 6396TIP3   OH240678   3.084   1.798   2.620  0.0086 -0.1558  0.4016
 6396TIP3    H140679   2.998   1.764   2.596  0.7228 -1.4710 -0.4071
 6396TIP3    H240680   3.130   1.806   2.537  0.5787  0.8184  0.7968
 6397TIP3   OH240681   4.284   0.720  16.261 -0.3233 -0.0984  0.1373
 6397TIP3    H140682   4.217   0.776  16.300  0.6645  1.5225 -0.3692
 6397TIP3    H240683   4.242   0.635  16.251 -1.5766  0.2706  1.8511
 6398TIP3   OH240684   5.117   3.376   0.300  0.1136  0.2029  0.6408
 6398TIP3    H140685   5.142   3.297   0.252 -0.9945  0.0148  0.3402
 6398TIP3    H240686   5.043   3.349   0.355 -1.0745  1.2622 -0.3484
 6399TIP3   OH240687   6.330   1.489  11.408 -0.2736  0.0145 -0.3286
 6399TIP3    H140688   6.365   1.494  11.497 -0.3977  0.4948 -0.3042
 6399TIP3    H240689   6.384   1.423  11.365  0.0339  0.0510 -0.0049
 6400TIP3   OH240690   1.097   0.655   1.186  0.2261 -0.0008 -0.3338
 6400TIP3    H140691   1.040   0.677   1.260 -0.5337 -1.5139 -0.4225
 6400TIP3    H240692   1.141   0.737   1.165 -0.7735  0.8575  0.7331
 6401TIP3   OH240693   0.161   1.718   6.244  0.3696 -0.0267 -0.2901
 6401TIP3    H140694   0.132   1.715   6.153  1.1389 -3.4707 -0.5692
 6401TIP3    H240695   0.246   1.762   6.241  0.0251  0.6105 -1.0868
 6402TIP3   OH240696   2.139   4.523  11.440 -0.1734 -0.0131  0.2422
 6402TIP3    H140697   2.221   4.569  11.460 -0.2632  1.1760 -1.7965
 6402TIP3    H240698   2.076   4.555  11.505  0.4033  0.8399  0.3940
 6403TIP3   OH240699   1.227   3.052   6.449 -0.2228  0.1574  0.6110
 6403TIP3    H140700   1.166   3.123   6.432 -1.1110 -0.3988  1.3901
 6403TIP3    H240701   1.285   3.086   6.517 -0.8929  0.0150  1.2662
 6404TIP3   OH240702   5.400   0.325  11.099  0.3210 -0.7318 -0.2120
 6404TIP3    H140703   5.454   0.364  11.030 -1.1453  1.8012 -0.0997
 6404TIP3    H240704   5.462   0.300  11.168  1.4547  1.3781 -0.3811
 6405TIP3   OH240705   5.271   5.333  12.197  0.5993  0.4876  0.3785
 6405TIP3    H140706   5.208   5.265  12.174  3.0441 -1.4454 -1.0329
 6405TIP3    H240707   5.272   5.391  12.121  2.0023 -0.7215 -0.5856
 6406TIP3   OH240708   1.030   2.991   1.643  0.5503  0.1969 -0.2786
 6406TIP3    H140709   1.044   2.898   1.628 -0.6853 -0.1403  0.4563
 6406TIP3    H240710   1.081   3.011   1.722  0.7534  0.1181 -0.3906
 6407TIP3   OH240711   2.704   2.887   2.013  0.1978 -0.3967  0.2884
 6407TIP3    H140712   2.794   2.913   1.992 -0.2079  0.0392 -0.9836
 6407TIP3    H240713   2.709   2.792   2.024  0.9450 -0.2896  0.9718
 6408TIP3   OH240714   6.064   4.422   1.091 -0.1256  0.2263 -0.6827
 6408TIP3    H140715   6.113   4.363   1.148  0.3129  1.3764  0.1849
 6408TIP3    H240716   6.080   4.390   1.002  2.4979  0.7388 -0.4663
 6409TIP3   OH240717   2.862   4.840  14.596  0.2449  1.3387  0.3156
 6409TIP3    H140718   2.778   4.825  14.640  1.8259  1.4668  3.6653
 6409TIP3    H240719   2.889   4.753  14.566 -0.7753  1.2195 -0.3450
 6410TIP3   OH240720   6.296   6.642   1.916  0.4251 -0.4965  0.8652
 6410TIP3    H140721   6.312   6.726   1.958  0.3029  0.5960 -1.1655
 6410TIP3    H240722   6.202   6.628   1.925  0.0999  0.6146 -0.5526
 6411TIP3   OH240723   1.108   4.373   0.436 -0.1670 -0.3312 -0.1335
 6411TIP3    H140724   1.134   4.292   0.480 -0.2238 -0.6020 -0.5912
 6411TIP3    H240725   1.139   4.362   0.346 -1.4407 -0.4728 -0.5802
 6412TIP3   OH240726   6.815   1.243   3.203 -0.1449 -0.1501  0.1479
 6412TIP3    H140727   6.844   1.173   3.261  0.3064  0.4775  0.6929
 6412TIP3    H240728   6.729   1.214   3.171 -0.4766 -0.4401  1.2538
 6413TIP3   OH240729   1.737   3.137  10.664 -0.8287  0.4043  0.5401
 6413TIP3    H140730   1.776   3.194  10.730  0.1575  0.3997 -0.0084
 6413TIP3    H240731   1.804   3.072  10.646 -1.8287 -0.7728  0.9315
 6414TIP3   OH240732   5.019   1.194   1.587  0.8614 -0.5883  0.0334
 6414TIP3    H140733   4.945   1.253   1.574  1.1036 -0.4387 -0.7455
 6414TIP3    H240734   5.074   1.238   1.651 -0.2563 -1.2141  1.4666
 6415TIP3   OH240735   1.265   5.457   5.467  0.3559  0.4467  0.7780
 6415TIP3    H140736   1.313   5.500   5.538 -0.9289  1.8164  0.8548
 6415TIP3    H240737   1.178   5.496   5.469  0.0233 -0.1112 -1.0060
 6416TIP3   OH240738   5.849   3.602  15.130 -0.0575  0.2668 -0.3318
 6416TIP3    H140739   5.866   3.681  15.181  0.8075 -1.0738  1.5875
 6416TIP3    H240740   5.934   3.559  15.124 -0.2555  0.0673 -2.4698
 6417TIP3   OH240741   4.708   2.743  13.351 -0.2624 -0.3813  0.1774
 6417TIP3    H140742   4.775   2.725  13.416  1.4403  0.4928 -1.2672
 6417TIP3    H240743   4.700   2.662  13.301 -0.5118 -0.5781  0.5324
 6418TIP3   OH240744   2.986   0.597  16.800 -0.3366 -0.1276 -0.4297
 6418TIP3    H140745   2.922   0.533  16.830  0.1936  0.2066  1.5648
 6418TIP3    H240746   2.982   0.592  16.704 -2.7543 -0.6611 -0.3698
 6419TIP3   OH240747   3.474   5.188  16.113  0.5978 -0.4042  0.4419
 6419TIP3    H140748   3.485   5.119  16.047 -0.2086 -1.9697  1.8848
 6419TIP3    H240749   3.405   5.244  16.078 -0.9047 -2.0734  0.5802
 6420TIP3   OH240750   5.816   5.395   3.851  0.2586 -0.0383 -0.5825
 6420TIP3    H140751   5.770   5.475   3.877  0.5133 -0.1179  0.1245
 6420TIP3    H240752   5.747   5.329   3.843  0.1381  0.0691 -0.4290
 6421TIP3   OH240753   2.092   5.924  10.978  0.0432  0.0073  0.1002
 6421TIP3    H140754   1.999   5.946  10.977  0.0009 -0.1896 -0.3460
 6421TIP3    H240755   2.136   6.009  10.986 -0.2093 -0.0168  3.4185
 6422TIP3   OH240756   1.724   4.004  11.142  0.2797  0.3296 -0.3476
 6422TIP3    H140757   1.673   4.036  11.068 -1.0318 -0.8830 -0.0333
 6422TIP3    H240758   1.793   3.951  11.103  1.1871  1.7696 -0.7731
 6423TIP3   OH240759   0.440   6.241   0.359  0.4326  0.3783 -0.4237
 6423TIP3    H140760   0.522   6.217   0.317  0.4619 -0.6468  0.1906
 6423TIP3    H240761   0.465   6.274   0.445  0.3089  1.6678 -0.8571
 6424TIP3   OH240762   3.977   4.769  11.842  0.2506 -0.0713 -0.8860
 6424TIP3    H140763   4.043   4.701  11.853 -0.6673 -0.7435  0.7613
 6424TIP3    H240764   3.954   4.765  11.749  1.0086 -1.2519 -1.0447
 6425TIP3   OH240765   1.628   2.864   1.929 -0.2820 -0.1533 -0.0777
 6425TIP3    H140766   1.700   2.805   1.907 -0.1096 -0.1493  0.4635
 6425TIP3    H240767   1.657   2.950   1.898 -0.2606 -0.2368 -0.2908
 6426TIP3   OH240768   3.650   4.512   4.821  0.1570 -0.0790  0.1127
 6426TIP3    H140769   3.697   4.462   4.888  0.4888 -0.3159 -0.2833
 6426TIP3    H240770   3.559   4.511   4.849  0.4048  0.4669  0.9434
 6427TIP3   OH240771   3.127   3.960  16.888  0.2525  0.7025 -0.1422
 6427TIP3    H140772   3.180   3.906  16.946  0.9415  0.6801 -0.7853
 6427TIP3    H240773   3.127   3.914  16.804  0.6293  1.5486 -0.6220
 6428TIP3   OH240774   6.499   3.960   0.689  0.1248 -0.0879  0.6464
 6428TIP3    H140775   6.473   3.946   0.780 -1.4946  1.3246  0.4400
 6428TIP3    H240776   6.514   4.054   0.681  1.6378 -0.3649 -0.2275
 6429TIP3   OH240777   5.252   2.784  15.967  0.3678 -0.0599  0.4686
 6429TIP3    H140778   5.169   2.797  15.921  0.3184 -0.3440  0.4785
 6429TIP3    H240779   5.227   2.751  16.054  0.3418  2.2340  1.4197
 6430TIP3   OH240780   4.430   0.095  15.654 -0.5463  0.0763  0.3418
 6430TIP3    H140781   4.500   0.119  15.593 -1.6890  0.2493 -0.9633
 6430TIP3    H240782   4.393   0.015  15.616 -2.3146  1.0559 -0.1110
 6431TIP3   OH240783   3.903   1.977   1.859 -0.1162  0.4274  0.1777
 6431TIP3    H140784   3.916   1.980   1.764 -2.7038 -1.1500 -0.3049
 6431TIP3    H240785   3.989   1.952   1.894  0.6867  0.2381 -1.7955
 6432TIP3   OH240786   2.937   4.326  15.867  0.2620 -0.8005  0.2118
 6432TIP3    H140787   3.005   4.281  15.817 -0.2373  0.0630 -1.2988
 6432TIP3    H240788   2.985   4.382  15.929  0.8776 -2.2453  1.0800
 6433TIP3   OH240789   5.522   3.688   0.105  0.1434  0.1824 -0.9062
 6433TIP3    H140790   5.454   3.625   0.129  0.1046 -0.8370 -3.3950
 6433TIP3    H240791   5.601   3.636   0.096  0.7207  0.9585 -0.4740
 6434TIP3   OH240792   2.787   5.226  12.634  0.1698 -0.2961 -0.0022
 6434TIP3    H140793   2.754   5.289  12.697 -0.4051 -1.4156  0.8456
 6434TIP3    H240794   2.718   5.160  12.627  0.6167 -0.6701 -1.1145
 6435TIP3   OH240795   2.139   6.376  14.279  0.1779  0.0093  0.2671
 6435TIP3    H140796   2.215   6.339  14.324  0.9263 -0.8739 -1.6300
 6435TIP3    H240797   2.152   6.354  14.187 -1.4933  1.3968 -0.3626
 6436TIP3   OH240798   2.128   5.367  15.493  0.0447  0.7150  0.2433
 6436TIP3    H140799   2.086   5.382  15.578 -1.2566 -0.4827 -0.1402
 6436TIP3    H240800   2.055   5.357  15.432  0.9416  0.6464 -0.8486
 6437TIP3   OH240801   0.443   5.019  10.612 -0.4663 -0.0066 -0.6512
 6437TIP3    H140802   0.467   5.077  10.539  3.5687 -0.5287 -0.0011
 6437TIP3    H240803   0.457   5.073  10.690 -0.7673 -0.6299 -0.1590
 6438TIP3   OH240804   4.587   0.902  14.616  0.2747  0.4164  0.0358
 6438TIP3    H140805   4.520   0.834  14.623  0.7136  0.0079  0.2968
 6438TIP3    H240806   4.539   0.985  14.628  0.0315  0.0702  1.7387
 6439TIP3   OH240807   2.130   3.680   4.980  0.0499  0.3652  0.4215
 6439TIP3    H140808   2.143   3.768   4.945 -0.6248  0.4091  0.2502
 6439TIP3    H240809   2.050   3.649   4.936 -0.0418 -0.1028  0.9089
 6440TIP3   OH240810   0.750   0.881   3.758 -0.2434 -0.5868 -0.0558
 6440TIP3    H140811   0.763   0.966   3.714 -0.8900 -1.3377 -1.7886
 6440TIP3    H240812   0.676   0.896   3.817 -0.6900 -0.0620 -0.7249
 6441TIP3   OH240813   6.430   4.640   5.874  0.0576  0.2016 -0.4088
 6441TIP3    H140814   6.339   4.621   5.898  0.9699 -1.3814  2.2188
 6441TIP3    H240815   6.455   4.712   5.933  0.5584  0.5449 -1.0315
 6442TIP3   OH240816   2.294   6.441  15.653 -0.0528 -0.1346 -0.0324
 6442TIP3    H140817   2.299   6.419  15.746  2.3601 -0.5398 -0.1893
 6442TIP3    H240818   2.222   6.388  15.619 -0.0882 -1.0220  1.3525
 6443TIP3   OH240819   4.283   6.100  13.070 -0.7534  0.3149 -0.7282
 6443TIP3    H140820   4.357   6.044  13.047 -1.1193  0.1074 -1.4385
 6443TIP3    H240821   4.210   6.039  13.083 -0.4571  0.3660  1.5820
 6444TIP3   OH240822   0.678   4.696  12.983  0.1315  0.0397 -0.2792
 6444TIP3    H140823   0.760   4.698  13.034  0.2243 -0.3259 -0.4120
 6444TIP3    H240824   0.643   4.785  12.991  0.5437  0.2005 -0.2223
 6445TIP3   OH240825   0.410   0.111  11.779 -0.2643 -0.2333  0.2341
 6445TIP3    H140826   0.433   0.156  11.698 -1.2141 -1.1187 -0.5571
 6445TIP3    H240827   0.315   0.117  11.784 -0.1067  2.0502  2.6499
 6446TIP3   OH240828   1.963   1.090   0.219  0.7310  0.2327 -0.3608
 6446TIP3    H140829   1.902   1.154   0.256  0.3212 -1.0120  1.2763
 6446TIP3    H240830   2.018   1.140   0.159 -2.5543  1.2492 -2.8309
 6447TIP3   OH240831   3.450   0.924  15.675 -0.0154 -0.0335 -0.0448
 6447TIP3    H140832   3.381   0.894  15.735  0.0739 -2.2902 -0.9551
 6447TIP3    H240833   3.427   0.885  15.591  1.7273  0.1551 -0.6483
 6448TIP3   OH240834   2.928   5.608   1.302  0.1863 -0.0272  0.4872
 6448TIP3    H140835   2.915   5.647   1.389 -0.4847 -0.5673  0.6414
 6448TIP3    H240836   2.963   5.679   1.249 -1.1429  0.8547  0.7221
 6449TIP3   OH240837   3.016   1.194  13.089 -0.0237 -0.6315  0.4393
 6449TIP3    H140838   2.992   1.277  13.131  0.9766 -0.1312  0.0425
 6449TIP3    H240839   3.033   1.134  13.161  0.1011 -0.2433  0.7308
 6450TIP3   OH240840   1.490   1.409  16.852 -0.2035  0.5801 -0.0332
 6450TIP3    H140841   1.477   1.329  16.902 -2.0881  0.2280 -0.9905
 6450TIP3    H240842   1.557   1.457  16.900 -0.0818 -0.9051  1.3584
 6451TIP3   OH240843   3.875   1.375  13.507  0.3151 -0.0206  0.0346
 6451TIP3    H140844   3.869   1.332  13.422 -0.1188  0.6563 -0.2926
 6451TIP3    H240845   3.941   1.443  13.495  0.4985 -0.1424  0.3400
 6452TIP3   OH240846   1.390   3.163   6.620 -0.3643 -0.3406  0.2761
 6452TIP3    H140847   1.428   3.193   6.538  0.8502 -1.7074  0.2873
 6452TIP3    H240848   1.429   3.219   6.687 -1.3938  0.8062 -0.0562
 6453TIP3   OH240849   4.806   4.107   1.722 -0.4914  0.0597  0.2165
 6453TIP3    H140850   4.750   4.109   1.644 -1.5240 -0.0501  0.9367
 6453TIP3    H240851   4.875   4.045   1.700  0.1332  1.2002 -1.1941
 6454TIP3   OH240852   2.879   4.816  10.574  0.6075  0.0029  0.2317
 6454TIP3    H140853   2.787   4.791  10.581  0.9863 -1.0791  1.8157
 6454TIP3    H240854   2.905   4.785  10.487 -0.7391  1.2440 -0.6757
 6455TIP3   OH240855   4.234   3.030   2.772  0.5790 -0.1602 -0.6060
 6455TIP3    H140856   4.197   3.008   2.686  0.5815 -0.4877 -0.5251
 6455TIP3    H240857   4.202   3.118   2.790 -0.1256 -0.4252 -0.5508
 6456TIP3   OH240858   5.378   5.940   4.150 -0.3353 -0.0594  0.4427
 6456TIP3    H140859   5.374   6.003   4.078 -2.3259  0.3619  0.8729
 6456TIP3    H240860   5.353   5.857   4.110  2.0021 -0.5860 -0.0599
 6457TIP3   OH240861   1.528   0.820   0.174  0.3704  0.0650  0.0385
 6457TIP3    H140862   1.588   0.893   0.190  0.8608 -0.1492 -0.7521
 6457TIP3    H240863   1.577   0.761   0.117  0.4183 -1.4658  1.5653
 6458TIP3   OH240864   0.032   1.221  12.627 -0.0609 -0.0285 -0.6554
 6458TIP3    H140865  -0.044   1.267  12.662  2.0227  1.3590  2.4674
 6458TIP3    H240866   0.028   1.134  12.667  2.2182  1.4920  3.4751
 6459TIP3   OH240867   2.574   4.334   5.551  0.4437  0.4761 -0.5565
 6459TIP3    H140868   2.562   4.368   5.462 -0.1915  0.5811 -0.4330
 6459TIP3    H240869   2.486   4.317   5.582  0.3806  3.2145  1.1470
 6460TIP3   OH240870   5.994   5.695   1.067 -0.2831  0.3891  0.3676
 6460TIP3    H140871   5.989   5.604   1.097  0.3239  0.5673  1.0241
 6460TIP3    H240872   6.083   5.722   1.088 -0.7158  1.4037  0.9495
 6461TIP3   OH240873   6.715   1.866  13.388 -0.2281 -0.1266  0.0938
 6461TIP3    H140874   6.708   1.875  13.293  0.8036 -1.8089 -0.1886
 6461TIP3    H240875   6.751   1.778  13.401 -0.0952  0.1735  2.0358
 6462TIP3   OH240876   4.997   2.285   3.294  0.1729 -0.2127  0.5736
 6462TIP3    H140877   5.010   2.298   3.387  0.1766 -0.0186  0.5455
 6462TIP3    H240878   5.015   2.191   3.280 -1.3846 -0.6051  1.0314
 6463TIP3   OH240879   1.673   6.327   6.522 -0.0986 -0.2038 -0.3308
 6463TIP3    H140880   1.628   6.264   6.579 -0.2358 -0.9636 -1.2419
 6463TIP3    H240881   1.766   6.310   6.536 -0.1114  0.3129  0.4154
 6464TIP3   OH240882   5.983   6.424  16.875 -0.4049  0.3184 -0.2110
 6464TIP3    H140883   5.986   6.424  16.970 -0.9866  0.8854 -0.1840
 6464TIP3    H240884   6.072   6.403  16.848  0.3995  2.5308  0.4674
 6465TIP3   OH240885   1.240   1.356   2.649 -0.5241  0.9888  0.2935
 6465TIP3    H140886   1.275   1.422   2.709  0.3570  1.4018 -0.6509
 6465TIP3    H240887   1.309   1.290   2.642 -0.5699  1.0025 -0.3446
 6466TIP3   OH240888   2.389   5.177   1.192 -0.6279  0.0185  0.0353
 6466TIP3    H140889   2.354   5.197   1.278 -1.2624 -0.6065 -0.0673
 6466TIP3    H240890   2.353   5.245   1.134 -1.7900 -0.6741 -0.0898
 6467TIP3   OH240891   2.187   4.768   2.393  0.1550 -0.6323 -0.1120
 6467TIP3    H140892   2.181   4.766   2.489 -0.6867  0.8813 -0.0999
 6467TIP3    H240893   2.106   4.727   2.363 -0.1786  0.0668 -0.1652
 6468TIP3   OH240894   6.556   6.710   6.247  0.1632 -0.2205  0.1737
 6468TIP3    H140895   6.476   6.657   6.247 -0.3124  0.4808 -0.0003
 6468TIP3    H240896   6.527   6.797   6.221  1.0924 -0.1076 -0.5368
 6469TIP3   OH240897   3.271   5.242   3.591 -0.0170  0.4122  0.1461
 6469TIP3    H140898   3.342   5.178   3.580  0.6654  0.8542  1.6858
 6469TIP3    H240899   3.315   5.327   3.586 -0.7186  0.7462 -0.5359
 6470TIP3   OH240900   5.860   4.814  12.877  0.4857  0.1387 -0.2846
 6470TIP3    H140901   5.802   4.810  12.801  0.4067 -0.4205 -0.2018
 6470TIP3    H240902   5.871   4.907  12.895  1.6290  0.3524 -1.8535
 6471TIP3   OH240903   6.325   3.175  15.148 -0.1615 -0.3556 -0.0523
 6471TIP3    H140904   6.333   3.130  15.064 -0.1170 -0.0977 -0.1886
 6471TIP3    H240905   6.236   3.209  15.149  0.1301  0.4325 -0.4016
 6472TIP3   OH240906   2.198   3.212  13.810  0.0942  0.8357  0.3875
 6472TIP3    H140907   2.229   3.294  13.850  0.6336  0.8217  0.0042
 6472TIP3    H240908   2.257   3.145  13.844 -0.1272  0.6549  0.4198
 6473TIP3   OH240909   6.759   1.908   4.189  0.4296  0.3280  0.2473
 6473TIP3    H140910   6.796   1.972   4.128 -1.1817 -2.6499 -4.4661
 6473TIP3    H240911   6.672   1.943   4.209  0.5476  0.8459 -0.1133
 6474TIP3   OH240912   6.789   1.230   6.261 -0.1612 -0.8100  0.2873
 6474TIP3    H140913   6.859   1.256   6.200 -0.5192  0.6127  0.4349
 6474TIP3    H240914   6.824   1.254   6.348 -1.3033  1.1495  0.2597
 6475TIP3   OH240915   5.830   1.606   2.856  0.3943  0.6804 -0.1999
 6475TIP3    H140916   5.796   1.682   2.903 -0.2796  0.1417  0.1920
 6475TIP3    H240917   5.905   1.577   2.908 -1.3690 -0.9672  1.5692
 6476TIP3   OH240918   5.617   1.041   2.929  0.0811  0.5259  0.2069
 6476TIP3    H140919   5.545   1.027   2.991 -1.0798  1.8587 -0.7635
 6476TIP3    H240920   5.657   1.124   2.957  0.4968  0.3752  0.0622
 6477TIP3   OH240921   2.133   4.341  13.248 -0.5423  0.0988 -0.2345
 6477TIP3    H140922   2.124   4.355  13.154  1.9639 -0.3398 -0.5981
 6477TIP3    H240923   2.079   4.410  13.288 -2.5099 -0.3634 -1.9220
 6478TIP3   OH240924   2.635   0.969   1.955 -0.6054 -0.0904  0.2502
 6478TIP3    H140925   2.618   1.057   1.988  1.3794  0.1069  0.8929
 6478TIP3    H240926   2.660   0.919   2.033  1.7376 -0.2609 -0.5157
 6479TIP3   OH240927   4.017   3.682   4.629 -0.5263  0.1347  0.2726
 6479TIP3    H140928   4.006   3.587   4.628  0.6442 -0.0712  2.4090
 6479TIP3    H240929   3.934   3.715   4.665 -0.2964 -0.2283  1.1689
 6480TIP3   OH240930   1.618   1.548  13.295 -0.4467 -0.2663  0.3568
 6480TIP3    H140931   1.600   1.615  13.228  1.0676 -1.1959 -1.0602
 6480TIP3    H240932   1.672   1.593  13.360 -1.0801  0.3798  0.4597
 6481TIP3   OH240933   6.592   0.125   4.695  0.0464  0.3360 -0.1048
 6481TIP3    H140934   6.536   0.048   4.684  0.4007 -0.4056  2.6287
 6481TIP3    H240935   6.671   0.091   4.739  0.4944  2.1495  0.5645
 6482TIP3   OH240936   5.418   1.931  14.344 -0.0547  0.0824 -0.1826
 6482TIP3    H140937   5.387   1.841  14.360 -1.9574  0.4085 -1.6236
 6482TIP3    H240938   5.446   1.930  14.253  0.4719  0.8117 -0.0275
 6483TIP3   OH240939   3.174   5.805  10.604  0.4044 -0.1619  0.7476
 6483TIP3    H140940   3.255   5.782  10.559  0.2991 -0.1800  0.5646
 6483TIP3    H240941   3.194   5.888  10.648  0.0506  0.6951 -0.6227
 6484TIP3   OH240942   2.414   4.386   0.437 -0.5849  0.1670  0.2462
 6484TIP3    H140943   2.320   4.399   0.426 -0.3369  0.9406 -1.3635
 6484TIP3    H240944   2.447   4.471   0.466 -0.0496  0.8392 -2.0825
 6485TIP3   OH240945   3.392   4.597  14.885 -0.1178 -0.3048 -0.2165
 6485TIP3    H140946   3.465   4.537  14.903  0.7587  1.0660  1.0286
 6485TIP3    H240947   3.370   4.634  14.970 -1.1140  0.5981 -0.8416
 6486TIP3   OH240948   5.702   2.138  13.890  0.2838  0.1095 -0.0925
 6486TIP3    H140949   5.726   2.130  13.798  0.1225  1.4582 -0.2768
 6486TIP3    H240950   5.732   2.057  13.930  1.3453 -0.0334 -1.1313
 6487TIP3   OH240951   3.026   6.524  13.584 -0.0091 -0.1986 -0.0680
 6487TIP3    H140952   3.060   6.606  13.618 -1.2384  1.0121 -1.6397
 6487TIP3    H240953   3.103   6.467  13.578  0.7748  0.6137  1.5346
 6488TIP3   OH240954   4.333   2.058   1.263 -0.0652  0.4207  0.1424
 6488TIP3    H140955   4.397   2.052   1.192  0.0303 -0.4344  0.2884
 6488TIP3    H240956   4.374   2.117   1.327  0.9913 -0.7909  0.6325
 6489TIP3   OH240957   5.104   5.133  11.032 -0.6548 -0.6458  0.0470
 6489TIP3    H140958   5.129   5.202  10.970  2.4811 -1.3648  0.3666
 6489TIP3    H240959   5.076   5.060  10.976 -1.4618 -0.0510 -0.3560
 6490TIP3   OH240960   5.488   6.131  16.457  0.1106 -0.1878 -0.1266
 6490TIP3    H140961   5.500   6.069  16.528 -2.4323 -0.4282  0.2031
 6490TIP3    H240962   5.573   6.174  16.447  0.6164 -0.2485  2.9374
 6491TIP3   OH240963   0.412   2.984   2.438 -0.1642 -0.1372  0.0827
 6491TIP3    H140964   0.367   3.067   2.424  0.3244  0.7499  3.0545
 6491TIP3    H240965   0.388   2.958   2.527  0.6961 -2.5708 -0.3188
 6492TIP3   OH240966   6.809   5.175  11.869  0.1557  0.2735  0.7053
 6492TIP3    H140967   6.844   5.090  11.898  2.5972  1.2452  0.8351
 6492TIP3    H240968   6.735   5.152  11.813  0.1535 -1.8972  1.4918
 6493TIP3   OH240969   4.836   3.531   4.399  0.0368 -0.0364 -0.5011
 6493TIP3    H140970   4.927   3.518   4.428  0.3264 -0.2580 -1.4656
 6493TIP3    H240971   4.831   3.624   4.378  0.3449 -0.2119 -1.4029
 6494TIP3   OH240972   5.352   4.656   0.301  0.2371  0.2960 -0.5109
 6494TIP3    H140973   5.417   4.714   0.340 -1.9693  1.4748  1.7280
 6494TIP3    H240974   5.336   4.589   0.368 -1.4609  0.5975 -0.5597
 6495TIP3   OH240975   6.168   2.896  11.410  0.2174  0.8689  0.4150
 6495TIP3    H140976   6.108   2.834  11.452  0.0650  0.5331 -0.2781
 6495TIP3    H240977   6.131   2.910  11.323  0.1745  2.0619  0.6051
 6496TIP3   OH240978   3.815   1.393  16.550 -0.2670 -0.1887  0.0834
 6496TIP3    H140979   3.735   1.346  16.571 -1.0486  0.8304 -0.5074
 6496TIP3    H240980   3.792   1.446  16.474  0.2252  1.9958  1.3764
 6497TIP3   OH240981   4.501   3.193   5.599 -0.1310  0.0153 -0.2682
 6497TIP3    H140982   4.464   3.281   5.593  0.1042  0.1808  0.5902
 6497TIP3    H240983   4.566   3.199   5.669 -0.7656 -1.0593  0.4455
 6498TIP3   OH240984   3.533   0.562   4.004  0.5519  0.3162  0.1090
 6498TIP3    H140985   3.507   0.625   4.070 -1.5104  0.9766 -1.2304
 6498TIP3    H240986   3.537   0.613   3.923 -0.3653 -1.0629 -0.8554
 6499TIP3   OH240987   2.651   3.321  15.176  0.1460 -0.0189  0.7061
 6499TIP3    H140988   2.630   3.237  15.216  1.5107 -0.4125  0.6443
 6499TIP3    H240989   2.650   3.384  15.249 -2.6780  0.3189  0.4936
 6500TIP3   OH240990   6.479   1.730  12.742 -0.1776  0.5969 -0.1881
 6500TIP3    H140991   6.573   1.746  12.753  0.3145  0.8833 -3.7220
 6500TIP3    H240992   6.437   1.804  12.786  1.1346  0.2486  1.8188
 6501TIP3   OH240993   3.213   2.073   2.158  0.2287 -0.3261  0.0444
 6501TIP3    H140994   3.195   1.996   2.105  1.4271 -0.9797  0.5562
 6501TIP3    H240995   3.238   2.140   2.095 -0.0185 -0.5963 -0.3446
 6502TIP3   OH240996   0.753   0.634  15.673 -0.2559  0.5685 -0.0074
 6502TIP3    H140997   0.697   0.666  15.744  1.0629  1.2752  0.7369
 6502TIP3    H240998   0.753   0.539  15.683 -1.6279  0.5161 -0.2720
 6503TIP3   OH240999   0.432   1.958  10.700  0.2682  0.0063  0.6040
 6503TIP3    H141000   0.407   1.992  10.614  0.9353  0.3575  0.5494
 6503TIP3    H241001   0.471   1.872  10.681  0.5360  0.1407  0.5417
 6504TIP3   OH241002   5.910   4.400  16.283  0.6257 -0.0757  0.0638
 6504TIP3    H141003   5.837   4.427  16.340 -0.8188 -1.2738 -1.1400
 6504TIP3    H241004   5.872   4.336  16.223  2.3062  0.4222 -1.6571
 6505TIP3   OH241005   1.982   6.272  16.104  0.3243 -0.3555 -0.6893
 6505TIP3    H141006   2.018   6.361  16.104 -2.6120  0.9490 -0.8936
 6505TIP3    H241007   2.034   6.226  16.038  1.2990  1.4839 -1.3011
 6506TIP3   OH241008   5.058   2.689  11.790 -0.5162 -0.8940  0.0333
 6506TIP3    H141009   4.976   2.640  11.790  0.1273 -2.0761 -1.9536
 6506TIP3    H241010   5.059   2.734  11.875 -2.7546 -1.5831  0.4910
 6507TIP3   OH241011   1.559   1.107  14.266 -0.6595 -0.3581  0.4816
 6507TIP3    H141012   1.499   1.165  14.313  1.3991  1.8545  0.5627
 6507TIP3    H241013   1.636   1.101  14.323  0.3508 -0.7651 -0.8735
 6508TIP3   OH241014   1.147   1.021  14.475 -0.2491  0.3405 -0.0412
 6508TIP3    H141015   1.101   0.951  14.430 -0.3281 -0.9175  1.8483
 6508TIP3    H241016   1.190   0.977  14.549  2.5128  1.7406 -0.6852
 6509TIP3   OH241017   5.881   6.127   5.209 -0.8758  0.6333  0.6286
 6509TIP3    H141018   5.889   6.112   5.303 -1.4818  0.7074  0.6906
 6509TIP3    H241019   5.946   6.067   5.170 -0.9436  0.2729  1.0640
 6510TIP3   OH241020   5.652   0.984   2.459  0.2627  0.1583  0.0777
 6510TIP3    H141021   5.744   0.986   2.434  0.8281 -0.7573  1.8962
 6510TIP3    H241022   5.645   0.909   2.518 -1.1743  1.5005  1.7286
 6511TIP3   OH241023   1.862   1.184   4.584  0.0044 -0.5161  0.0315
 6511TIP3    H141024   1.852   1.262   4.529 -0.4795 -0.2982  0.4192
 6511TIP3    H241025   1.777   1.139   4.577  0.3968 -1.2023 -0.4774
 6512TIP3   OH241026   4.443   1.624   5.116 -0.0226  0.2304  0.8743
 6512TIP3    H141027   4.400   1.631   5.202  2.1730  1.7517  1.9477
 6512TIP3    H241028   4.397   1.688   5.061 -0.2663  0.5790  1.4696
 6513TIP3   OH241029   1.532   1.196  16.464  0.1733 -0.6539 -0.3951
 6513TIP3    H141030   1.507   1.216  16.374 -1.5665  0.0537  0.1962
 6513TIP3    H241031   1.545   1.282  16.505 -1.6424 -0.8083  0.6560
 6514TIP3   OH241032   3.111   3.093  14.754  0.5191 -0.1548  0.3140
 6514TIP3    H141033   3.061   3.091  14.673  1.5153 -0.0344 -0.3244
 6514TIP3    H241034   3.051   3.060  14.820 -0.6607  0.7788 -0.2636
 6515TIP3   OH241035   2.370   4.181   2.105  0.0189  0.1672 -0.1406
 6515TIP3    H141036   2.379   4.127   2.183 -1.9716  1.3463  0.9765
 6515TIP3    H241037   2.280   4.166   2.075  0.3625  0.6565 -1.5278
 6516TIP3   OH241038   6.384   3.653  14.830 -0.0266 -0.4004  0.0883
 6516TIP3    H141039   6.453   3.674  14.768  1.1380  0.2676  1.5275
 6516TIP3    H241040   6.316   3.611  14.778  0.8301  0.2547 -1.6310
 6517TIP3   OH241041   4.060   1.527   5.694 -0.3957 -0.1277 -0.1906
 6517TIP3    H141042   4.066   1.453   5.633  2.0208 -0.9607  0.9150
 6517TIP3    H241043   4.082   1.489   5.779  2.8663  2.0962  0.1532
 6518TIP3   OH241044   2.722   1.506   2.103  0.1426 -0.0307  0.1021
 6518TIP3    H141045   2.810   1.527   2.132  0.8188  0.5446 -2.2042
 6518TIP3    H241046   2.734   1.448   2.028 -1.4072  0.3881 -0.5116
 6519TIP3   OH241047   2.408   5.855   5.443  0.2859 -0.1066 -0.6745
 6519TIP3    H141048   2.470   5.852   5.370  0.7715  0.2905 -0.2843
 6519TIP3    H241049   2.463   5.847   5.521 -0.1854 -0.0467 -0.3355
 6520TIP3   OH241050   5.162   4.243  14.023 -0.2242  0.6448 -0.1057
 6520TIP3    H141051   5.244   4.274  13.984 -0.5898  1.2280 -0.4112
 6520TIP3    H241052   5.093   4.285  13.972 -0.7763 -1.6842 -1.3953
 6521TIP3   OH241053   6.107   6.412   4.090  0.3501  0.7508 -0.0810
 6521TIP3    H141054   6.190   6.460   4.095  1.8227 -1.4339 -1.5699
 6521TIP3    H241055   6.106   6.375   4.001 -1.8884  0.0974  0.1506
 6522TIP3   OH241056   6.243   1.068  15.654 -0.5600  0.3718  0.3063
 6522TIP3    H141057   6.333   1.036  15.660 -0.3213  1.2197  2.0545
 6522TIP3    H241058   6.211   1.066  15.744 -4.0789 -4.5851 -0.6313
 6523TIP3   OH241059   3.440   4.323   5.984 -0.4519 -0.6870  0.1255
 6523TIP3    H141060   3.377   4.374   6.036  1.2945  1.5788  0.1552
 6523TIP3    H241061   3.428   4.355   5.895  0.5139 -0.3578  0.1085
 6524TIP3   OH241062   5.165   5.599  11.704  0.0191  0.2589  0.0672
 6524TIP3    H141063   5.160   5.635  11.615  1.0953 -2.2480 -1.1105
 6524TIP3    H241064   5.258   5.580  11.717 -0.3125 -0.7562  1.1479
 6525TIP3   OH241065   1.768   6.629   1.612  0.5191  0.5718  0.3530
 6525TIP3    H141066   1.746   6.569   1.541  0.0382  1.2161 -0.0518
 6525TIP3    H241067   1.861   6.616   1.627  0.3857 -0.3827  0.3720
 6526TIP3   OH241068   0.852   5.955   3.167 -0.1005  0.0690 -0.6654
 6526TIP3    H141069   0.855   6.048   3.145  0.6360  0.4561  0.9433
 6526TIP3    H241070   0.769   5.925   3.131 -1.0494  1.6874  0.0693
 6527TIP3   OH241071   4.882   4.922   0.973 -0.0669 -0.2178 -0.0049
 6527TIP3    H141072   4.923   4.971   1.045  1.0276  0.2853 -0.9415
 6527TIP3    H241073   4.788   4.928   0.991  0.1895 -2.7060  3.0686
 6528TIP3   OH241074   3.111   1.079  15.704  0.3044  0.5758 -0.0603
 6528TIP3    H141075   3.094   1.170  15.727 -0.1120  0.4649  0.0773
 6528TIP3    H241076   3.124   1.080  15.609 -0.1152  0.7140 -0.1165
 6529TIP3   OH241077   0.952   3.785  16.074  0.0899 -0.2013  0.1176
 6529TIP3    H141078   0.919   3.860  16.024  0.1571  0.7538  1.4495
 6529TIP3    H241079   1.009   3.739  16.013 -2.3361 -0.9687 -1.7537
 6530TIP3   OH241080   1.081   2.184  14.900 -0.1409 -0.0505 -0.2705
 6530TIP3    H141081   1.091   2.200  14.994 -0.5185 -0.3383 -0.1799
 6530TIP3    H241082   1.160   2.136  14.875  0.3209  0.6916 -0.2564
 6531TIP3   OH241083   2.352   4.889  13.039 -0.3568 -0.2927 -0.1152
 6531TIP3    H141084   2.333   4.981  13.021 -1.8353 -0.6441 -0.4842
 6531TIP3    H241085   2.391   4.889  13.126 -0.8748  0.6321  0.1263
 6532TIP3   OH241086   3.227   3.693  11.774  0.5486 -0.3928 -0.2066
 6532TIP3    H141087   3.169   3.710  11.849 -0.8805 -2.3643 -0.8101
 6532TIP3    H241088   3.256   3.780  11.747 -1.6434  0.6302  0.5090
 6533TIP3   OH241089   2.160   4.404   5.433  0.4298 -0.2539 -0.0669
 6533TIP3    H141090   2.170   4.477   5.372  0.6098 -1.1990 -1.1991
 6533TIP3    H241091   2.172   4.444   5.520  0.6699  1.0252 -0.6580
 6534TIP3   OH241092   5.419   2.163  17.044  0.3587  0.6130 -0.2428
 6534TIP3    H141093   5.376   2.082  17.070 -0.7673  0.9849 -0.8985
 6534TIP3    H241094   5.441   2.206  17.127  0.3961 -0.0593  0.0999
 6535TIP3   OH241095   5.048   2.418   5.258  0.1146  0.2977  0.6632
 6535TIP3    H141096   4.955   2.410   5.238  0.0812 -0.6086  1.1502
 6535TIP3    H241097   5.069   2.509   5.236 -0.7146  0.3189 -0.1327
 6536TIP3   OH241098   6.359   5.076  16.282  0.2717 -0.0868 -0.0477
 6536TIP3    H141099   6.408   5.085  16.201  0.5379  1.1300  0.2173
 6536TIP3    H241100   6.276   5.121  16.265  0.5361  0.6285  0.5044
 6537TIP3   OH241101   0.163   0.499  12.693  0.5524 -0.0074  0.1471
 6537TIP3    H141102   0.093   0.518  12.756  1.2201  1.0577  0.5973
 6537TIP3    H241103   0.128   0.527  12.609 -1.3576 -3.7400 -0.5241
 6538TIP3   OH241104   1.772   2.222   5.124 -0.0377 -0.2789  0.0463
 6538TIP3    H141105   1.719   2.188   5.197  0.2792 -1.3861 -0.2107
 6538TIP3    H241106   1.850   2.258   5.166  0.2424 -1.1029  0.2643
 6539TIP3   OH241107   3.479   0.289   4.065  0.0204 -0.1625  0.3373
 6539TIP3    H141108   3.493   0.382   4.049 -1.8223  0.0695 -0.1615
 6539TIP3    H241109   3.459   0.283   4.159  0.0593 -0.0564  0.3524
 6540TIP3   OH241110   5.669   2.949   3.457  0.0942  0.1499  0.0792
 6540TIP3    H141111   5.721   3.013   3.505  1.2318  1.1273 -2.2913
 6540TIP3    H241112   5.715   2.866   3.470  0.2590  0.3514  0.8153
 6541TIP3   OH241113   0.800   0.612   5.407  0.3812  0.7036 -0.2431
 6541TIP3    H141114   0.786   0.575   5.494  2.3571  0.4918  0.0472
 6541TIP3    H241115   0.714   0.612   5.366 -0.3939 -0.2484  1.3047
 6542TIP3   OH241116   4.620   5.627   2.863 -0.4035 -0.0064 -0.1267
 6542TIP3    H141117   4.690   5.692   2.853 -1.3812  1.0721 -0.1214
 6542TIP3    H241118   4.664   5.543   2.852  1.2455  0.5355  1.6783
 6543TIP3   OH241119   4.931   3.911   5.691 -0.2161  0.1046 -0.0865
 6543TIP3    H141120   4.906   3.821   5.673  0.7123 -0.3579  0.8731
 6543TIP3    H241121   4.916   3.923   5.785  0.8408  0.5460  0.0438
 6544TIP3   OH241122   1.492   5.132   6.880  0.0046 -0.3709 -0.1175
 6544TIP3    H141123   1.562   5.110   6.941  0.3845 -2.1962 -1.1281
 6544TIP3    H241124   1.537   5.166   6.803 -0.1647 -1.5875 -0.7856
 6545TIP3   OH241125   5.755   5.712  10.790  0.0642 -0.3404 -0.0409
 6545TIP3    H141126   5.740   5.672  10.704 -1.4336  1.3105 -0.6200
 6545TIP3    H241127   5.734   5.643  10.853 -1.6903 -0.7385 -0.9952
 6546TIP3   OH241128   3.996   6.425  12.170  0.1554 -0.3961  0.3916
 6546TIP3    H141129   3.932   6.366  12.209  0.3033 -0.0965  1.1112
 6546TIP3    H241130   3.948   6.507  12.156  0.2093 -0.3733  0.3431
 6547TIP3   OH241131   3.028   5.041   1.835 -0.4191 -0.4097 -0.1720
 6547TIP3    H141132   3.109   5.070   1.877  0.6729 -0.2446 -2.2376
 6547TIP3    H241133   3.051   4.960   1.791 -1.0389  0.2106 -1.7233
 6548TIP3   OH241134   1.632   1.142   6.667  0.0249 -0.4159  0.4313
 6548TIP3    H141135   1.610   1.116   6.577  0.1208  0.1147  0.2518
 6548TIP3    H241136   1.726   1.158   6.665 -0.1348  0.5630  0.3787
 6549TIP3   OH241137   0.316   0.766   5.008 -0.0403 -0.3178  0.6664
 6549TIP3    H141138   0.221   0.768   5.000 -0.0981  3.0482  0.4225
 6549TIP3    H241139   0.347   0.728   4.926 -1.1986  0.8719 -0.3747
 6550TIP3   OH241140   2.816   4.071   0.587 -0.6456 -0.4944 -0.5450
 6550TIP3    H141141   2.891   4.064   0.646 -1.9060  0.6460  1.3037
 6550TIP3    H241142   2.796   4.164   0.584 -1.4263 -0.6655 -1.7992
 6551TIP3   OH241143   5.119   6.221   1.891  0.2132  0.3792 -0.1341
 6551TIP3    H141144   5.174   6.258   1.822 -1.0834  0.0595 -1.3802
 6551TIP3    H241145   5.031   6.253   1.872 -0.5796 -1.6137 -0.0222
 6552TIP3   OH241146   2.640   3.236  14.374  0.5659  0.7497 -0.1253
 6552TIP3    H141147   2.640   3.165  14.437  2.4505 -0.2180 -1.1143
 6552TIP3    H241148   2.590   3.306  14.416 -0.1096 -0.6302  1.4745
 6553TIP3   OH241149   1.615   0.579   5.170  0.5533 -0.2629 -0.2584
 6553TIP3    H141150   1.661   0.643   5.224  1.1628 -0.9507  0.0600
 6553TIP3    H241151   1.658   0.496   5.190 -0.1166 -0.7468 -0.7823
 6554TIP3   OH241152   1.746   4.644   6.549  0.0662 -0.5471 -0.1790
 6554TIP3    H141153   1.829   4.602   6.528 -1.2797 -2.7448 -1.4835
 6554TIP3    H241154   1.689   4.623   6.475 -1.8140  0.4395  0.9044
 6555TIP3   OH241155   3.531   5.507  15.803 -0.4077  0.2292  0.0710
 6555TIP3    H141156   3.604   5.563  15.831  0.1308 -0.1394 -0.5668
 6555TIP3    H241157   3.453   5.549  15.840 -0.1870  2.1923 -1.5402
 6556TIP3   OH241158   6.387   1.514   3.536  0.1141 -0.3008 -0.3589
 6556TIP3    H141159   6.448   1.508   3.609  0.5747  0.7201 -0.6437
 6556TIP3    H241160   6.387   1.427   3.497 -0.0476 -0.8296  0.7696
 6557TIP3   OH241161   5.148   3.095  14.530 -0.0977  0.2433  0.1910
 6557TIP3    H141162   5.059   3.064  14.513  0.1656  0.0271 -0.8779
 6557TIP3    H241163   5.201   3.054  14.461  0.4490  2.2647 -0.6596
 6558TIP3   OH241164   0.315   6.538  16.529  0.1545  0.4020  0.0818
 6558TIP3    H141165   0.354   6.548  16.442  1.4616  3.9641  0.9103
 6558TIP3    H241166   0.388   6.552  16.590 -0.9784 -0.6970  1.7947
 6559TIP3   OH241167   3.474   6.527   2.096  0.1733  0.1061  0.1268
 6559TIP3    H141168   3.485   6.436   2.071  0.4553  0.2866 -0.4121
 6559TIP3    H241169   3.450   6.572   2.015 -0.1980  0.4715  0.4322
 6560TIP3   OH241170   4.349   6.618  11.406 -0.2667 -0.1675  0.1533
 6560TIP3    H141171   4.362   6.589  11.316  0.2268 -1.4019  0.5997
 6560TIP3    H241172   4.323   6.709  11.399  0.3829 -0.0734 -1.2128
 6561TIP3   OH241173   5.316   3.874  13.298  0.5084 -0.7146  0.3364
 6561TIP3    H141174   5.260   3.797  13.301  1.1510 -1.2156 -0.1413
 6561TIP3    H241175   5.370   3.867  13.377  1.0817 -1.1698 -0.0831
 6562TIP3   OH241176   0.744   0.825   0.032  0.0773  0.1397  0.3614
 6562TIP3    H141177   0.794   0.752   0.067 -0.2734  0.1842  0.9811
 6562TIP3    H241178   0.653   0.806   0.057 -0.5269 -0.8597 -2.2997
 6563TIP3   OH241179   3.401   1.275   0.716 -0.0455 -0.1632  0.1454
 6563TIP3    H141180   3.406   1.370   0.714 -0.4964 -0.1205  0.8180
 6563TIP3    H241181   3.482   1.247   0.758 -0.4958 -0.0081  1.1306
 6564TIP3   OH241182   2.358   5.813  15.641 -0.3757 -0.3246 -0.0679
 6564TIP3    H141183   2.360   5.864  15.722 -0.1247 -0.7251  0.1830
 6564TIP3    H241184   2.418   5.859  15.582 -0.3738 -0.1689  0.0537
 6565TIP3   OH241185   6.769   4.987   4.133 -0.1006  0.2201 -0.0956
 6565TIP3    H141186   6.744   4.980   4.041 -0.5916 -0.5196  0.0826
 6565TIP3    H241187   6.686   4.983   4.181  0.2842 -1.7199  0.4862
 6566TIP3   OH241188   3.858   1.720   0.961 -0.0598 -0.1099  0.8092
 6566TIP3    H141189   3.795   1.773   0.911 -0.7916 -1.8555 -0.1940
 6566TIP3    H241190   3.862   1.763   1.046  0.7392  2.5984 -0.4554
 6567TIP3   OH241191   4.486   5.622  14.207 -0.1670  0.4684 -0.4637
 6567TIP3    H141192   4.421   5.554  14.226 -3.0003  3.0841 -0.0990
 6567TIP3    H241193   4.463   5.653  14.119 -0.3544  2.3466  0.2029
 6568TIP3   OH241194   0.025   4.055   1.511  0.1470 -0.0794 -0.0063
 6568TIP3    H141195   0.045   4.128   1.569  1.3790 -0.0394 -0.4510
 6568TIP3    H241196  -0.014   3.989   1.568  2.8905 -0.7300  1.2351
 6569TIP3   OH241197   4.532   0.047   4.772 -0.4103 -0.1603  0.5273
 6569TIP3    H141198   4.464   0.078   4.832 -2.3772 -1.9866 -0.6417
 6569TIP3    H241199   4.614   0.066   4.818 -1.5399  3.2571  1.4766
 6570TIP3   OH241200   5.952   4.418  15.959 -0.2958 -0.2542  0.4235
 6570TIP3    H141201   5.908   4.401  16.042 -0.0810 -0.2499  0.5397
 6570TIP3    H241202   6.030   4.363  15.962  2.0668  2.8101  2.1261
 6571TIP3   OH241203   0.458   0.207   4.660  0.3755 -0.1782  0.6476
 6571TIP3    H141204   0.435   0.114   4.662  0.2133 -0.1307  1.4492
 6571TIP3    H241205   0.523   0.214   4.590  1.2071 -1.1013  1.2971
 6572TIP3   OH241206   4.069   5.829   3.182  0.2606  0.1437 -0.3125
 6572TIP3    H141207   4.082   5.913   3.227  2.2112  0.0054 -0.5399
 6572TIP3    H241208   3.974   5.820   3.175 -0.0969  0.8856  2.4375
 6573TIP3   OH241209   2.287   5.694   1.161 -0.0585  0.3870  0.2309
 6573TIP3    H141210   2.202   5.737   1.163 -0.8615 -1.1238  0.2082
 6573TIP3    H241211   2.298   5.657   1.249  1.3715  1.9676  0.7760
 6574TIP3   OH241212   3.855   0.551  15.188  0.1096 -0.8662  0.6682
 6574TIP3    H141213   3.862   0.644  15.168 -1.2832 -0.5540  1.5453
 6574TIP3    H241214   3.928   0.534  15.248 -0.3912 -0.0381  1.5339
 6575TIP3   OH241215   5.272   0.871  16.540  0.8546 -0.7874  0.0178
 6575TIP3    H141216   5.223   0.804  16.491  1.9055 -0.8518 -0.9943
 6575TIP3    H241217   5.271   0.948  16.482 -1.0086  0.3989  1.4909
 6576TIP3   OH241218   4.278   0.428   0.308  0.7649  0.3444  0.0255
 6576TIP3    H141219   4.250   0.493   0.243  0.6556  0.0229 -0.2533
 6576TIP3    H241220   4.366   0.402   0.280  0.8724  0.4922  0.2296
 6577TIP3   OH241221   4.133   1.544   1.867 -0.6399 -0.2711 -0.4637
 6577TIP3    H141222   4.125   1.599   1.789 -0.9669  0.8651  0.3570
 6577TIP3    H241223   4.224   1.555   1.894  0.1394 -2.4165 -1.9128
 6578TIP3   OH241224   5.655   3.820   0.901 -0.3967  0.1899 -0.0675
 6578TIP3    H141225   5.574   3.778   0.928  0.0411  0.0428  1.0749
 6578TIP3    H241226   5.637   3.853   0.813 -1.7569  0.3363  0.2428
 6579TIP3   OH241227   1.307   0.738  11.399  0.2793  0.1186 -0.1281
 6579TIP3    H141228   1.222   0.720  11.439  0.7850 -1.5744  0.2972
 6579TIP3    H241229   1.369   0.732  11.472  1.0077 -1.1406 -0.8131
 6580TIP3   OH241230   6.558   5.042   0.002  0.1118  0.2968  0.2067
 6580TIP3    H141231   6.570   4.947   0.004  0.3121  0.2815 -0.9573
 6580TIP3    H241232   6.464   5.055   0.008  0.1549  0.0755  1.4766
 6581TIP3   OH241233   3.719   3.594  14.042 -0.2518  0.1040  0.5648
 6581TIP3    H141234   3.669   3.628  14.116 -1.6485 -0.7715  0.0822
 6581TIP3    H241235   3.653   3.551  13.987  0.5483  1.5041 -1.6623
 6582TIP3   OH241236   6.468   0.244   1.898 -0.2021 -0.0412  0.1605
 6582TIP3    H141237   6.427   0.228   1.813  1.3099  0.4882 -0.6971
 6582TIP3    H241238   6.453   0.337   1.915 -0.6426 -0.1815  0.5653
 6583TIP3   OH241239   1.206   0.933  16.028 -0.1952 -0.4853  0.1727
 6583TIP3    H141240   1.203   0.900  15.938  1.4574  0.5786 -0.3080
 6583TIP3    H241241   1.277   0.884  16.069  0.3568  0.4028  0.2999
 6584TIP3   OH241242   0.263   4.086   3.715 -0.3617 -0.0411  0.0564
 6584TIP3    H141243   0.245   4.030   3.639  0.3545 -1.9157  1.1825
 6584TIP3    H241244   0.358   4.101   3.712 -0.4727  0.6738  0.0560
 6585TIP3   OH241245   1.567   2.268  13.425 -0.1915 -0.6095  0.1889
 6585TIP3    H141246   1.654   2.235  13.400  0.0150  0.7348 -0.9525
 6585TIP3    H241247   1.506   2.206  13.384  0.2049 -0.1965 -1.0751
 6586TIP3   OH241248   5.228   1.625   1.667  0.3395  0.3436  0.7757
 6586TIP3    H141249   5.304   1.683   1.671 -1.0820  2.2619  2.5695
 6586TIP3    H241250   5.179   1.655   1.591  1.5574 -1.2634 -0.7216
 6587TIP3   OH241251   0.775   4.039  11.814  0.3287  0.3340  0.4901
 6587TIP3    H141252   0.680   4.045  11.807  0.1225 -1.9258  0.5799
 6587TIP3    H241253   0.794   4.059  11.905 -0.2335 -0.5485  0.8164
 6588TIP3   OH241254   2.102   6.273   4.549  0.0843  0.1503  0.0153
 6588TIP3    H141255   2.079   6.195   4.600  0.6015  0.6468  1.0393
 6588TIP3    H241256   2.174   6.244   4.492 -0.3456 -0.3519 -0.2779
 6589TIP3   OH241257   2.425   5.723  13.342 -0.0264  0.3196  0.3228
 6589TIP3    H141258   2.477   5.681  13.411  0.8273 -1.1479 -1.1249
 6589TIP3    H241259   2.490   5.768  13.287 -0.5558  0.5622 -0.1141
 6590TIP3   OH241260   4.971   1.590  11.349  0.0027  0.5782 -0.3828
 6590TIP3    H141261   4.933   1.518  11.298  0.4435  1.0933 -1.4584
 6590TIP3    H241262   4.986   1.552  11.435 -1.9245  0.0457 -0.2325
 6591TIP3   OH241263   2.242   0.445  15.181  0.1331  0.4604 -0.0707
 6591TIP3    H141264   2.276   0.519  15.130 -0.1986 -0.0571 -1.0754
 6591TIP3    H241265   2.245   0.371  15.120 -2.8774  0.3777 -0.2667
 6592TIP3   OH241266   3.325   2.958  14.830 -0.7650  0.3996 -0.0544
 6592TIP3    H141267   3.271   3.032  14.803 -1.2431  0.0076 -0.1893
 6592TIP3    H241268   3.408   2.997  14.857 -0.8706  0.9464 -0.5074
 6593TIP3   OH241269   4.730   4.360   0.202 -0.2888 -0.0529 -0.2032
 6593TIP3    H141270   4.731   4.451   0.232  1.7742  0.0561 -0.4124
 6593TIP3    H241271   4.745   4.365   0.108 -3.1274 -0.5494 -0.7657
 6594TIP3   OH241272   6.722   3.667   6.402 -0.5379 -0.1223 -0.5624
 6594TIP3    H141273   6.780   3.743   6.394  0.4730 -0.3656  2.6629
 6594TIP3    H241274   6.670   3.685   6.481 -0.4221 -2.6282  0.1860
 6595TIP3   OH241275   1.560   5.151   3.746 -0.2320 -0.1120  0.0291
 6595TIP3    H141276   1.570   5.123   3.656  0.6214  0.5946 -0.1085
 6595TIP3    H241277   1.491   5.094   3.782 -2.0560  0.9332 -1.6224
 6596TIP3   OH241278   0.603   3.349   2.350  0.8372 -0.1514 -0.0736
 6596TIP3    H141279   0.542   3.327   2.280  0.9604  0.2018 -0.2963
 6596TIP3    H241280   0.551   3.344   2.430  0.9891 -1.7842 -0.0464
 6597TIP3   OH241281   0.112   1.047   0.768  0.1717  0.2125 -0.4319
 6597TIP3    H141282   0.065   1.124   0.737 -1.8275 -0.8910 -0.2879
 6597TIP3    H241283   0.052   1.004   0.828  2.6915  0.5715  2.6434
 6598TIP3   OH241284   1.729   0.319  14.339  0.8455 -0.2678 -0.4306
 6598TIP3    H141285   1.740   0.405  14.299 -0.1194 -0.3885 -0.9943
 6598TIP3    H241286   1.636   0.314  14.359  1.0599 -0.8168  0.4482
 6599TIP3   OH241287   6.748   6.728   3.825  0.1020  0.6111  0.0940
 6599TIP3    H141288   6.796   6.807   3.852 -1.6627  2.2253 -1.1543
 6599TIP3    H241289   6.806   6.684   3.764  0.3747  2.0723 -0.7498
 6600TIP3   OH241290   0.211   4.304  15.524 -0.2774 -0.1386 -0.4604
 6600TIP3    H141291   0.190   4.219  15.486  0.3720 -0.1172 -0.8826
 6600TIP3    H241292   0.178   4.299  15.614 -1.4721 -0.3294 -0.8922
 6601TIP3   OH241293   0.410   4.770   1.103 -0.5822 -0.0720  0.2824
 6601TIP3    H141294   0.332   4.717   1.120 -1.7833  1.3270 -0.5577
 6601TIP3    H241295   0.382   4.860   1.123  0.3090  0.6559 -1.5203
 6602TIP3   OH241296   1.551   0.977   2.737 -0.0603 -0.0511 -0.0265
 6602TIP3    H141297   1.462   0.991   2.705 -0.1976  1.3774  0.8669
 6602TIP3    H241298   1.583   1.065   2.756  1.5847 -0.5366 -0.4078
 6603TIP3   OH241299   4.931   6.053   4.595 -0.6934 -0.0966 -0.5694
 6603TIP3    H141300   4.902   6.079   4.682  0.1405  0.2658 -0.3876
 6603TIP3    H241301   4.966   6.134   4.557  0.6197 -0.6379 -0.5467
 6604TIP3   OH241302   6.477   6.480   4.834  0.4865  0.0102 -0.1934
 6604TIP3    H141303   6.524   6.502   4.915  4.8536 -3.4273 -1.4010
 6604TIP3    H241304   6.397   6.439   4.864 -0.2547  2.7999  2.1444
 6605TIP3   OH241305   0.267   6.249  15.083  0.3854  0.1498 -0.5916
 6605TIP3    H141306   0.226   6.218  15.163 -0.4409  0.5417 -0.8483
 6605TIP3    H241307   0.340   6.304  15.112  1.1163 -1.0186 -0.1343
 6606TIP3   OH241308   1.514   2.623  15.651 -0.4068  0.4397 -0.2181
 6606TIP3    H141309   1.424   2.603  15.679 -0.9548  0.5477 -1.8059
 6606TIP3    H241310   1.569   2.591  15.722 -1.7836  1.9824  1.6531
 6607TIP3   OH241311   4.059   0.631  16.820  0.1979 -0.4806 -0.1599
 6607TIP3    H141312   4.125   0.699  16.837  0.5971 -1.0133  0.4226
 6607TIP3    H241313   3.975   0.677  16.828  0.4599 -0.0862  0.3741
 6608TIP3   OH241314   2.961   0.473   0.290  0.2655  0.3730  0.1056
 6608TIP3    H141315   2.969   0.568   0.303 -1.0545  0.7120 -1.2811
 6608TIP3    H241316   3.039   0.448   0.242  0.2286  0.9117 -0.2430
 6609TIP3   OH241317   1.230   6.378  15.049 -0.4832  0.5979  0.5305
 6609TIP3    H141318   1.154   6.407  14.999  0.6850  0.1087 -1.6486
 6609TIP3    H241319   1.277   6.320  14.989  0.9062 -0.1968  2.2997
 6610TIP3   OH241320   1.099   6.339  16.661  0.0296  0.5251  0.1381
 6610TIP3    H141321   1.140   6.340  16.748  0.9972 -2.9397 -0.1474
 6610TIP3    H241322   1.138   6.414  16.616  3.3983 -0.4419  1.1381
 6611TIP3   OH241323   3.997   6.538   5.964 -0.3492 -0.4197  0.5436
 6611TIP3    H141324   3.965   6.473   5.901  0.1865 -1.3439  1.2081
 6611TIP3    H241325   3.919   6.590   5.986 -0.4044  0.4781 -1.4750
 6612TIP3   OH241326   5.935   4.657   3.040  0.0252  0.1117 -0.3375
 6612TIP3    H141327   6.000   4.724   3.017  0.0045 -0.2489 -1.4935
 6612TIP3    H241328   5.851   4.699   3.023 -0.0426  0.3534  0.5392
 6613TIP3   OH241329   2.414   5.296  12.455  0.3769  0.2028 -0.3051
 6613TIP3    H141330   2.464   5.260  12.381  0.4655 -0.8017  0.2210
 6613TIP3    H241331   2.334   5.243  12.457  1.4609 -1.4907  1.8104
 6614TIP3   OH241332   6.101   4.370  16.963 -0.2148  0.7048  0.3094
 6614TIP3    H141333   6.175   4.425  16.988  0.8472  0.0900 -1.2657
 6614TIP3    H241334   6.141   4.286  16.937 -1.7170 -0.5959  1.9537
 6615TIP3   OH241335   3.626   1.217   6.768 -0.2265 -0.2873  0.2449
 6615TIP3    H141336   3.610   1.275   6.694  0.5703  1.6390  1.5054
 6615TIP3    H241337   3.572   1.252   6.839  1.2115 -0.2975  1.3968
 6616TIP3   OH241338   6.627   0.549   4.189  0.1668  0.2066 -0.0421
 6616TIP3    H141339   6.688   0.487   4.229 -2.1418 -1.4334  1.1972
 6616TIP3    H241340   6.594   0.505   4.111 -2.6643 -1.0248  1.6644
 6617TIP3   OH241341   4.481   2.474   0.587 -0.4036  0.1059  0.0468
 6617TIP3    H141342   4.492   2.414   0.513  2.2427  0.1305  0.3012
 6617TIP3    H241343   4.519   2.557   0.556 -0.7732  0.6010  0.8856
 6618TIP3   OH241344   1.799   1.314  14.863 -0.1055  0.1225  0.3416
 6618TIP3    H141345   1.849   1.237  14.889  0.9950  0.6707 -0.1007
 6618TIP3    H241346   1.715   1.279  14.832  0.7779 -1.0020 -0.9002
 6619TIP3   OH241347   4.590   5.026   1.512 -0.2939 -0.2320 -0.2855
 6619TIP3    H141348   4.525   5.067   1.569  0.4632  0.1575  0.3166
 6619TIP3    H241349   4.601   5.087   1.439  1.7913  1.3797  1.2477
 6620TIP3   OH241350   5.723   5.928   3.037  0.3768 -0.1079  0.2065
 6620TIP3    H141351   5.685   5.988   3.101 -0.4475 -0.2417 -0.1474
 6620TIP3    H241352   5.712   5.972   2.953  1.1258 -0.0939  0.1047
 6621TIP3   OH241353   2.593   4.249   4.190 -0.3443  0.1610  0.3900
 6621TIP3    H141354   2.623   4.180   4.250  1.3895 -1.1522 -1.8181
 6621TIP3    H241355   2.652   4.323   4.207  1.6612 -0.9903 -1.1077
 6622TIP3   OH241356   3.590   5.271   3.531 -0.0410  0.1574  0.1596
 6622TIP3    H141357   3.551   5.189   3.560 -0.8702 -0.0053 -1.3158
 6622TIP3    H241358   3.615   5.255   3.440 -0.2177  1.5293 -0.1526
 6623TIP3   OH241359   2.484   5.997   3.882 -0.5742  0.1817 -0.7695
 6623TIP3    H141360   2.479   5.922   3.941  3.9701  0.5037  0.4079
 6623TIP3    H241361   2.446   6.069   3.932 -2.9403 -0.7881 -1.0435
 6624TIP3   OH241362   3.672   3.629  13.729 -0.3859 -0.6848 -0.0300
 6624TIP3    H141363   3.653   3.624  13.636  0.1307  1.0976 -0.2851
 6624TIP3    H241364   3.587   3.615  13.772 -0.7583 -0.8440 -0.8039
 6625TIP3   OH241365   5.164   4.073   2.828 -0.5721  0.3349  0.0197
 6625TIP3    H141366   5.172   3.986   2.866  0.9686  0.3713 -0.1649
 6625TIP3    H241367   5.186   4.133   2.899 -0.1356  0.5014 -0.2492
 6626TIP3   OH241368   3.155   0.287  14.439  0.2654 -0.0980  0.4791
 6626TIP3    H141369   3.170   0.265  14.531  1.2648 -0.0825  0.3376
 6626TIP3    H241370   3.060   0.282  14.428 -0.1206  2.1655  2.0759
 6627TIP3   OH241371   2.669   2.356  15.656  0.6742 -0.2220  0.2046
 6627TIP3    H141372   2.614   2.402  15.720  0.5789 -0.4061  0.2563
 6627TIP3    H241373   2.651   2.264  15.672  2.4129 -0.3768  1.4979
 6628TIP3   OH241374   3.743   0.434   3.587  0.3675  0.0171  0.4137
 6628TIP3    H141375   3.708   0.457   3.500 -0.7343 -1.4216  0.4395
 6628TIP3    H241376   3.713   0.505   3.644  0.6891  0.7300 -0.2861
 6629TIP3   OH241377   1.251   4.195   2.449  0.2016 -0.3880 -0.0767
 6629TIP3    H141378   1.250   4.146   2.367  1.0504  2.7268 -2.1119
 6629TIP3    H241379   1.219   4.133   2.514 -0.0378 -3.1740 -2.6308
 6630TIP3   OH241380   5.669   1.617  13.148  0.5926 -0.4878 -0.4674
 6630TIP3    H141381   5.733   1.553  13.178 -0.0549 -0.9673 -0.0814
 6630TIP3    H241382   5.602   1.617  13.216 -0.1096 -0.4269 -1.1471
 6631TIP3   OH241383   4.500   6.036   0.464 -0.1739  0.1581 -0.4453
 6631TIP3    H141384   4.496   5.956   0.516  2.1188  0.4134  0.2620
 6631TIP3    H241385   4.553   6.013   0.388 -2.2208  0.2004 -1.9570
 6632TIP3   OH241386   6.129   0.573  16.262 -0.1323  0.3196  0.0471
 6632TIP3    H141387   6.161   0.619  16.184  1.6272 -0.1754  0.4285
 6632TIP3    H241388   6.062   0.631  16.298  0.0099  1.2113 -1.0730
 6633TIP3   OH241389   5.736   0.832   4.123  0.0426 -0.4984 -0.1562
 6633TIP3    H141390   5.785   0.779   4.186  1.2804  0.0272 -0.6312
 6633TIP3    H241391   5.715   0.771   4.052  0.6117 -0.5819 -0.2591
 6634TIP3   OH241392   5.759   1.696   4.225 -0.1000  0.3813  0.2478
 6634TIP3    H141393   5.719   1.783   4.234 -1.0286 -0.0458  0.4774
 6634TIP3    H241394   5.728   1.664   4.140  2.1954  1.2132 -0.9626
 6635TIP3   OH241395   4.934   0.008  12.765  0.3572 -0.3041 -0.5066
 6635TIP3    H141396   4.847  -0.026  12.784  1.1140 -1.0179  2.2304
 6635TIP3    H241397   4.965  -0.044  12.691 -0.9305 -1.1702 -0.4647
 6636TIP3   OH241398   6.013   4.608  13.984  0.0398  0.1806 -0.3253
 6636TIP3    H141399   6.048   4.601  14.073 -0.7277  1.5863  0.1286
 6636TIP3    H241400   5.953   4.683  13.988 -1.0748 -0.5958 -1.6923
 6637TIP3   OH241401   2.146   5.601  14.727 -0.2884  0.3611 -0.0686
 6637TIP3    H141402   2.192   5.518  14.711  0.1294  0.4026  0.8730
 6637TIP3    H241403   2.102   5.588  14.811 -1.4211  0.5873 -0.6112
 6638TIP3   OH241404   0.607   5.853   3.122 -0.1302  0.5574  0.1712
 6638TIP3    H141405   0.570   5.855   3.210 -0.2115 -1.8027  0.2333
 6638TIP3    H241406   0.531   5.864   3.064 -0.0128  2.6987  0.3327
 6639TIP3   OH241407   4.956   1.566   2.892  0.1548 -0.2080  0.4234
 6639TIP3    H141408   4.888   1.590   2.830  2.3061  0.9380 -1.6746
 6639TIP3    H241409   4.956   1.637   2.957 -0.3317  0.0254  0.1692
 6640TIP3   OH241410   5.049   1.567  16.292 -0.5110 -0.0215 -0.1051
 6640TIP3    H141411   4.963   1.555  16.332 -0.3408 -2.2871 -0.2611
 6640TIP3    H241412   5.107   1.509  16.342  0.1707 -1.1774 -2.1242
 6641TIP3   OH241413   2.241   2.675  11.818  0.7838  0.1690 -0.2017
 6641TIP3    H141414   2.315   2.718  11.860 -0.2689  1.0516  0.8576
 6641TIP3    H241415   2.169   2.686  11.881 -0.5263  0.3458 -1.6602
 6642TIP3   OH241416   4.391   5.672   5.546  0.4567  0.6978 -0.3927
 6642TIP3    H141417   4.382   5.732   5.620 -0.7632 -0.7958  0.7112
 6642TIP3    H241418   4.335   5.710   5.478  0.9278  1.6174 -0.2946
 6643TIP3   OH241419   6.195   3.572   5.264 -0.2447  0.4286  0.1878
 6643TIP3    H141420   6.106   3.563   5.228 -1.4059  0.5835  2.8072
 6643TIP3    H241421   6.230   3.483   5.263 -1.5031 -0.1241  1.6175
 6644TIP3   OH241422   1.914   0.526  12.182  0.1570  0.1579  0.4404
 6644TIP3    H141423   2.009   0.518  12.196  0.3120  1.5098  0.3003
 6644TIP3    H241424   1.880   0.438  12.201  1.5218 -0.5701 -0.2780
 6645TIP3   OH241425   5.134   6.403   1.668 -0.1455 -0.1071  0.6958
 6645TIP3    H141426   5.040   6.406   1.652 -0.0076 -0.0124 -0.1475
 6645TIP3    H241427   5.172   6.381   1.583  0.4902 -1.8154  1.3851
 6646TIP3   OH241428   6.257   0.174   0.128 -0.8195 -0.0438  0.0682
 6646TIP3    H141429   6.276   0.253   0.179 -1.4391 -0.6860  1.3588
 6646TIP3    H241430   6.162   0.175   0.118 -1.0681 -1.5408  1.7454
 6647TIP3   OH241431   1.635   5.870   2.586 -0.1098 -0.2371 -0.1924
 6647TIP3    H141432   1.548   5.831   2.576  0.3882 -1.4726  0.1443
 6647TIP3    H241433   1.625   5.928   2.662 -1.1499  1.2340 -1.3795
 6648TIP3   OH241434   4.685   5.485  16.511 -0.2563 -0.1415 -0.7740
 6648TIP3    H141435   4.753   5.507  16.574  0.0130  0.8446 -1.3920
 6648TIP3    H241436   4.613   5.453  16.564 -0.2144  1.1163  0.0854
 6649TIP3   OH241437   0.880   1.365  14.774  0.0036 -0.2130 -0.2007
 6649TIP3    H141438   0.963   1.363  14.726  0.0161 -2.2423 -0.1889
 6649TIP3    H241439   0.864   1.458  14.789  2.7038  0.2424  0.5413
 6650TIP3   OH241440   0.637   1.125  14.310 -0.3779  0.2861 -0.0893
 6650TIP3    H141441   0.708   1.122  14.246  0.7524  1.6125  1.0327
 6650TIP3    H241442   0.560   1.151  14.259  0.5319  1.5092 -0.8975
 6651TIP3   OH241443   5.461   4.075   2.819 -0.4064 -0.0102  0.2059
 6651TIP3    H141444   5.370   4.046   2.834  0.6175 -3.2617  0.9863
 6651TIP3    H241445   5.473   4.148   2.880 -1.7179 -1.3236  2.1487
 6652TIP3   OH241446   1.243   5.465   3.405 -0.3202  0.1492 -0.5521
 6652TIP3    H141447   1.294   5.534   3.362  1.2266 -1.1544 -0.9245
 6652TIP3    H241448   1.244   5.488   3.498 -0.9890  1.3292 -0.8238
 6653TIP3   OH241449   4.950   2.040  15.038  0.0080 -1.0434 -0.1484
 6653TIP3    H141450   5.018   1.976  15.015 -1.0098 -1.9704 -0.6745
 6653TIP3    H241451   4.995   2.124  15.037  1.2976 -1.7000  0.1683
 6654TIP3   OH241452   2.863   4.826   0.551  0.2387 -0.0510  0.2971
 6654TIP3    H141453   2.873   4.735   0.524  0.1261  0.1309 -0.3705
 6654TIP3    H241454   2.811   4.866   0.482 -0.1182  0.4127  0.8248
 6655TIP3   OH241455   6.278   5.546  11.570  0.3199  0.6589 -0.2279
 6655TIP3    H141456   6.187   5.539  11.540  0.5400  0.5332 -0.8882
 6655TIP3    H241457   6.288   5.639  11.593 -0.3869  0.3979  1.2345
 6656TIP3   OH241458   5.224   4.711  14.959  0.0224  0.2269 -0.2904
 6656TIP3    H141459   5.223   4.771  14.884 -1.7082 -0.0162 -0.4960
 6656TIP3    H241460   5.147   4.735  15.011  0.8751  0.0136  1.1236
 6657TIP3   OH241461   4.338   0.321  14.729  0.6200  0.3580  0.2781
 6657TIP3    H141462   4.366   0.307  14.638  2.6994  0.3248  0.8861
 6657TIP3    H241463   4.391   0.261  14.781 -1.1747 -0.2705  1.4737
 6658TIP3   OH241464   5.936   1.366  14.270  0.5017  0.2415 -0.0687
 6658TIP3    H141465   5.913   1.311  14.345  0.1027  0.0137 -0.3511
 6658TIP3    H241466   6.032   1.365  14.267  0.5827  1.4046  1.2778
 6659TIP3   OH241467   5.743   6.439  15.343 -0.1963 -0.1549 -0.1227
 6659TIP3    H141468   5.659   6.481  15.362  0.2789  0.6127  0.3597
 6659TIP3    H241469   5.784   6.430  15.429  0.8698  0.9047 -0.5028
 6660TIP3   OH241470   1.068   3.027  16.051  0.1629  0.1661  0.4641
 6660TIP3    H141471   0.975   3.048  16.047 -0.1632 -1.2548  0.2690
 6660TIP3    H241472   1.081   2.961  15.984  1.3859  0.5707  0.2807
 6661TIP3   OH241473   6.762   4.032   2.824  0.4789 -0.0193 -0.4905
 6661TIP3    H141474   6.827   4.086   2.779  0.2869  0.7554  0.1400
 6661TIP3    H241475   6.805   3.948   2.837  1.3240  0.4438 -0.1997
 6662TIP3   OH241476   5.710   3.309  14.943  0.6751  0.3640  0.8484
 6662TIP3    H141477   5.651   3.340  15.012  0.2736  0.1762  0.5994
 6662TIP3    H241478   5.662   3.327  14.861  1.2946  0.8997  0.6010
 6663TIP3   OH241479   5.243   2.008   2.737 -0.3001 -0.1436 -0.4974
 6663TIP3    H141480   5.224   2.082   2.794  0.9255  0.9905 -1.4855
 6663TIP3    H241481   5.312   2.040   2.679  0.5892 -2.2004 -0.6788
 6664TIP3   OH241482   4.967   2.903  17.202 -0.3882  0.0238 -0.3652
 6664TIP3    H141483   4.979   2.992  17.168  2.9023 -0.2105 -0.1507
 6664TIP3    H241484   4.945   2.851  17.125  0.1674  0.6482 -0.9699
 6665TIP3   OH241485   6.218   0.842   3.284 -0.6148  0.1255  0.3692
 6665TIP3    H141486   6.210   0.886   3.369  0.1191  0.6884  0.1535
 6665TIP3    H241487   6.131   0.805   3.269 -0.6434 -0.3326  1.5523
 6666TIP3   OH241488   1.335   4.050  13.847 -0.2458 -0.5892  0.0880
 6666TIP3    H141489   1.418   4.061  13.801 -0.0128  0.4375  0.7212
 6666TIP3    H241490   1.345   3.967  13.895  0.0311 -0.9578 -0.5999
 6667TIP3   OH241491   5.649   1.689   5.187  0.3601 -0.5534 -0.3764
 6667TIP3    H141492   5.572   1.635   5.169  0.2102 -0.4364 -0.1077
 6667TIP3    H241493   5.613   1.777   5.201  0.5871 -0.4093 -0.6948
 6668TIP3   OH241494   5.143   1.367   1.747  0.0666 -0.1657 -0.0559
 6668TIP3    H141495   5.167   1.455   1.719  1.4916 -0.5120 -0.0115
 6668TIP3    H241496   5.189   1.356   1.831  0.6376 -1.2488 -0.4888
 6669TIP3   OH241497   5.474   1.919  16.192  0.1559 -0.6615 -0.3195
 6669TIP3    H141498   5.487   1.834  16.150  2.9869  0.5524 -2.1816
 6669TIP3    H241499   5.460   1.980  16.119  1.9448  1.0244  0.6539
 6670TIP3   OH241500   5.048   0.732  15.169  0.2187 -0.0292 -0.1924
 6670TIP3    H141501   5.092   0.659  15.126 -0.5809 -0.5567 -0.1541
 6670TIP3    H241502   5.118   0.787  15.202  0.8376 -0.5057 -0.6983
 6671TIP3   OH241503   2.888   1.388  10.674  0.2920  0.2173 -0.4456
 6671TIP3    H141504   2.939   1.377  10.593  1.5120 -0.3478  0.3660
 6671TIP3    H241505   2.821   1.452  10.652  1.9042  1.6727 -1.3199
 6672TIP3   OH241506   5.408   5.664   1.726 -0.1086 -0.2365  0.4913
 6672TIP3    H141507   5.488   5.624   1.693 -0.8598  0.1966 -2.0854
 6672TIP3    H241508   5.337   5.611   1.690 -1.0448  1.7731 -0.8712
 6673TIP3   OH241509   2.607   4.499   1.978  0.0288  0.4463 -0.1088
 6673TIP3    H141510   2.516   4.529   1.977 -0.1056  0.0383 -0.5174
 6673TIP3    H241511   2.624   4.473   1.887  0.3334 -0.1301  0.1148
 6674TIP3   OH241512   3.143   2.589   4.754 -0.3981  0.0976  0.6108
 6674TIP3    H141513   3.062   2.637   4.736 -1.4978 -1.3245  1.5439
 6674TIP3    H241514   3.183   2.577   4.668 -1.0280  1.0660  0.1640
 6675TIP3   OH241515   2.820   5.553  11.099  0.1638  0.0456 -0.0850
 6675TIP3    H141516   2.795   5.481  11.158 -0.7950  0.0529 -0.4575
 6675TIP3    H241517   2.856   5.620  11.157  0.9074 -0.6550  0.2878
 6676TIP3   OH241518   2.099   2.223   5.612  0.0594 -0.4455 -0.0324
 6676TIP3    H141519   2.177   2.222   5.557  1.7897 -0.4129  2.2443
 6676TIP3    H241520   2.118   2.159   5.681 -1.8666 -0.3196  0.6750
 6677TIP3   OH241521   3.972   0.283  13.343 -0.7472 -0.0400  0.4378
 6677TIP3    H141522   3.910   0.269  13.271  1.3396  1.0015 -1.6977
 6677TIP3    H241523   3.996   0.376  13.335  2.0870 -0.7185  0.3006
 6678TIP3   OH241524   2.415   5.619   2.110  0.0942 -0.0915  0.1471
 6678TIP3    H141525   2.435   5.711   2.126  0.1638 -0.4709  2.4985
 6678TIP3    H241526   2.397   5.582   2.196  1.7357 -2.6804 -0.4847
 6679TIP3   OH241527   3.642   1.677   3.589 -0.0264 -0.3969 -0.5018
 6679TIP3    H141528   3.554   1.639   3.595  0.2564 -1.0389 -0.4246
 6679TIP3    H241529   3.661   1.677   3.495  0.5219 -1.7170 -0.4059
 6680TIP3   OH241530   2.971   0.811  11.948  0.6663 -0.2091 -0.4143
 6680TIP3    H141531   2.916   0.889  11.937 -1.5224 -1.0770  2.8725
 6680TIP3    H241532   2.933   0.746  11.888 -2.4163 -0.9037  2.0366
 6681TIP3   OH241533   2.086   6.329  15.538 -0.0657  0.0714  0.8117
 6681TIP3    H141534   2.137   6.299  15.463  1.2650 -2.0579  2.4356
 6681TIP3    H241535   1.996   6.306  15.516 -0.0666  1.6503 -1.0767
 6682TIP3   OH241536   4.927   4.195  14.907  0.6853  0.1600  0.0974
 6682TIP3    H141537   4.998   4.157  14.959 -0.1459 -4.7827 -1.7994
 6682TIP3    H241538   4.848   4.179  14.958  0.3205 -0.4768 -0.6536
 6683TIP3   OH241539   6.616   1.247  11.742  0.1543 -0.0381 -0.0692
 6683TIP3    H141540   6.555   1.175  11.756  1.2070 -0.5860  2.1475
 6683TIP3    H241541   6.694   1.206  11.706 -0.1048  0.3898 -1.1512
 6684TIP3   OH241542   5.256   4.848  16.586 -0.4456 -0.4771 -0.4606
 6684TIP3    H141543   5.212   4.921  16.542 -0.6188 -0.8512 -0.9242
 6684TIP3    H241544   5.345   4.849  16.551 -0.5820 -0.7721 -0.8297
 6685TIP3   OH241545   5.196   1.999  12.207 -0.2435  0.4073  0.1801
 6685TIP3    H141546   5.279   2.027  12.246  0.8350 -0.0156 -1.6672
 6685TIP3    H241547   5.150   1.955  12.278  1.6297 -0.3751  0.9817
 6686TIP3   OH241548   4.473   1.404   0.142  0.3671  0.4383  0.0509
 6686TIP3    H141549   4.506   1.314   0.138 -0.5120  0.0565  1.0516
 6686TIP3    H241550   4.423   1.414   0.061 -0.3923 -0.3290  0.4112
 6687TIP3   OH241551   4.424   5.319  15.440  0.4917 -0.4989  0.8035
 6687TIP3    H141552   4.383   5.344  15.357 -2.1975 -2.0957  1.5114
 6687TIP3    H241553   4.357   5.335  15.506  2.5180  0.6359  2.7369
 6688TIP3   OH241554   1.493   4.406  13.164 -0.3434  0.7872 -0.0683
 6688TIP3    H141555   1.524   4.317  13.181 -2.2643  0.1440  0.3765
 6688TIP3    H241556   1.497   4.415  13.069  1.8253  1.0301 -0.0001
 6689TIP3   OH241557   1.346   5.146  13.428  0.4140 -0.6898 -0.1604
 6689TIP3    H141558   1.284   5.150  13.355  0.2425 -2.6344 -0.1617
 6689TIP3    H241559   1.430   5.171  13.389 -0.0949  0.6225 -0.4655
 6690TIP3   OH241560   2.361   1.866  16.688  0.2079  0.1228  0.1781
 6690TIP3    H141561   2.288   1.917  16.725  0.4502 -0.5759  1.7158
 6690TIP3    H241562   2.373   1.901  16.600 -1.7278  0.5322  0.0288
 6691TIP3   OH241563   3.982   6.702  11.609  0.5110 -0.3853 -0.1536
 6691TIP3    H141564   4.058   6.676  11.662  0.6289 -1.0662 -0.6383
 6691TIP3    H241565   3.988   6.648  11.530  0.2367  0.4864 -0.7855
 6692TIP3   OH241566   1.263   0.438  12.197 -0.2893 -0.1525  0.2085
 6692TIP3    H141567   1.269   0.412  12.105 -0.0904  0.0710  0.1562
 6692TIP3    H241568   1.253   0.356  12.245 -1.0799 -0.2201 -0.0681
 6693TIP3   OH241569   5.919   4.960  13.581  0.3736 -0.4382 -0.2165
 6693TIP3    H141570   5.878   4.998  13.659  0.1889 -0.5081 -0.2801
 6693TIP3    H241571   6.012   4.957  13.603  0.2912 -0.7037  0.1044
 6694TIP3   OH241572   5.709   3.274   6.029  0.0709  0.0351  0.0721
 6694TIP3    H141573   5.774   3.205   6.041  0.1426  0.2127  0.6982
 6694TIP3    H241574   5.743   3.349   6.078 -1.6964 -0.5640  2.3689
 6695TIP3   OH241575   5.165   2.533  14.514  0.4574  0.4687 -0.0638
 6695TIP3    H141576   5.250   2.559  14.548  1.2514 -0.3460 -1.3439
 6695TIP3    H241577   5.160   2.574  14.428  0.7172 -1.5724 -1.1129
 6696TIP3   OH241578   5.042   4.920  14.049 -0.0745  0.0710 -0.0701
 6696TIP3    H141579   5.060   4.827  14.035  0.1549  0.0624  0.2903
 6696TIP3    H241580   4.988   4.945  13.974  1.2647  0.0501 -1.0871
 6697TIP3   OH241581   0.246   6.397   1.400  0.0198  0.1858 -0.0702
 6697TIP3    H141582   0.276   6.404   1.491 -0.1552  0.8355 -0.0556
 6697TIP3    H241583   0.158   6.435   1.401 -0.6298 -1.2696 -0.2078
 6698TIP3   OH241584   0.442   1.810   3.274  0.0392 -0.5260  0.6571
 6698TIP3    H141585   0.416   1.734   3.327 -1.7960  0.3265  1.0750
 6698TIP3    H241586   0.374   1.817   3.207  1.3188 -0.4539 -0.6861
 6699TIP3   OH241587   1.019   1.193   4.150 -0.0943 -0.2397  0.4296
 6699TIP3    H141588   1.036   1.153   4.064  0.4091  0.3177  0.2697
 6699TIP3    H241589   0.923   1.199   4.154 -0.1427 -0.6974  0.1080
 6700TIP3   OH241590   1.338   0.804   4.264 -0.1756  0.3912 -0.6930
 6700TIP3    H141591   1.355   0.818   4.170 -0.1506 -0.4384 -0.8229
 6700TIP3    H241592   1.311   0.712   4.269  2.9955 -0.6159  0.5160
 6701TIP3   OH241593   2.059   4.233  15.791  0.5038 -0.2243 -0.1233
 6701TIP3    H141594   2.150   4.203  15.797  0.5185 -0.1930 -0.1949
 6701TIP3    H241595   2.051   4.300  15.859  0.9956  0.9744 -1.2173
 6702TIP3   OH241596   5.848   1.278  14.722  0.5187 -0.5397 -0.1678
 6702TIP3    H141597   5.906   1.207  14.695 -0.1432 -1.3440  0.4890
 6702TIP3    H241598   5.772   1.270  14.665  0.3387 -0.5013  0.0688
 6703TIP3   OH241599   1.485   3.162  11.297 -0.0517 -0.0971 -0.7840
 6703TIP3    H141600   1.398   3.201  11.309  0.6837  2.9896 -3.8653
 6703TIP3    H241601   1.542   3.214  11.353 -0.0127 -1.8250  0.8798
 6704TIP3   OH241602   1.425   6.684  14.096 -0.3174  0.4237 -1.1224
 6704TIP3    H141603   1.365   6.759  14.102 -0.9830 -0.1845  0.1969
 6704TIP3    H241604   1.397   6.638  14.016 -0.9945  0.6778 -1.0425
 6705TIP3   OH241605   2.057   5.127  14.374  0.5643  0.4987  0.1189
 6705TIP3    H141606   2.081   5.105  14.464  0.4031  1.2130  0.3435
 6705TIP3    H241607   2.008   5.209  14.382 -1.3113 -0.4992 -0.3761
 6706TIP3   OH241608   4.842   0.459  17.011 -0.1915  0.2729  0.5082
 6706TIP3    H141609   4.929   0.426  16.992 -0.0658  0.9523 -0.1110
 6706TIP3    H241610   4.799   0.387  17.059 -0.7909 -1.9017 -2.9240
 6707TIP3   OH241611   3.085   2.257   1.206 -0.1037  0.1700 -0.2938
 6707TIP3    H141612   3.167   2.259   1.158  1.4841  0.0403  2.2279
 6707TIP3    H241613   3.071   2.347   1.234  1.3315 -0.3684  2.5124
 6708TIP3   OH241614   0.103   1.482  12.516  0.8701  0.2691 -0.6755
 6708TIP3    H141615   0.084   1.398  12.559 -0.9947  0.7036 -0.5617
 6708TIP3    H241616   0.019   1.511  12.483  1.9517  0.8133 -3.1281
 6709TIP3   OH241617   4.590   1.574  16.939 -0.3247 -0.4094  0.1955
 6709TIP3    H141618   4.503   1.565  16.978 -0.3549  1.3484  0.6068
 6709TIP3    H241619   4.650   1.571  17.013 -0.0772 -0.9192 -0.0206
 6710TIP3   OH241620   4.653   0.599  14.289  0.1919 -0.4590 -0.3501
 6710TIP3    H141621   4.596   0.674  14.307 -0.5913 -1.7254  3.2757
 6710TIP3    H241622   4.597   0.537  14.242 -0.3807 -0.3390  0.1658
 6711TIP3   OH241623   2.608   2.882  11.586  0.2674  1.1132 -0.3759
 6711TIP3    H141624   2.651   2.844  11.662 -2.6873 -1.0622  0.3722
 6711TIP3    H241625   2.532   2.929  11.621 -0.5978  0.9258 -1.8868
 6712TIP3   OH241626   1.903   3.824   0.068  0.5766 -0.4507  0.4867
 6712TIP3    H141627   1.888   3.825   0.163  1.4553  1.6719  0.6460
 6712TIP3    H241628   1.987   3.780   0.058  1.2492  0.7089  0.8597
 6713TIP3   OH241629   6.171   2.642  16.689 -0.2123  0.1497 -0.1497
 6713TIP3    H141630   6.125   2.672  16.611  1.0192 -0.2914 -1.0995
 6713TIP3    H241631   6.143   2.551  16.700  0.9557 -0.3844 -1.2126
 6714TIP3   OH241632   5.612   2.719   0.494 -0.5252 -0.2370  0.1584
 6714TIP3    H141633   5.698   2.698   0.529  0.1369  1.3000 -0.4357
 6714TIP3    H241634   5.605   2.814   0.504 -0.8006  0.1182 -2.7152
 6715TIP3   OH241635   6.733   0.196  15.983  0.6106 -0.0128  0.0966
 6715TIP3    H141636   6.773   0.110  15.969  0.0183 -0.1466 -0.8084
 6715TIP3    H241637   6.665   0.203  15.916 -0.0532  0.7321  0.8311
 6716TIP3   OH241638   0.891   5.149  12.833 -0.1196  0.1511  0.2122
 6716TIP3    H141639   0.941   5.207  12.891 -0.1162 -0.2721  0.6350
 6716TIP3    H241640   0.804   5.189  12.829 -0.0867  0.2454  0.4127
 6717TIP3   OH241641   3.776   5.826   0.732  0.6205 -0.2420  0.1981
 6717TIP3    H141642   3.705   5.786   0.682  1.2301  1.6276 -2.3479
 6717TIP3    H241643   3.737   5.904   0.772  0.7052 -0.4621  0.7241
 6718TIP3   OH241644   2.189   0.520   5.658  0.2874 -0.1813 -0.3644
 6718TIP3    H141645   2.150   0.608   5.657  0.3576 -0.1324  0.3054
 6718TIP3    H241646   2.224   0.511   5.747 -1.0210 -1.4472  0.0676
 6719TIP3   OH241647   6.227   0.962   1.330 -0.6264  0.1021  0.1029
 6719TIP3    H141648   6.175   0.945   1.251 -0.3303  0.2069 -0.1145
 6719TIP3    H241649   6.223   1.057   1.342  0.2334  0.2180 -0.4164
 6720TIP3   OH241650   3.535   5.466  12.590 -0.5353  0.2044 -0.4735
 6720TIP3    H141651   3.573   5.469  12.677 -1.9120  1.1025  0.1310
 6720TIP3    H241652   3.564   5.548  12.549  0.5875 -0.4806 -1.0955
 6721TIP3   OH241653   5.351   4.517  14.116 -0.2034  0.3551 -0.4956
 6721TIP3    H141654   5.347   4.449  14.048 -0.3402 -0.8979  0.7220
 6721TIP3    H241655   5.291   4.486  14.184 -2.1454  2.8957 -0.9124
 6722TIP3   OH241656   6.736   3.753  15.577  0.6603  0.2092  0.0878
 6722TIP3    H141657   6.795   3.704  15.520 -0.1749 -0.2509 -0.4077
 6722TIP3    H241658   6.749   3.845  15.553  0.6747  0.0547 -0.4944
 6723TIP3   OH241659   5.393   0.706  15.822  0.2366  0.1880  0.4958
 6723TIP3    H141660   5.478   0.709  15.777  0.2217 -0.8075  0.3862
 6723TIP3    H241661   5.344   0.779  15.784 -0.0627 -1.0807 -1.7371
 6724TIP3   OH241662   0.055   2.363  13.522  0.2326  0.0554 -0.2923
 6724TIP3    H141663   0.054   2.377  13.617  0.9989  1.4935 -0.4581
 6724TIP3    H241664   0.148   2.352  13.501  0.1072  0.1780 -0.9179
 6725TIP3   OH241665   6.592   2.595  16.399 -0.3844  0.0252  0.3405
 6725TIP3    H141666   6.566   2.654  16.329  1.1123  0.6589  0.2902
 6725TIP3    H241667   6.579   2.507  16.362 -0.5347  0.3410 -0.3692
 6726TIP3   OH241668   2.748   2.796  14.830 -0.0916  0.6960 -0.4819
 6726TIP3    H141669   2.714   2.884  14.840  0.5156  0.8637  0.2226
 6726TIP3    H241670   2.803   2.782  14.907 -0.6061 -0.4942 -0.2967
 6727TIP3   OH241671   2.288   4.798  12.784  0.1827 -0.8175 -0.0031
 6727TIP3    H141672   2.271   4.831  12.872 -1.4816 -0.6212 -0.3756
 6727TIP3    H241673   2.350   4.862  12.747 -0.9255  0.4329  0.2256
 6728TIP3   OH241674   5.378   3.032  14.386  0.2262  0.1217  0.2605
 6728TIP3    H141675   5.453   3.085  14.412 -0.4427  0.5532  1.4261
 6728TIP3    H241676   5.375   2.962  14.451  1.1019 -1.3871 -1.2625
 6729TIP3   OH241677   2.043   4.194  14.281  0.1123 -0.1762 -0.4224
 6729TIP3    H141678   2.123   4.233  14.246  0.8229 -0.7986  0.4491
 6729TIP3    H241679   2.058   4.188  14.375 -1.6855  1.3092  0.0189
 6730TIP3   OH241680   1.650   2.412  13.973 -0.3336 -0.0147 -0.2113
 6730TIP3    H141681   1.601   2.396  14.054 -1.0418 -0.1233 -0.6553
 6730TIP3    H241682   1.587   2.451  13.913  0.7093  2.0197 -0.0509
 6731TIP3   OH241683   3.190   5.841  13.528 -0.2302  1.1545  0.2718
 6731TIP3    H141684   3.114   5.789  13.506  0.8381 -1.1409  1.6580
 6731TIP3    H241685   3.227   5.867  13.443  1.0788 -3.3198 -0.7994
 6732TIP3   OH241686   2.386   1.619  16.011 -0.4341 -0.3205 -0.1221
 6732TIP3    H141687   2.361   1.705  15.977 -0.2969 -0.5999 -0.9374
 6732TIP3    H241688   2.424   1.637  16.097  1.2948  0.6243 -1.0539
 6733TIP3   OH241689   0.616   2.554  15.711 -0.1895  0.2321 -0.3819
 6733TIP3    H141690   0.640   2.538  15.802  0.4695  0.3529 -0.5340
 6733TIP3    H241691   0.546   2.490  15.693 -0.1251  0.0203  0.1178
 6734TIP3   OH241692   2.727   4.055  15.065  0.1617  0.1081 -0.5848
 6734TIP3    H141693   2.749   4.005  14.987  1.8439  0.8075 -0.6017
 6734TIP3    H241694   2.634   4.074  15.056 -0.2788 -2.0199 -1.1129
 6735TIP3   OH241695   1.546   6.334  16.239 -0.7998 -0.4645  0.2707
 6735TIP3    H141696   1.461   6.290  16.238 -0.7587 -0.5484 -0.7019
 6735TIP3    H241697   1.584   6.314  16.154  0.3650 -0.7329  0.8414
 6736TIP3   OH241698   5.361   3.161  15.932 -0.4140 -0.2835 -0.2909
 6736TIP3    H141699   5.415   3.155  16.011 -0.2818  0.3061 -0.3314
 6736TIP3    H241700   5.282   3.206  15.960 -1.0684 -1.4682 -0.1488
 6737TIP3   OH241701   5.020   6.335  13.702  0.4348 -0.3506 -0.8177
 6737TIP3    H141702   4.947   6.277  13.679  0.6611 -0.2422 -1.8740
 6737TIP3    H241703   5.082   6.324  13.630  0.4168  1.3128 -1.1210
 6738TIP3   OH241704   5.797   3.124   3.613 -0.4719 -0.1086  0.1568
 6738TIP3    H141705   5.779   3.215   3.587  0.3343 -0.4588 -1.8295
 6738TIP3    H241706   5.890   3.124   3.635 -0.7543 -0.2062  1.3677
 6739TIP3   OH241707   4.106   1.816   5.627  0.0570 -0.0118 -0.4485
 6739TIP3    H141708   4.030   1.854   5.581 -0.1565  0.1779  0.0560
 6739TIP3    H241709   4.074   1.732   5.661 -0.5162  0.8976  1.3827
 6740TIP3   OH241710   2.004   5.867  17.209 -0.2280  0.0568 -0.0225
 6740TIP3    H141711   1.999   5.781  17.249 -0.3683 -1.1154 -2.4105
 6740TIP3    H241712   2.095   5.894  17.221 -0.2601 -0.2697  1.0112
 6741TIP3   OH241713   0.281   1.335   4.749 -0.4256 -0.5241  0.1716
 6741TIP3    H141714   0.282   1.318   4.655 -1.0042 -2.5877  0.4796
 6741TIP3    H241715   0.365   1.376   4.767  0.2485 -1.3034 -1.0623
 6742TIP3   OH241716   3.644   0.877   1.330  0.1166 -0.2791  0.3687
 6742TIP3    H141717   3.677   0.788   1.346 -0.5287 -1.1978 -2.7328
 6742TIP3    H241718   3.627   0.879   1.236 -1.9081  2.4724  0.6923
 6743TIP3   OH241719   2.567   5.919   2.993 -0.2618 -0.1034  0.1176
 6743TIP3    H141720   2.503   5.900   3.061 -0.4674 -1.7926 -0.4967
 6743TIP3    H241721   2.556   5.848   2.929  2.3384 -0.6046  0.1054
 6744TIP3   OH241722   4.722   5.617   5.639 -0.3509  0.1023 -0.2540
 6744TIP3    H141723   4.757   5.706   5.640 -1.9533  0.7764 -0.9957
 6744TIP3    H241724   4.667   5.613   5.718 -1.5940  0.3567 -1.0809
 6745TIP3   OH241725   3.924   2.413  13.283  0.9334 -0.5268 -0.6404
 6745TIP3    H141726   3.941   2.343  13.346  0.1382 -0.9463 -0.8756
 6745TIP3    H241727   4.003   2.416  13.229  1.5555 -0.2783  0.2574
 6746TIP3   OH241728   4.094   3.198   6.413 -0.1556 -0.2802 -0.5660
 6746TIP3    H141729   4.130   3.111   6.396  0.4000 -0.5526  1.7380
 6746TIP3    H241730   4.027   3.184   6.480 -1.0600  0.9048 -1.1875
 6747TIP3   OH241731   5.599   4.989  11.785 -0.4778 -1.1572 -0.9415
 6747TIP3    H141732   5.627   5.070  11.741  0.4800 -0.6483  0.5537
 6747TIP3    H241733   5.592   5.013  11.877  1.6119 -3.1992 -0.1663
 6748TIP3   OH241734   1.605   0.088  14.167 -0.4760 -0.1499 -0.0751
 6748TIP3    H141735   1.685   0.035  14.167 -0.8320 -0.7468 -1.6966
 6748TIP3    H241736   1.620   0.154  14.099 -0.7933  0.6625  0.6217
 6749TIP3   OH241737   6.564   1.714  16.984  0.0815  0.6053  0.3222
 6749TIP3    H141738   6.539   1.639  17.037  0.6560  0.2000  0.0368
 6749TIP3    H241739   6.600   1.675  16.904 -1.5553  1.2024 -0.7538
 6750TIP3   OH241740   2.725   5.042  12.228  0.1307  0.2365 -0.3314
 6750TIP3    H141741   2.773   5.017  12.149 -1.1467 -0.6792 -0.8524
 6750TIP3    H241742   2.791   5.041  12.297  1.2411  0.8856 -1.3278
 6751TIP3   OH241743   6.157   2.525   4.432 -0.1107  0.5113 -0.0438
 6751TIP3    H141744   6.137   2.552   4.521 -0.6457  0.6212 -0.1940
 6751TIP3    H241745   6.226   2.459   4.442 -1.2753 -0.6729  0.5757
 6752TIP3   OH241746   0.369   3.464  16.079  0.1924  1.0048 -0.2743
 6752TIP3    H141747   0.442   3.482  16.020  0.4562  0.2156 -0.1949
 6752TIP3    H241748   0.293   3.453  16.022  0.6513 -0.8705 -0.5764
 6753TIP3   OH241749   2.616   1.775   0.804  0.2908 -0.1691 -0.2546
 6753TIP3    H141750   2.530   1.770   0.761 -0.3011  0.9741  0.7487
 6753TIP3    H241751   2.673   1.721   0.749 -0.4398  1.1884 -2.4543
 6754TIP3   OH241752   4.767   4.263  16.379  0.0827  0.0850  0.5605
 6754TIP3    H141753   4.773   4.344  16.328 -0.9890  0.5529  1.1208
 6754TIP3    H241754   4.755   4.194  16.314 -2.0956  0.7601  0.1508
 6755TIP3   OH241755   1.497   6.183  16.847  0.4785  0.2754  0.6112
 6755TIP3    H141756   1.420   6.239  16.856  0.6592  0.6451 -0.1134
 6755TIP3    H241757   1.461   6.097  16.826  0.2263  0.2344  1.1802
 6756TIP3   OH241758   1.271   1.743   1.912 -0.3340 -0.0413 -0.1634
 6756TIP3    H141759   1.292   1.811   1.848 -0.4997  1.5540  1.4222
 6756TIP3    H241760   1.175   1.740   1.912 -0.3547  0.4687  0.5039
 6757TIP3   OH241761   2.390   1.243   1.765  0.1032  0.1314  0.2753
 6757TIP3    H141762   2.483   1.262   1.778 -0.2755  1.7436  0.8337
 6757TIP3    H241763   2.361   1.209   1.849 -0.1069  0.9671  0.5509
 6758TIP3   OH241764   2.073   6.447   2.410  0.8467  0.1112 -0.0171
 6758TIP3    H141765   1.992   6.435   2.459  0.1343 -1.5183 -1.4915
 6758TIP3    H241766   2.063   6.533   2.369 -1.0081 -0.7420 -1.5750
 6759TIP3   OH241767   0.937   4.236  13.649 -0.7209  0.8132 -0.0429
 6759TIP3    H141768   0.998   4.164  13.633  0.2578  1.6462 -0.1721
 6759TIP3    H241769   0.880   4.235  13.572 -1.6183 -0.6602  0.5837
 6760TIP3   OH241770   2.952   6.798   2.172  0.4083  0.0379  0.6630
 6760TIP3    H141771   2.987   6.727   2.117 -0.1911 -0.9121  1.4642
 6760TIP3    H241772   2.958   6.876   2.117 -0.1502 -0.8676 -0.7499
 6761TIP3   OH241773   2.224   0.867  13.150  0.1757  0.2428  0.4972
 6761TIP3    H141774   2.226   0.795  13.213 -0.6534  0.1412  0.4272
 6761TIP3    H241775   2.237   0.946  13.203  1.8805  0.0152  0.4766
 6762TIP3   OH241776   3.690   3.022  16.862 -0.0716 -0.9745 -0.6188
 6762TIP3    H141777   3.642   3.040  16.781 -0.3645 -1.1361 -0.4849
 6762TIP3    H241778   3.780   3.046  16.842 -0.2527 -0.4329 -0.7952
 6763TIP3   OH241779   1.271   5.588  13.679  0.0854 -0.4717  0.2578
 6763TIP3    H141780   1.319   5.518  13.723  0.1154 -0.7382 -0.1846
 6763TIP3    H241781   1.312   5.594  13.593 -0.8299 -0.8774 -0.2201
 6764TIP3   OH241782   5.728   4.925  13.208  0.2664  0.7811  0.1824
 6764TIP3    H141783   5.732   4.838  13.247 -0.3264  0.9586  0.6429
 6764TIP3    H241784   5.647   4.924  13.156 -0.0490  1.2527  0.6619
 6765TIP3   OH241785   1.122   6.146  14.533  0.0336  0.0982 -1.1299
 6765TIP3    H141786   1.127   6.188  14.620 -1.1238 -0.6238 -0.6933
 6765TIP3    H241787   1.028   6.133  14.519  0.2777 -0.6794 -2.0696
 6766TIP3   OH241788   4.381   0.776   5.595  0.1610  0.3709 -0.0400
 6766TIP3    H141789   4.472   0.781   5.568 -0.2109  0.4466 -1.3532
 6766TIP3    H241790   4.372   0.842   5.664  1.5379 -0.9913  1.5418
 6767TIP3   OH241791   4.063   1.015   1.684 -0.4125 -0.0508 -0.0439
 6767TIP3    H141792   4.051   0.977   1.597  1.4411  1.5259 -1.0869
 6767TIP3    H241793   4.014   1.097   1.681 -0.1702  0.1101  0.3033
 6768TIP3   OH241794   1.879   3.727   1.764  0.0227 -0.0293  0.0907
 6768TIP3    H141795   1.789   3.716   1.795 -0.0597 -0.4222 -0.2847
 6768TIP3    H241796   1.926   3.760   1.841 -0.8211  2.0028 -0.2092
 6769TIP3   OH241797   2.163   4.061   1.163 -0.1813 -0.4693 -0.7392
 6769TIP3    H141798   2.147   3.988   1.223 -0.9121  1.0863  1.0319
 6769TIP3    H241799   2.086   4.117   1.171  1.6136  2.0391  0.2759
 6770TIP3   OH241800   4.418   0.209  11.286  0.1072 -0.0455 -0.0546
 6770TIP3    H141801   4.403   0.190  11.193  1.7241 -1.0366 -0.1455
 6770TIP3    H241802   4.358   0.152  11.332 -0.0599 -0.2172 -0.4797
 6771TIP3   OH241803   6.718   1.745   3.646  0.3776  0.3605 -0.6115
 6771TIP3    H141804   6.648   1.794   3.691  2.3431  1.2944  1.6454
 6771TIP3    H241805   6.693   1.654   3.657  0.7887  0.5220  2.7075
 6772TIP3   OH241806   0.016   6.132  13.379 -0.1576 -0.0702  0.3282
 6772TIP3    H141807  -0.055   6.080  13.340 -0.7665  1.4453 -0.6710
 6772TIP3    H241808  -0.029   6.207  13.419  0.8596  1.0651 -0.5675
 6773TIP3   OH241809   4.291   4.605  12.668 -0.4540 -0.1566  0.0134
 6773TIP3    H141810   4.211   4.618  12.616  0.0126  1.1898 -0.3991
 6773TIP3    H241811   4.338   4.687  12.660  0.7871 -0.7908  0.6060
 6774TIP3   OH241812   6.456   0.515  11.667  0.5026 -0.1257 -0.3816
 6774TIP3    H141813   6.440   0.603  11.701  2.8196  0.0485  0.4799
 6774TIP3    H241814   6.383   0.463  11.699  0.7835  0.8079  1.9535
 6775TIP3   OH241815   2.248   4.580   0.572  0.0396  0.5738  0.1118
 6775TIP3    H141816   2.261   4.673   0.557 -1.4370  0.7196 -0.3883
 6775TIP3    H241817   2.191   4.551   0.501  2.0044 -1.1549 -0.8887
 6776TIP3   OH241818   3.064   5.410   3.425  0.5374  0.3628 -0.4678
 6776TIP3    H141819   2.992   5.463   3.459 -1.1677 -1.8097 -0.5733
 6776TIP3    H241820   3.108   5.377   3.504 -0.7377 -1.1247 -0.3575
 6777TIP3   OH241821   5.783   4.878  16.713 -0.0151  0.0255  0.6963
 6777TIP3    H141822   5.829   4.960  16.730 -1.7041  1.0648  0.4840
 6777TIP3    H241823   5.773   4.875  16.618 -2.2933  0.9712  0.8446
 6778TIP3   OH241824   0.577   2.322  11.070 -0.2227  0.1145  0.8533
 6778TIP3    H141825   0.618   2.288  10.990  1.1065  0.2959  1.4370
 6778TIP3    H241826   0.502   2.264  11.085 -1.0452  0.6301 -1.0158
 6779TIP3   OH241827   0.423   0.652  11.932 -0.3341  0.5915  0.1233
 6779TIP3    H141828   0.422   0.724  11.869 -1.7240  0.0125 -0.5672
 6779TIP3    H241829   0.459   0.578  11.883  0.3301  0.5996  0.5865
 6780TIP3   OH241830   6.119   5.218  16.112 -0.1304 -0.1780 -0.6176
 6780TIP3    H141831   6.183   5.210  16.041 -0.5493  0.4948 -1.0836
 6780TIP3    H241832   6.114   5.312  16.129 -0.0459 -0.3326  0.3039
 6781TIP3   OH241833   2.889   6.706   0.426 -0.1230 -0.2278  0.1708
 6781TIP3    H141834   2.842   6.711   0.509 -0.1337  1.1970  0.0991
 6781TIP3    H241835   2.855   6.628   0.383 -2.1071  0.5201  0.3120
 6782TIP3   OH241836   2.754   0.385   1.085 -0.0066  0.0681  0.8348
 6782TIP3    H141837   2.734   0.323   1.154 -2.4079  0.5554  0.6518
 6782TIP3    H241838   2.810   0.451   1.127  1.2738 -1.3225  1.4184
 6783TIP3   OH241839   3.466   0.464  13.385  0.1407 -0.4520 -0.4213
 6783TIP3    H141840   3.482   0.485  13.477  1.0255 -3.5734  0.2411
 6783TIP3    H241841   3.551   0.477  13.343 -0.3468  1.3263 -0.9449
 6784TIP3   OH241842   3.177   0.995   1.364  0.2442  0.0013  0.3864
 6784TIP3    H141843   3.226   0.914   1.378 -2.6325 -2.1446 -1.0457
 6784TIP3    H241844   3.209   1.028   1.280  0.2924 -0.5727  0.1732
 6785TIP3   OH241845   3.282   4.594   3.381  0.4629  0.2148 -0.3553
 6785TIP3    H141846   3.282   4.500   3.399  1.8652  0.5745  2.0827
 6785TIP3    H241847   3.241   4.603   3.295 -1.6664 -2.4207  0.2662
 6786TIP3   OH241848   6.621   5.301  13.068  0.0042 -0.1410  0.2644
 6786TIP3    H141849   6.555   5.253  13.017  1.6220 -1.9269 -0.3012
 6786TIP3    H241850   6.590   5.296  13.158 -0.9755 -0.3354 -0.0686
 6787TIP3   OH241851   3.102   3.702   6.221  0.6195 -0.3209  0.2065
 6787TIP3    H141852   3.063   3.752   6.149  0.4764 -1.2776 -0.3966
 6787TIP3    H241853   3.077   3.751   6.300  1.4109  1.1637 -0.4100
 6788TIP3   OH241854   0.059   6.535  12.375  0.2136 -0.1589  0.1120
 6788TIP3    H141855   0.154   6.524  12.385  0.1086 -0.5999  0.6475
 6788TIP3    H241856   0.027   6.450  12.345 -0.0762 -0.1578  0.4099
 6789TIP3   OH241857   1.093   6.569   6.568  0.1994  0.2597 -0.3633
 6789TIP3    H141858   1.178   6.524   6.569  0.0827  0.0291 -0.9076
 6789TIP3    H241859   1.112   6.657   6.536  0.2385  0.2231 -0.4397
 6790TIP3   OH241860   3.453   2.647  14.455  0.5181 -0.0008  0.1204
 6790TIP3    H141861   3.478   2.715  14.393  1.1650 -0.6160 -0.3145
 6790TIP3    H241862   3.406   2.693  14.525 -0.4740  0.6729 -0.9545
 6791TIP3   OH241863   1.415   0.441   3.147  0.2120  0.1746 -0.5659
 6791TIP3    H141864   1.488   0.498   3.122 -0.4286  1.1568 -0.2547
 6791TIP3    H241865   1.411   0.375   3.077  0.2935  1.1401 -1.5045
 6792TIP3   OH241866   2.156   6.778  10.090  0.0849  0.5322  0.7289
 6792TIP3    H141867   2.080   6.782  10.148  0.7351 -1.0033  1.7340
 6792TIP3    H241868   2.122   6.805  10.005 -1.6213 -0.1467  1.1530
 6793TIP3   OH241869   2.495   1.474   2.287  0.2708  0.8009  0.1404
 6793TIP3    H141870   2.566   1.497   2.227 -0.5290  1.3830 -0.6216
 6793TIP3    H241871   2.428   1.435   2.231  0.6219 -1.2715  1.0812
 6794TIP3   OH241872   4.411   3.120  11.278 -0.8075  0.3480  0.4437
 6794TIP3    H141873   4.369   3.206  11.271 -1.2769  0.1788  1.0172
 6794TIP3    H241874   4.408   3.085  11.189 -1.2095  0.6585  0.3278
 6795TIP3   OH241875   3.087   4.314   4.579  0.6242 -0.0110 -0.1201
 6795TIP3    H141876   3.158   4.340   4.520  0.2126  1.2585 -0.0840
 6795TIP3    H241877   3.068   4.223   4.555  1.8543 -0.1829 -0.5301
 6796TIP3   OH241878   0.621   3.124  12.160  0.7281  0.4111 -0.3382
 6796TIP3    H141879   0.710   3.109  12.190  0.8266 -0.7760 -1.1566
 6796TIP3    H241880   0.618   3.087  12.072 -1.0554 -1.3296  0.3614
 6797TIP3   OH241881   2.264   5.171  13.144 -0.2893  0.3866  0.7789
 6797TIP3    H141882   2.192   5.110  13.129  1.2750 -1.1600 -0.8280
 6797TIP3    H241883   2.222   5.257  13.146 -2.2430 -0.5022  0.5918
 6798TIP3   OH241884   3.977   3.383   2.533  0.4424  0.2835 -0.2258
 6798TIP3    H141885   3.924   3.303   2.535  0.3942  0.2051 -2.1912
 6798TIP3    H241886   4.056   3.362   2.583  0.4365 -1.0128 -0.7282
 6799TIP3   OH241887   0.665   5.288  10.601 -0.1926  0.0265 -0.3150
 6799TIP3    H141888   0.729   5.325  10.661  0.6890 -0.0441 -1.2002
 6799TIP3    H241889   0.716   5.251  10.530 -1.1185 -1.6525 -0.1681
 6800TIP3   OH241890   4.048   1.128  12.623  0.7151  0.1321 -0.1836
 6800TIP3    H141891   3.988   1.189  12.665  0.5305  0.0007 -0.2545
 6800TIP3    H241892   4.097   1.089  12.696  1.0092  0.5495 -0.1587
 6801TIP3   OH241893   2.274   2.435  16.285 -0.3390 -0.3270 -0.0797
 6801TIP3    H141894   2.272   2.503  16.352 -1.7664 -3.4381  3.3454
 6801TIP3    H241895   2.363   2.400  16.288 -0.4289 -0.5256  0.2637
 6802TIP3   OH241896   5.034   2.664   0.428 -0.0101  0.1552  0.5112
 6802TIP3    H141897   5.037   2.622   0.342 -0.0876  1.0074  0.0838
 6802TIP3    H241898   4.980   2.606   0.482  1.2407 -1.1464  0.4097
 6803TIP3   OH241899   6.620   6.357  12.825 -0.2342 -0.3208 -0.6639
 6803TIP3    H141900   6.635   6.409  12.904  0.8682 -0.3435 -0.8423
 6803TIP3    H241901   6.662   6.407  12.755  0.2409 -1.0997 -0.9505
 6804TIP3   OH241902   2.751   0.139   4.535 -0.8675 -0.5525 -0.1652
 6804TIP3    H141903   2.725   0.046   4.533  0.9976 -1.1500  1.2409
 6804TIP3    H241904   2.793   0.150   4.620 -0.2266  1.3749 -0.7037
 6805TIP3   OH241905   2.007   4.813   5.120 -0.3157 -0.2716 -0.4661
 6805TIP3    H141906   1.929   4.793   5.068 -0.6736 -1.6833  0.5849
 6805TIP3    H241907   2.078   4.815   5.056 -0.9473 -0.6915 -1.1969
 6806TIP3   OH241908   6.282   0.805   4.363 -0.0071  0.0390  0.2253
 6806TIP3    H141909   6.220   0.754   4.414 -0.4180  0.5719  0.2659
 6806TIP3    H241910   6.228   0.862   4.308  0.4272  1.2361  0.9937
 6807TIP3   OH241911   6.386   0.145  14.760  0.4899 -0.2087 -0.1581
 6807TIP3    H141912   6.445   0.129  14.686  1.1370  1.4344 -0.0454
 6807TIP3    H241913   6.304   0.171  14.719  0.9683  1.1072 -0.3388
 6808TIP3   OH241914   4.309   6.283  11.483  0.1909 -0.2795  0.2232
 6808TIP3    H141915   4.359   6.355  11.444  1.2979 -0.1911  1.7173
 6808TIP3    H241916   4.277   6.233  11.408  3.8112 -1.2245 -0.8695
 6809TIP3   OH241917   1.343   1.975   5.202 -0.5263 -0.4741 -0.5125
 6809TIP3    H141918   1.314   1.897   5.156 -0.4627  0.7130 -2.6930
 6809TIP3    H241919   1.384   2.029   5.135 -2.0462  2.1617  0.5151
 6810TIP3   OH241920   1.426   4.047   6.179  0.0431  0.5030  0.7501
 6810TIP3    H141921   1.513   4.012   6.160 -0.2927  0.3009 -0.4745
 6810TIP3    H241922   1.392   4.074   6.094 -1.7213 -0.8472  0.9731
 6811TIP3   OH241923   2.798   2.904  13.487  0.0945 -0.1161 -0.2409
 6811TIP3    H141924   2.793   2.810  13.471  1.4475  0.0168 -1.6919
 6811TIP3    H241925   2.759   2.944  13.409  1.3273  0.5258 -0.5528
 6812TIP3   OH241926   6.731   3.821  12.596 -0.0674 -1.0317 -0.6011
 6812TIP3    H141927   6.716   3.915  12.607 -0.3383 -1.0231 -1.0553
 6812TIP3    H241928   6.678   3.796  12.521  0.3359 -1.4679 -0.7461
 6813TIP3   OH241929   3.027   1.826  11.355  0.4689  0.2736 -0.1521
 6813TIP3    H141930   3.037   1.879  11.434  0.0349  2.1200 -1.2635
 6813TIP3    H241931   3.036   1.889  11.283 -0.7036 -1.0666 -1.5459
 6814TIP3   OH241932   0.469   5.761  12.226  0.1083 -0.1046 -0.1016
 6814TIP3    H141933   0.412   5.710  12.168  0.9573 -1.6273  0.3531
 6814TIP3    H241934   0.408   5.805  12.286 -0.7270  0.6965 -1.4636
 6815TIP3   OH241935   1.436   1.253   5.651  0.3140 -0.3120 -0.2651
 6815TIP3    H141936   1.384   1.207   5.717  0.2330 -0.2983 -0.3190
 6815TIP3    H241937   1.374   1.271   5.580  0.4665 -0.5739 -0.4670
 6816TIP3   OH241938   0.411   6.168  11.506 -0.3164 -0.2077  0.4140
 6816TIP3    H141939   0.437   6.086  11.547  1.3918 -0.3200 -0.7916
 6816TIP3    H241940   0.379   6.142  11.419  1.2677  0.4624 -0.3945
 6817TIP3   OH241941   1.825   3.797   1.115 -0.1062  0.0097  0.1131
 6817TIP3    H141942   1.772   3.753   1.181 -1.0777 -2.1937 -1.9458
 6817TIP3    H241943   1.765   3.809   1.041  1.4291  0.4621 -1.1050
 6818TIP3   OH241944   6.079   5.998  17.221  0.1867  0.0615  0.5415
 6818TIP3    H141945   6.009   6.042  17.173  1.0789  0.6995 -0.2143
 6818TIP3    H241946   6.132   5.956  17.153  0.8929  0.1113  1.0472
 6819TIP3   OH241947   1.030   2.351  12.959 -1.0437  0.0174  0.0835
 6819TIP3    H141948   1.082   2.426  12.986 -1.2370 -0.0820  0.7484
 6819TIP3    H241949   1.038   2.349  12.864 -0.5660  0.5326  0.1100
 6820TIP3   OH241950   1.512   4.197  10.815  0.3996 -0.6222 -0.5165
 6820TIP3    H141951   1.487   4.111  10.851 -0.9977  0.4101  1.1401
 6820TIP3    H241952   1.599   4.213  10.850  0.6351 -1.3257 -0.7652
 6821TIP3   OH241953   1.272   0.070  13.099 -0.0608 -0.4834  0.4242
 6821TIP3    H141954   1.248  -0.006  13.046  0.2056 -0.2764  0.0028
 6821TIP3    H241955   1.215   0.065  13.176  0.9882 -1.9686  1.1630
 6822TIP3   OH241956   1.136   2.347  11.176 -0.7257  0.2947 -0.0382
 6822TIP3    H141957   1.113   2.434  11.208 -1.4963  0.2956 -0.5703
 6822TIP3    H241958   1.064   2.291  11.205  1.1402 -0.8345  2.9411
 6823TIP3   OH241959   1.857   0.546  14.498 -0.2203  0.3082 -0.1587
 6823TIP3    H141960   1.823   0.564  14.411 -1.0086  0.3795  0.1540
 6823TIP3    H241961   1.779   0.536  14.553  0.2586 -0.2268  0.4394
 6824TIP3   OH241962   5.120   0.538  15.674  0.5163 -0.2143 -0.7350
 6824TIP3    H141963   5.195   0.516  15.618  0.9394 -0.2871 -0.1411
 6824TIP3    H241964   5.055   0.471  15.654  1.5938 -1.7568  0.6808
 6825TIP3   OH241965   3.438   0.093   1.001 -0.4735  0.0476 -0.0950
 6825TIP3    H141966   3.431   0.182   0.968 -1.0893 -0.1906 -0.6266
 6825TIP3    H241967   3.371   0.087   1.068 -0.3557  0.0149  0.0214
 6826TIP3   OH241968   0.085   3.108  12.540 -0.7706 -0.1723 -0.3595
 6826TIP3    H141969   0.027   3.101  12.616  0.2485  2.5638  0.7918
 6826TIP3    H241970   0.030   3.145  12.471 -1.2641 -1.0408 -0.4517
 6827TIP3   OH241971   0.511   5.224   2.513 -0.6672  0.6414 -0.0499
 6827TIP3    H141972   0.542   5.134   2.523 -1.8037  0.4037  1.7855
 6827TIP3    H241973   0.492   5.253   2.602 -2.4630  1.9171 -0.7770
 6828TIP3   OH241974   1.755   2.684  12.082  0.2764  0.5398  0.3325
 6828TIP3    H141975   1.780   2.768  12.120  4.6593 -0.3151 -0.1345
 6828TIP3    H241976   1.760   2.622  12.154 -1.7878  0.4191  0.4252
 6829TIP3   OH241977   0.539   4.136  15.011 -0.2434 -0.1071  0.2536
 6829TIP3    H141978   0.467   4.079  15.040  0.8608 -1.1979  0.9621
 6829TIP3    H241979   0.571   4.177  15.091 -0.2820  0.6300 -0.1026
 6830TIP3   OH241980   6.333   1.936  12.843 -0.3386  0.2620  0.8373
 6830TIP3    H141981   6.279   1.935  12.922 -0.6100 -0.0884  0.6519
 6830TIP3    H241982   6.346   2.029  12.824 -1.3058  0.3671  0.6005
 6831TIP3   OH241983   6.344   1.807   6.333  0.0242 -0.0902  0.1004
 6831TIP3    H141984   6.398   1.744   6.381  1.2446  1.5624  0.9846
 6831TIP3    H241985   6.391   1.821   6.251  1.0383  1.3922  0.8945
 6832TIP3   OH241986   6.144   2.200   4.747 -0.1216  0.1457  0.0880
 6832TIP3    H141987   6.166   2.115   4.707  1.0056  0.4202  0.0940
 6832TIP3    H241988   6.207   2.210   4.818  1.3399  2.0578 -1.3725
 6833TIP3   OH241989   0.694   1.676   0.607  0.1418 -0.3105  0.2364
 6833TIP3    H141990   0.709   1.582   0.608 -0.2232 -0.3728  1.2104
 6833TIP3    H241991   0.644   1.693   0.687  0.5085  0.7581  0.2542
 6834TIP3   OH241992   1.731   0.257  13.985 -0.3978  0.0771 -0.8614
 6834TIP3    H141993   1.758   0.199  13.914 -0.8262 -0.0623 -0.9103
 6834TIP3    H241994   1.804   0.254  14.047 -0.7940 -1.2059 -0.4410
 6835TIP3   OH241995   5.119   3.306   0.666 -0.3790 -0.4955 -0.0445
 6835TIP3    H141996   5.134   3.217   0.633 -1.2400  0.1344 -2.3459
 6835TIP3    H241997   5.026   3.307   0.690 -1.1893  0.4874 -2.8025
 6836TIP3   OH241998   3.062   2.099  12.986 -0.5013  0.0743 -0.1025
 6836TIP3    H141999   3.031   2.133  12.902 -0.5277  0.7980  0.1971
 6836TIP3    H242000   2.997   2.033  13.011 -0.0246 -0.8079 -1.0730
 6837TIP3   OH242001   0.292   3.070  15.689 -0.2929  0.0391  0.2163
 6837TIP3    H142002   0.372   3.076  15.637 -0.9473  0.2856 -0.7867
 6837TIP3    H242003   0.222   3.062  15.625 -1.0385 -0.6811  1.0955
 6838TIP3   OH242004   4.266   6.740   3.707 -0.1604  0.2984 -0.0661
 6838TIP3    H142005   4.234   6.679   3.774 -2.1778  1.8146  0.4383
 6838TIP3    H242006   4.310   6.809   3.756 -1.0570  1.0719 -0.3241
 6839TIP3   OH242007   2.996   2.275   4.102 -0.5071  0.1847  0.3434
 6839TIP3    H142008   2.986   2.180   4.103 -0.6846  0.1916 -0.5325
 6839TIP3    H242009   2.907   2.309   4.112 -0.4897  0.2598  0.2420
 6840TIP3   OH242010   0.361   4.552   0.377 -0.7123  0.3466  0.3623
 6840TIP3    H142011   0.420   4.503   0.435  0.4896 -0.0332 -1.1292
 6840TIP3    H242012   0.275   4.513   0.393 -0.2473 -0.3936  1.1799
 6841TIP3   OH242013   4.256   0.164  11.705  0.1756  0.2377 -0.2335
 6841TIP3    H142014   4.342   0.207  11.700 -0.5727  1.8230 -0.2125
 6841TIP3    H242015   4.274   0.079  11.743  1.6758  0.7563  0.2963
 6842TIP3   OH242016   3.901   5.454  15.681 -0.1724 -0.0096 -0.4272
 6842TIP3    H142017   3.934   5.374  15.722 -0.4778  0.4980  0.8559
 6842TIP3    H242018   3.955   5.524  15.717 -0.3264  0.4437 -1.0539
 6843TIP3   OH242019   4.365   6.467   5.560  0.7347 -0.4379  0.4856
 6843TIP3    H142020   4.435   6.402   5.570  1.3094  0.2001  0.6993
 6843TIP3    H242021   4.380   6.506   5.474 -0.7088 -1.8416 -0.4607
 6844TIP3   OH242022   5.914   0.177   2.571  0.1188 -0.4941 -0.6363
 6844TIP3    H142023   5.860   0.189   2.493  1.6247  0.0224 -1.6555
 6844TIP3    H242024   6.004   0.176   2.537  0.8794  0.8112  1.1847
 6845TIP3   OH242025   6.147   5.555   2.522 -0.0847  0.0924  0.0326
 6845TIP3    H142026   6.067   5.595   2.555 -1.2128 -0.5089 -1.8143
 6845TIP3    H242027   6.159   5.593   2.435 -0.1262 -2.0684 -0.9930
 6846TIP3   OH242028   1.719   5.889   3.650 -0.3078 -0.5162  0.4848
 6846TIP3    H142029   1.683   5.819   3.705 -0.1047 -0.5684  0.5528
 6846TIP3    H242030   1.722   5.966   3.707  2.4586 -1.2133  1.4322
 6847TIP3   OH242031   3.714   4.694  13.553  0.3639 -0.0641  0.4495
 6847TIP3    H142032   3.758   4.775  13.526  3.1493 -1.2508  1.0466
 6847TIP3    H242033   3.786   4.635  13.577 -1.5460 -2.8006 -0.1292
 6848TIP3   OH242034   2.009   6.716   2.077 -0.8375  0.4876  0.6303
 6848TIP3    H142035   2.052   6.636   2.048 -3.5948 -0.7652 -0.4109
 6848TIP3    H242036   2.080   6.775   2.101  1.3165 -2.0944  1.0128
 6849TIP3   OH242037   0.654   6.421  13.266  0.1614 -0.3693  0.0812
 6849TIP3    H142038   0.710   6.499  13.274  0.0147 -0.1577 -0.8437
 6849TIP3    H242039   0.570   6.449  13.302  0.3599 -0.3796  0.5617
 6850TIP3   OH242040   3.164   4.822  11.766  0.2347 -0.0033  0.4110
 6850TIP3    H142041   3.102   4.764  11.809 -1.1590  0.3841 -0.9870
 6850TIP3    H242042   3.154   4.906  11.812 -0.1219 -0.0068  0.3454
 6851TIP3   OH242043   0.293   1.639  15.893 -0.2203  0.2383  0.0578
 6851TIP3    H142044   0.348   1.717  15.899  0.8189 -0.3111 -1.5075
 6851TIP3    H242045   0.224   1.662  15.832 -0.7015  0.3453  0.6318
 6852TIP3   OH242046   3.930   1.891  15.567 -0.1951 -0.5155 -0.0891
 6852TIP3    H142047   3.999   1.844  15.520 -1.1987 -1.0869 -1.0175
 6852TIP3    H242048   3.956   1.983  15.561 -0.2959 -0.5670 -1.7859
 6853TIP3   OH242049   5.464   5.931  13.457  0.0722 -0.0392  0.0651
 6853TIP3    H142050   5.410   5.970  13.387  1.0824  0.2244 -0.5813
 6853TIP3    H242051   5.523   6.002  13.483  0.6274 -0.5592  0.2288
 6854TIP3   OH242052   0.068   2.558  11.512  0.2130  0.3317 -0.3223
 6854TIP3    H142053   0.145   2.591  11.465  0.5101  1.0898  0.6784
 6854TIP3    H242054  -0.006   2.599  11.468  0.4107  0.1080 -0.8759
 6855TIP3   OH242055   0.829   5.358   1.540  0.1694  0.1368  0.3342
 6855TIP3    H142056   0.761   5.425   1.552 -0.0971 -0.0520 -0.0725
 6855TIP3    H242057   0.908   5.408   1.520  0.0587  0.3466  0.4145
 6856TIP3   OH242058   5.045   5.142  12.689 -0.1295  0.2771 -0.5499
 6856TIP3    H142059   5.086   5.205  12.749  0.4455  0.3117 -0.9764
 6856TIP3    H242060   5.046   5.059  12.736  1.1899  0.0946 -0.8726
 6857TIP3   OH242061   1.226   1.616   1.534 -0.9671  0.0170  0.4572
 6857TIP3    H142062   1.154   1.629   1.596 -0.3869 -0.0755  1.1680
 6857TIP3    H242063   1.246   1.522   1.540 -1.3316 -0.1165 -0.3526
 6858TIP3   OH242064   1.661   3.965  14.491  0.0319 -0.5572  1.0538
 6858TIP3    H142065   1.588   3.903  14.486  0.3303 -1.0013  1.9567
 6858TIP3    H242066   1.714   3.934  14.564  1.3027 -0.4299  0.2254
 6859TIP3   OH242067   6.319   3.254  15.972  0.2116 -0.2002 -0.3189
 6859TIP3    H142068   6.257   3.306  15.921 -0.1852 -1.1301 -0.8000
 6859TIP3    H242069   6.396   3.247  15.916 -0.1711 -1.1007 -0.7471
 6860TIP3   OH242070   0.925   0.559  10.525  0.4745  0.2389 -0.2979
 6860TIP3    H142071   0.839   0.527  10.555 -0.2103  1.6875 -0.6617
 6860TIP3    H242072   0.987   0.497  10.563 -0.7301 -0.8819 -0.0737
 6861TIP3   OH242073   1.648   1.522  11.597  0.0470  0.2240  0.3245
 6861TIP3    H142074   1.628   1.500  11.688 -2.2097 -0.9070 -0.3735
 6861TIP3    H242075   1.584   1.590  11.574  0.4744  0.3753 -0.4679
 6862TIP3   OH242076   5.994   2.161  12.415 -0.4735  0.5280 -0.3882
 6862TIP3    H142077   5.995   2.068  12.437  0.1347  0.7560  0.5889
 6862TIP3    H242078   6.003   2.163  12.319  3.7777 -0.3575 -0.2105
 6863TIP3   OH242079   1.553   5.426  11.094  0.1593  0.0005 -0.6382
 6863TIP3    H142080   1.574   5.416  11.001  1.6987  0.0020 -0.3184
 6863TIP3    H242081   1.501   5.506  11.099 -0.3300 -0.2485 -1.5445
 6864TIP3   OH242082   1.537   3.382  14.671  0.2667  0.4007  0.0780
 6864TIP3    H142083   1.594   3.402  14.746  0.4039 -0.5946  0.2504
 6864TIP3    H242084   1.456   3.351  14.711  0.6647 -1.0314 -0.1647
 6865TIP3   OH242085   1.139   2.166  12.015 -0.4394  0.7633 -0.4780
 6865TIP3    H142086   1.189   2.145  12.094 -1.2132 -1.8614 -0.5840
 6865TIP3    H242087   1.179   2.246  11.981  2.2891 -0.0465  0.5849
 6866TIP3   OH242088   2.094   2.098  13.519  0.0892 -0.1411 -0.7013
 6866TIP3    H142089   2.113   2.126  13.429  2.8224 -0.2908 -0.2463
 6866TIP3    H242090   2.139   2.014  13.528 -0.8381 -0.5371  0.5924
 6867TIP3   OH242091   2.477   4.864   0.115 -0.5643  0.0427  0.0955
 6867TIP3    H142092   2.535   4.828   0.048 -1.1484 -0.4157 -0.1679
 6867TIP3    H242093   2.505   4.956   0.123  0.8471 -0.4148  0.6886
 6868TIP3   OH242094   6.781   5.265   5.372  0.3945 -0.4504  0.2963
 6868TIP3    H142095   6.864   5.312   5.360  1.4950 -1.7932  2.1241
 6868TIP3    H242096   6.716   5.335   5.383  1.7404  0.7017  1.5244
 6869TIP3   OH242097   4.396   4.808  15.949 -0.1045  0.3050  0.4518
 6869TIP3    H142098   4.410   4.763  15.866 -0.8946  0.2611  0.3417
 6869TIP3    H242099   4.305   4.789  15.972 -0.1587  1.0530  0.8783
 6870TIP3   OH242100   1.451   5.058   3.146 -0.0280 -0.2080  0.5456
 6870TIP3    H142101   1.415   5.036   3.060 -0.6242  0.7505  0.5321
 6870TIP3    H242102   1.404   5.138   3.171  1.9560  0.9942  0.6028
 6871TIP3   OH242103   0.731   2.525  15.110  0.1690  0.1927 -0.1768
 6871TIP3    H142104   0.788   2.545  15.184  0.3088  1.5696 -0.6153
 6871TIP3    H242105   0.787   2.536  15.033 -0.5169  0.9716 -0.5823
 6872TIP3   OH242106   2.440   5.094  16.789  0.2602  0.1829  0.6905
 6872TIP3    H142107   2.451   5.165  16.726  0.5523 -0.9981 -0.6460
 6872TIP3    H242108   2.405   5.136  16.868 -2.2696  1.3946 -0.9708
 6873TIP3   OH242109   6.417   5.835  13.296 -0.1443  1.2009  0.1569
 6873TIP3    H142110   6.365   5.773  13.347  1.2413 -0.1803 -0.0675
 6873TIP3    H242111   6.418   5.799  13.208  2.0241  0.6106  0.3681
 6874TIP3   OH242112   3.028   4.857   3.133  0.3221  0.0325 -0.3914
 6874TIP3    H142113   3.060   4.877   3.046  2.4711 -0.3874  0.2606
 6874TIP3    H242114   3.002   4.941   3.170  0.7487  0.3912 -0.9106
 6875TIP3   OH242115   6.146   6.728   6.318  0.5321 -0.2202  0.1243
 6875TIP3    H142116   6.191   6.768   6.392 -2.7322  0.9203  1.6566
 6875TIP3    H242117   6.107   6.801   6.271 -0.4905 -1.1979 -0.6023
 6876TIP3   OH242118   6.799   1.196  15.085  0.1054  0.4631 -0.6756
 6876TIP3    H142119   6.776   1.121  15.031  3.4961 -0.8595 -0.5151
 6876TIP3    H242120   6.847   1.254  15.026  1.1968  0.4546  0.1753
 6877TIP3   OH242121   5.513   6.139  12.869  0.5872 -0.1667 -0.1333
 6877TIP3    H142122   5.547   6.211  12.922  1.6592  0.0520 -1.0795
 6877TIP3    H242123   5.586   6.114  12.812 -0.6710  0.0079 -1.9240
 6878TIP3   OH242124   1.417   3.874   4.234  0.0511 -0.1254  0.1543
 6878TIP3    H142125   1.476   3.843   4.303  0.2576 -1.5952 -0.6401
 6878TIP3    H242126   1.430   3.969   4.233  1.0201 -0.2167  1.2424
 6879TIP3   OH242127   4.496   6.051  14.885 -0.1803 -0.0876 -0.3037
 6879TIP3    H142128   4.519   6.020  14.973  1.1984  0.0824 -0.5953
 6879TIP3    H242129   4.514   6.145  14.888  1.8099 -0.3878 -1.3469
 6880TIP3   OH242130   4.385   6.634   5.343 -0.1154 -0.1358  0.2177
 6880TIP3    H142131   4.324   6.705   5.325  0.0169 -0.6043 -2.4400
 6880TIP3    H242132   4.427   6.616   5.259  0.1064 -3.1115  0.8497
 6881TIP3   OH242133   3.173   0.507  14.711  0.0116 -0.3762  0.2411
 6881TIP3    H142134   3.157   0.413  14.698 -0.1708 -0.4826  1.1546
 6881TIP3    H242135   3.268   0.515  14.716  0.0033 -0.5924  0.7327
 6882TIP3   OH242136   5.504   5.895   1.863  0.0206 -0.3053  0.2134
 6882TIP3    H142137   5.490   5.839   1.786  1.1224  1.0058 -0.9984
 6882TIP3    H242138   5.416   5.921   1.890 -0.3903 -0.8250 -0.5919
 6883TIP3   OH242139   5.838   5.299   4.514 -0.3971 -0.1227 -0.1526
 6883TIP3    H142140   5.931   5.282   4.529  0.9573  4.4406 -1.8410
 6883TIP3    H242141   5.828   5.298   4.419 -1.7829  0.7449 -0.0376
 6884TIP3   OH242142   0.539   4.768   6.401  0.7910  0.0465  0.3797
 6884TIP3    H142143   0.535   4.773   6.306  0.0560 -0.4384  0.3753
 6884TIP3    H242144   0.520   4.857   6.431 -0.0327 -0.0166  0.0841
 6885TIP3   OH242145   3.449   6.080   3.494 -0.4400  0.8784  0.0127
 6885TIP3    H142146   3.395   6.032   3.431 -1.1838  1.6212  0.0570
 6885TIP3    H242147   3.388   6.142   3.534  0.0659  0.5526  1.3261
 6886TIP3   OH242148   5.309   3.123  11.630 -0.1498 -0.1273  0.7596
 6886TIP3    H142149   5.369   3.082  11.691 -0.1378 -1.5948 -0.1821
 6886TIP3    H242150   5.225   3.080  11.646 -0.0980 -0.6876 -0.3556
 6887TIP3   OH242151   3.005   0.840   1.159 -0.1538 -0.0573 -0.2529
 6887TIP3    H142152   2.960   0.761   1.130 -0.7473  0.7256 -1.5571
 6887TIP3    H242153   3.046   0.815   1.242  2.4085 -2.7228 -2.1261
 6888TIP3   OH242154   6.159   6.674  12.387 -0.1856  0.3773  0.3543
 6888TIP3    H142155   6.136   6.608  12.452 -1.2417  0.1928 -0.1821
 6888TIP3    H242156   6.096   6.660  12.316 -0.2304  1.7557  0.0952
 6889TIP3   OH242157   5.769   1.837   3.938  0.2964 -0.1652 -0.0688
 6889TIP3    H142158   5.751   1.757   3.889 -0.9816  0.2126 -0.2642
 6889TIP3    H242159   5.688   1.855   3.985  0.4442  1.1635 -0.2625
 6890TIP3   OH242160   1.597   0.008   2.507 -0.2291 -0.0870  0.4380
 6890TIP3    H142161   1.550  -0.003   2.425 -1.6601  0.0888  1.1941
 6890TIP3    H242162   1.605  -0.080   2.543  0.7307 -0.2102 -0.0423
 6891TIP3   OH242163   0.947   1.733  14.961 -0.3162  0.0438  0.0875
 6891TIP3    H142164   1.039   1.761  14.958 -0.4409  0.3713 -1.8466
 6891TIP3    H242165   0.900   1.807  14.999 -0.1255  1.0212 -1.4967
 6892TIP3   OH242166   2.819   2.124   0.724 -0.5122 -0.2797  0.4566
 6892TIP3    H142167   2.840   2.208   0.684 -0.4725 -0.2289  0.5836
 6892TIP3    H242168   2.846   2.133   0.815 -0.5807 -0.4028  0.4900
 6893TIP3   OH242169   4.346   4.960   4.161  0.5100 -0.1769  0.0468
 6893TIP3    H142170   4.414   5.000   4.215 -0.2073 -0.7195  1.4262
 6893TIP3    H242171   4.384   4.954   4.074  1.5237  1.2236  0.3648
 6894TIP3   OH242172   5.305   4.858   4.521 -0.3752 -1.0710 -0.5071
 6894TIP3    H142173   5.394   4.835   4.495 -0.1859  0.5245 -1.3871
 6894TIP3    H242174   5.307   4.857   4.617  1.7899  2.7912 -0.2961
 6895TIP3   OH242175   3.639   3.754   3.060  0.1014  0.0317 -0.1927
 6895TIP3    H142176   3.663   3.682   3.119  1.0697  1.0355  0.6883
 6895TIP3    H242177   3.689   3.736   2.980 -2.0746 -1.9514 -1.2269
 6896TIP3   OH242178   0.948   0.987  15.541 -0.1126  0.4032 -0.6918
 6896TIP3    H142179   0.914   0.994  15.631 -2.8827  1.3675 -1.7010
 6896TIP3    H242180   0.958   0.893  15.527  0.5432  0.2397  0.6471
 6897TIP3   OH242181   2.439   5.391  12.731 -0.4562 -0.0656 -0.4758
 6897TIP3    H142182   2.529   5.420  12.741 -0.7900  0.6444  0.7345
 6897TIP3    H242183   2.431   5.365  12.639  0.6387  1.0327 -0.9037
 6898TIP3   OH242184   1.373   2.623  16.852  0.1335 -0.2554  0.4662
 6898TIP3    H142185   1.347   2.619  16.760 -0.8223  0.6356  0.6859
 6898TIP3    H242186   1.294   2.649  16.899  0.4240 -1.3960  1.6463
 6899TIP3   OH242187   0.457   0.605  10.266  0.2052 -0.1572 -0.0396
 6899TIP3    H142188   0.402   0.568  10.197 -0.1857  0.2812  0.0312
 6899TIP3    H242189   0.398   0.615  10.340  0.5603 -0.3708  0.2719
 6900TIP3   OH242190   5.155   3.020  13.435 -0.4653  0.5230  0.0134
 6900TIP3    H142191   5.119   2.954  13.376 -0.1560 -0.1631  0.5767
 6900TIP3    H242192   5.078   3.065  13.470 -0.6533  0.8857 -0.8325
 6901TIP3   OH242193   1.314   5.485  14.212  0.9312  0.1426 -1.0044
 6901TIP3    H142194   1.314   5.559  14.151 -0.8801  0.4591 -0.6715
 6901TIP3    H242195   1.238   5.501  14.269  0.3788 -2.0723 -1.0500
 6902TIP3   OH242196   5.682   2.644  12.880  0.4178 -0.3563 -0.4550
 6902TIP3    H142197   5.617   2.691  12.828 -1.8859 -1.4112  1.3062
 6902TIP3    H242198   5.643   2.558  12.896  3.0212 -1.6869 -0.7277
 6903TIP3   OH242199   5.017   5.568   4.942  0.0266 -0.0126 -0.2200
 6903TIP3    H142200   5.052   5.542   4.857 -2.4395  0.4467 -1.4936
 6903TIP3    H242201   5.046   5.659   4.953  2.2319 -0.7500  0.5797
 6904TIP3   OH242202   6.478   2.583  16.687  0.6393 -0.3949  0.2868
 6904TIP3    H142203   6.396   2.622  16.657  0.6520 -0.1326  0.5899
 6904TIP3    H242204   6.490   2.506  16.631  0.6822  0.1102 -0.4028
 6905TIP3   OH242205   3.297   2.597  16.388 -0.0571 -0.3211 -0.1592
 6905TIP3    H142206   3.296   2.661  16.317  1.3972  0.0481  0.1178
 6905TIP3    H242207   3.212   2.554  16.383 -0.6871  0.9689 -0.9594
 6906TIP3   OH242208   4.543   5.863   2.496 -0.3028 -0.0004  0.2902
 6906TIP3    H142209   4.576   5.871   2.407  0.1463  1.5159  0.5639
 6906TIP3    H242210   4.615   5.824   2.546 -0.5235 -0.7659  0.0307
 6907TIP3   OH242211   2.766   6.076  15.347  0.5470 -0.2738 -0.0087
 6907TIP3    H142212   2.811   5.992  15.337  0.3345 -0.4832  0.7186
 6907TIP3    H242213   2.816   6.122  15.415 -1.0596 -1.0473  1.7935
 6908TIP3   OH242214   2.919   6.688   1.558  0.3333  0.0501 -0.5081
 6908TIP3    H142215   2.965   6.605   1.568 -0.7758 -0.5782 -0.3552
 6908TIP3    H242216   2.893   6.712   1.647  2.2603  1.5681 -0.2931
 6909TIP3   OH242217   3.610   4.233   2.072 -0.4640  0.3505  0.5776
 6909TIP3    H142218   3.658   4.312   2.097  0.6011  0.1433 -0.6783
 6909TIP3    H242219   3.601   4.183   2.153  3.7986 -0.8349  0.5876
 6910TIP3   OH242220   4.222   4.256   6.258 -0.0984 -0.1146  0.7314
 6910TIP3    H142221   4.242   4.190   6.324 -0.2835  0.1233  1.0354
 6910TIP3    H242222   4.296   4.316   6.261  0.0675 -0.3089  0.4582
 6911TIP3   OH242223   0.723   6.388  11.167 -0.7801 -0.5512  0.3546
 6911TIP3    H142224   0.751   6.390  11.258  0.1618  0.5033  0.0634
 6911TIP3    H242225   0.634   6.352  11.169  0.2538 -3.2689  1.4044
 6912TIP3   OH242226   3.530   2.738  16.602  0.2328  0.0808 -0.5918
 6912TIP3    H142227   3.581   2.659  16.618 -1.1357 -0.9011 -0.8939
 6912TIP3    H242228   3.439   2.709  16.602 -0.5189  2.0597  1.7745
 6913TIP3   OH242229   5.087   1.671   3.812 -0.0562 -0.3584 -0.0755
 6913TIP3    H142230   5.063   1.587   3.852  0.6603 -0.4196  0.2360
 6913TIP3    H242231   5.162   1.702   3.864 -0.1872  0.3779 -0.3125
 6914TIP3   OH242232   3.074   5.077   6.096  0.2814  0.1239 -0.3635
 6914TIP3    H142233   3.152   5.101   6.046 -0.0464  0.1284 -0.8744
 6914TIP3    H242234   3.060   5.151   6.156 -0.8960  1.3972 -2.1271
 6915TIP3   OH242235   3.815   0.751   4.515  0.8381 -0.0037  0.0645
 6915TIP3    H142236   3.897   0.794   4.540  2.2841 -3.5227  2.1526
 6915TIP3    H242237   3.834   0.709   4.432  0.1316  1.4653 -0.8819
 6916TIP3   OH242238   1.476   6.098   1.940 -0.6928 -0.0022 -0.0368
 6916TIP3    H142239   1.449   6.052   2.019  1.2018 -1.5146 -0.2044
 6916TIP3    H242240   1.551   6.048   1.907  0.0345  1.9290 -1.5026
 6917TIP3   OH242241   5.901   6.173   2.281  0.6280 -0.2780 -0.1033
 6917TIP3    H142242   5.946   6.096   2.316  0.4256  1.3602  4.4749
 6917TIP3    H242243   5.818   6.177   2.330 -0.8097  1.1938 -2.4550
 6918TIP3   OH242244   1.622   1.370  12.873 -0.2690 -0.5329  0.7560
 6918TIP3    H142245   1.633   1.396  12.964  2.0394 -1.2743  0.7646
 6918TIP3    H242246   1.652   1.445  12.822 -2.4943  0.2656  0.5214
 6919TIP3   OH242247   5.486   4.667  13.650 -0.5536  0.9751 -0.0698
 6919TIP3    H142248   5.433   4.587  13.645 -0.2786  0.8241 -0.6002
 6919TIP3    H242249   5.424   4.738  13.631 -0.4454  0.7504 -1.3316
 6920TIP3   OH242250   3.621   4.407  13.775  0.0144  0.1717  0.0045
 6920TIP3    H142251   3.535   4.433  13.807 -0.3012 -0.6601 -0.1411
 6920TIP3    H242252   3.681   4.474  13.810 -0.8275  1.4304 -0.8613
 6921TIP3   OH242253   1.716   2.634  10.908  0.1587 -0.0080  0.5856
 6921TIP3    H142254   1.783   2.679  10.960  1.2934 -0.1873 -0.6642
 6921TIP3    H242255   1.654   2.703  10.883  1.3093  0.6985 -0.4220
 6922TIP3   OH242256   3.626   5.380  13.813 -0.2488  0.2146  0.1193
 6922TIP3    H142257   3.623   5.474  13.829 -0.1563  0.5400 -1.5788
 6922TIP3    H242258   3.547   5.345  13.853 -1.6532  1.4163 -1.4676
 6923TIP3   OH242259   5.503   1.991  15.128 -0.0502  0.7308  0.1772
 6923TIP3    H142260   5.495   2.085  15.141  3.5610  0.9461  2.1831
 6923TIP3    H242261   5.572   1.981  15.062 -0.0548 -0.4809  0.3304
 6924TIP3   OH242262   6.435   5.712   5.093 -0.1373 -0.2905  0.8170
 6924TIP3    H142263   6.371   5.641   5.090  0.3208 -0.8482  2.8823
 6924TIP3    H242264   6.515   5.670   5.126  0.7526  0.7871  0.1055
 6925TIP3   OH242265   1.100   5.908  15.948 -0.3222 -0.0823  0.6733
 6925TIP3    H142266   1.075   5.972  16.015 -1.9703  0.9677 -0.8292
 6925TIP3    H242267   1.017   5.886  15.905  0.7125 -0.3582 -1.2853
 6926TIP3   OH242268   1.210   5.952   3.223  0.2031 -0.0908  0.2578
 6926TIP3    H142269   1.267   5.885   3.184 -3.0142 -2.6084 -0.5261
 6926TIP3    H242270   1.189   6.011   3.151 -0.1439 -0.6091 -0.0679
 6927TIP3   OH242271   6.653   4.195   1.071  0.1889  0.0982  0.3068
 6927TIP3    H142272   6.726   4.232   1.022  0.7075  0.5002  1.3435
 6927TIP3    H242273   6.575   4.231   1.029  0.6711  2.0476  0.9911
 6928TIP3   OH242274   2.257   6.448   5.908 -0.1622 -0.1445 -0.0890
 6928TIP3    H142275   2.240   6.373   5.964  0.9492 -0.3529 -0.0081
 6928TIP3    H242276   2.261   6.523   5.967 -0.6169 -0.1165 -0.0912
 6929TIP3   OH242277   5.388   1.397  10.859  0.4920  0.3133  0.2324
 6929TIP3    H142278   5.483   1.407  10.855  0.3900  1.0294 -0.3885
 6929TIP3    H242279   5.359   1.392  10.768 -0.2450  1.8346  0.3506
 6930TIP3   OH242280   5.330   0.870   1.437 -0.5896 -0.2952  0.0409
 6930TIP3    H142281   5.252   0.879   1.491 -1.6345  1.4361 -1.6336
 6930TIP3    H242282   5.383   0.804   1.481 -2.0196  0.0234  2.3703
 6931TIP3   OH242283   0.571   4.265   0.723  0.3709  0.1638 -0.3112
 6931TIP3    H142284   0.616   4.190   0.684  0.8248  0.2545  0.0371
 6931TIP3    H242285   0.637   4.308   0.777  0.0407  0.6618 -0.2919
 6932TIP3   OH242286   5.877   5.564   5.341  0.5732  0.2011 -0.3357
 6932TIP3    H142287   5.800   5.562   5.284  0.7804 -2.7726 -0.6770
 6932TIP3    H242288   5.929   5.637   5.308  0.3782 -0.9496 -3.6488
 6933TIP3   OH242289   6.450   2.535   1.998 -0.3124  0.4475 -0.1563
 6933TIP3    H142290   6.442   2.622   2.036  0.3478  0.3860  0.1382
 6933TIP3    H242291   6.513   2.490   2.055  0.7217  0.3604 -1.3283
 6934TIP3   OH242292   1.444   3.873  11.576 -0.5907  0.1896 -0.4662
 6934TIP3    H142293   1.514   3.821  11.616  1.0365  1.7362 -1.2059
 6934TIP3    H242294   1.394   3.809  11.525  2.2216 -0.5168 -2.5624
 6935TIP3   OH242295   2.241   0.859   0.356 -0.0377  0.0510 -0.1779
 6935TIP3    H142296   2.229   0.855   0.451  3.4566  1.6300  0.4723
 6935TIP3    H242297   2.268   0.770   0.332  2.0493  0.3159  0.9205
 6936TIP3   OH242298   5.582   3.526   2.640 -0.4896 -0.0850  0.3256
 6936TIP3    H142299   5.609   3.613   2.666 -1.0947  0.4283 -0.6961
 6936TIP3    H242300   5.487   3.531   2.632 -0.8124 -1.4301  2.3233
 6937TIP3   OH242301   6.155   5.071   3.380 -0.2614  0.1502 -0.1392
 6937TIP3    H142302   6.133   5.139   3.316 -0.7677 -1.9863 -2.3623
 6937TIP3    H242303   6.205   5.006   3.331 -0.6094 -1.5680  1.6562
 6938TIP3   OH242304   3.530   1.910   0.423 -0.4639 -0.5473  0.4246
 6938TIP3    H142305   3.607   1.870   0.382 -0.5689  0.0094 -0.3415
 6938TIP3    H242306   3.535   1.884   0.514 -0.9141 -2.9018 -0.1700
 6939TIP3   OH242307   6.615   2.714   4.463  0.0484 -0.2742  0.4146
 6939TIP3    H142308   6.570   2.761   4.534 -0.9854 -0.2535 -0.2485
 6939TIP3    H242309   6.634   2.628   4.500 -0.3978 -0.2331  0.7567
 6940TIP3   OH242310   3.836   0.696   6.064 -0.0530  0.3437  0.3931
 6940TIP3    H142311   3.857   0.784   6.032 -0.1412  0.0944 -0.3836
 6940TIP3    H242312   3.877   0.691   6.150  3.0870 -0.0736 -0.9750
 6941TIP3   OH242313   5.170   5.668  11.443  0.3761  0.1116 -0.9037
 6941TIP3    H142314   5.264   5.684  11.449  0.6641 -1.4013 -1.1885
 6941TIP3    H242315   5.135   5.749  11.406  1.2159  1.6727  1.4541
 6942TIP3   OH242316   2.836   4.093   3.774  0.6282 -0.1962  0.5327
 6942TIP3    H142317   2.859   4.174   3.727  1.1087 -0.3118  0.5630
 6942TIP3    H242318   2.848   4.024   3.709  1.1438 -0.3406  0.7760
 6943TIP3   OH242319   0.853   1.978  14.760  0.2749 -0.1566  0.1485
 6943TIP3    H142320   0.934   1.931  14.780  0.7433  0.4669 -0.2416
 6943TIP3    H242321   0.838   1.960  14.667 -1.2252 -2.0367  0.6648
 6944TIP3   OH242322   6.181   3.976   0.291 -0.7440 -0.4878  0.1804
 6944TIP3    H142323   6.206   3.917   0.220  0.9991 -0.4153  0.6787
 6944TIP3    H242324   6.209   3.930   0.371  2.2007  1.6456  0.5119
 6945TIP3   OH242325   4.241   2.495  14.136  0.1674  0.0090  0.2326
 6945TIP3    H142326   4.246   2.510  14.042  0.0682 -0.5434  0.1394
 6945TIP3    H242327   4.148   2.482  14.154  0.3577 -1.6710  0.1251
 6946TIP3   OH242328   6.643   2.072  12.837 -0.3700 -0.2681 -0.8042
 6946TIP3    H142329   6.633   2.029  12.752 -0.4413 -2.2985  0.1511
 6946TIP3    H242330   6.730   2.044  12.867 -0.3129  0.4884 -0.2420
 6947TIP3   OH242331   3.435   6.490  17.170  0.2366  0.1976  0.8049
 6947TIP3    H142332   3.512   6.517  17.120 -0.5167  1.3984  0.2454
 6947TIP3    H242333   3.367   6.552  17.144 -1.4614 -1.9731 -0.1653
 6948TIP3   OH242334   6.737   0.442   1.928  0.3843 -0.2722 -0.3263
 6948TIP3    H142335   6.657   0.457   1.878  0.4232 -1.1573 -0.6776
 6948TIP3    H242336   6.712   0.453   2.020  0.0642  0.2919 -0.4790
 6949TIP3   OH242337   1.412   3.129   5.943 -0.0326 -0.2624 -0.4894
 6949TIP3    H142338   1.461   3.157   6.019  0.1406 -0.5439 -0.4941
 6949TIP3    H242339   1.404   3.034   5.953 -1.5460 -0.1031  0.0829
 6950TIP3   OH242340   2.267   3.868  14.188 -0.0955 -0.1808  0.2589
 6950TIP3    H142341   2.300   3.883  14.099 -0.0431  0.3898  0.3712
 6950TIP3    H242342   2.175   3.893  14.184 -0.5225 -1.7397 -0.0436
 6951TIP3   OH242343   3.525   6.539   4.903  0.0716  0.0518  0.0330
 6951TIP3    H142344   3.610   6.581   4.909 -0.1278  0.4341  0.1944
 6951TIP3    H242345   3.465   6.609   4.878 -0.5313  0.2186  1.8181
 6952TIP3   OH242346   1.372   6.151  13.846  0.4229  0.2914 -0.5187
 6952TIP3    H142347   1.464   6.125  13.856 -0.0932 -1.3999  0.3830
 6952TIP3    H242348   1.336   6.087  13.784  0.1588  1.8227 -1.9980
 6953TIP3   OH242349   5.690   0.073  13.001 -0.1732  0.1130  0.4433
 6953TIP3    H142350   5.745   0.113  13.069 -0.2081 -0.4374  0.7970
 6953TIP3    H242351   5.734   0.096  12.919 -0.1287  0.7784  0.6482
 6954TIP3   OH242352   0.031   1.171   5.805 -0.1666  0.7866  0.2844
 6954TIP3    H142353  -0.052   1.213   5.824 -0.2527  1.3200 -1.1079
 6954TIP3    H242354   0.087   1.190   5.880 -0.7851  1.8563  0.4814
 6955TIP3   OH242355   5.138   3.932   4.259  0.5592  0.1087 -0.1268
 6955TIP3    H142356   5.181   3.919   4.174  1.5979 -0.8578  0.5219
 6955TIP3    H242357   5.176   4.013   4.292  0.0025  0.5999 -0.6497
 6956TIP3   OH242358   1.044   5.237   2.618  0.8090  0.1095  0.4829
 6956TIP3    H142359   1.013   5.147   2.627  1.0905 -0.0404  0.0009
 6956TIP3    H242360   0.964   5.290   2.617  0.6006 -0.2153 -0.1477
 6957TIP3   OH242361   0.982   3.241   3.743  0.4430 -0.3624 -0.1566
 6957TIP3    H142362   0.956   3.173   3.806  1.5978  0.5828  1.4282
 6957TIP3    H242363   0.931   3.222   3.664 -0.3837 -2.1501  0.7503
 6958TIP3   OH242364   4.478   5.782  15.990  0.1571 -0.5254  0.1673
 6958TIP3    H142365   4.564   5.747  16.010  0.8398  0.6200 -0.5983
 6958TIP3    H242366   4.486   5.876  16.009 -0.7180 -0.3042 -0.5081
 6959TIP3   OH242367   4.439   2.670   5.134 -0.6405 -0.1790  0.1766
 6959TIP3    H142368   4.529   2.702   5.138 -0.0655 -1.4389 -1.4489
 6959TIP3    H242369   4.442   2.584   5.176 -0.6612 -0.9879 -1.3948
 6960TIP3   OH242370   2.835   6.225   5.734 -0.1348  0.2997 -0.2025
 6960TIP3    H142371   2.850   6.134   5.709  0.7608  0.8847 -1.9993
 6960TIP3    H242372   2.739   6.233   5.737 -0.2333 -1.0674  1.6187
 6961TIP3   OH242373   3.129   0.456  12.612 -0.0366 -0.0599  0.7150
 6961TIP3    H142374   3.137   0.464  12.517 -0.0370  0.7417  0.7740
 6961TIP3    H242375   3.102   0.365  12.627  2.8208 -1.1239  0.1239
 6962TIP3   OH242376   0.586   2.049   4.385  0.0393  0.5638 -0.2634
 6962TIP3    H142377   0.567   2.141   4.402  0.4158  1.1225 -2.5853
 6962TIP3    H242378   0.500   2.008   4.377 -0.1318  0.8383  0.1642
 6963TIP3   OH242379   3.511   3.469  12.939 -0.2839 -0.0354 -0.1249
 6963TIP3    H142380   3.572   3.403  12.970  2.6064  2.0747 -0.9497
 6963TIP3    H242381   3.481   3.513  13.019 -0.4107 -0.7982  0.2552
 6964TIP3   OH242382   2.609   1.909  15.909  0.2109 -0.1089  0.1024
 6964TIP3    H142383   2.554   1.986  15.892 -0.8008 -1.2403 -2.3393
 6964TIP3    H242384   2.695   1.933  15.876 -0.2132 -0.1180 -1.0721
 6965TIP3   OH242385   6.630   2.778  14.742 -0.7258 -0.3804  0.3965
 6965TIP3    H142386   6.695   2.783  14.672 -0.2179 -1.3707  0.7830
 6965TIP3    H242387   6.546   2.793  14.699 -0.6168 -2.7176 -0.7728
 6966TIP3   OH242388   5.115   4.059  13.283 -0.3596  0.1535  0.2339
 6966TIP3    H142389   5.173   3.982  13.290 -0.6368 -0.1564 -0.7914
 6966TIP3    H242390   5.029   4.022  13.263 -1.0012  0.5956  1.9999
 6967TIP3   OH242391   6.351   4.701  13.934 -0.4155 -0.0092 -0.3544
 6967TIP3    H142392   6.268   4.748  13.921 -0.7039 -0.2366  0.5784
 6967TIP3    H242393   6.413   4.745  13.875 -0.9685  0.7659 -0.3806
 6968TIP3   OH242394   0.285   4.014  10.613 -0.0153  0.2906 -0.5572
 6968TIP3    H142395   0.218   4.004  10.545 -1.1425 -3.3352  0.8352
 6968TIP3    H242396   0.331   3.930  10.614  1.5342  1.0796  1.6054
 6969TIP3   OH242397   1.965   3.074   2.129 -0.4808  0.2919 -0.1279
 6969TIP3    H142398   2.004   3.025   2.201 -0.0880 -3.2182 -2.5226
 6969TIP3    H242399   2.030   3.141   2.107 -0.0117  0.5135  1.7790
 6970TIP3   OH242400   5.847   2.941   4.013  0.3655 -0.7876 -0.4363
 6970TIP3    H142401   5.811   3.021   4.052 -1.4301 -2.0484  0.5922
 6970TIP3    H242402   5.931   2.969   3.976  0.3617  1.3017  0.9676
 6971TIP3   OH242403   4.709   6.169   2.442 -0.0206  0.1399 -0.2007
 6971TIP3    H142404   4.724   6.080   2.408  0.3986  0.3435 -0.5725
 6971TIP3    H242405   4.645   6.158   2.511  0.4030 -0.5278  0.0999
 6972TIP3   OH242406   0.050   1.155  14.348 -0.3492  0.4994 -0.0996
 6972TIP3    H142407   0.097   1.186  14.426 -0.1052 -0.3955  0.1252
 6972TIP3    H242408  -0.041   1.145  14.377  0.2437 -3.0277  1.1492
 6973TIP3   OH242409   0.757   2.488   1.588 -0.0972 -0.3585  0.0862
 6973TIP3    H142410   0.756   2.583   1.578 -0.7318 -0.5419 -2.3489
 6973TIP3    H242411   0.697   2.470   1.660 -0.4004  1.0582  0.2020
 6974TIP3   OH242412   2.447   5.941  12.268  0.0510  0.0417 -0.2274
 6974TIP3    H142413   2.502   5.980  12.336 -0.0357  1.1607 -0.7698
 6974TIP3    H242414   2.508   5.898  12.208  0.1040 -1.2860  0.7325
 6975TIP3   OH242415   1.663   3.784  11.355 -0.5087 -0.2347 -0.4821
 6975TIP3    H142416   1.669   3.835  11.436  1.4218 -0.1683 -0.6249
 6975TIP3    H242417   1.622   3.843  11.292 -2.2135 -0.3510  0.4549
 6976TIP3   OH242418   0.489   4.499   3.654  0.3457  0.4676 -0.4155
 6976TIP3    H142419   0.480   4.505   3.559 -1.6265  0.2998 -0.2830
 6976TIP3    H242420   0.542   4.574   3.678  2.0532 -0.2428 -1.7541
 6977TIP3   OH242421   0.595   1.399   1.276  0.0697  0.8280  0.1423
 6977TIP3    H142422   0.599   1.318   1.225 -2.2729 -1.2355  2.8829
 6977TIP3    H242423   0.686   1.418   1.297  0.6398 -2.3869  1.1587
 6978TIP3   OH242424   1.288   2.787   0.505 -0.0837 -0.4353 -0.4632
 6978TIP3    H142425   1.383   2.793   0.496 -0.0621 -1.6289 -1.1556
 6978TIP3    H242426   1.259   2.741   0.426 -1.3191  0.5420 -0.6104
 6979TIP3   OH242427   5.030   0.607  13.470 -0.2384  0.0406 -0.1895
 6979TIP3    H142428   5.109   0.638  13.513 -1.2507  2.7202 -0.0652
 6979TIP3    H242429   4.972   0.582  13.542 -0.4310  0.5582 -0.1616
 6980TIP3   OH242430   5.446   1.523   3.706  0.4050 -0.0089 -0.0468
 6980TIP3    H142431   5.520   1.568   3.747  0.1638  1.5207 -1.1991
 6980TIP3    H242432   5.483   1.441   3.673  1.6915  0.8976 -0.9395
 6981TIP3   OH242433   1.889   2.152  16.173 -0.1066 -0.0383 -0.9113
 6981TIP3    H142434   1.799   2.178  16.193  0.4501  0.5322  1.1451
 6981TIP3    H242435   1.880   2.085  16.105 -2.1721 -0.7411 -0.0414
 6982TIP3   OH242436   6.640   2.318   4.819  0.1468 -0.2204 -0.1351
 6982TIP3    H142437   6.640   2.228   4.787  1.0573 -1.7549  3.5673
 6982TIP3    H242438   6.698   2.316   4.895 -0.9939  3.1511  1.0020
 6983TIP3   OH242439   5.967   4.220  13.700  0.6223  0.0922 -0.7549
 6983TIP3    H142440   6.028   4.277  13.747  0.9519  0.0430 -1.1178
 6983TIP3    H242441   5.883   4.235  13.743  1.0999 -0.6966  0.5072
 6984TIP3   OH242442   3.142   0.876   2.053  0.7755 -0.2100 -0.0071
 6984TIP3    H142443   3.191   0.942   2.103  0.2658  0.4148 -0.3285
 6984TIP3    H242444   3.208   0.837   1.995  1.2207 -0.4553  0.6473
 6985TIP3   OH242445   1.477   6.517  16.701  0.2708  0.5576 -1.1285
 6985TIP3    H142446   1.418   6.590  16.682 -0.6268 -0.0326 -0.7410
 6985TIP3    H242447   1.520   6.499  16.617  1.0916  2.0149 -1.0387
 6986TIP3   OH242448   1.479   5.439   5.267 -0.2610 -0.4297  0.3413
 6986TIP3    H142449   1.456   5.414   5.178  0.0601 -2.6091  0.8122
 6986TIP3    H242450   1.395   5.444   5.313 -0.5766  2.2573 -0.3778
 6987TIP3   OH242451   1.014   0.126  11.451  0.1445  0.0782  0.4497
 6987TIP3    H142452   0.953   0.173  11.393  0.6773  1.0287  0.6533
 6987TIP3    H242453   1.100   0.157  11.425  0.4098  0.3207  1.5882
 6988TIP3   OH242454   0.766   1.663  14.022 -0.2461  0.1989 -0.1763
 6988TIP3    H142455   0.720   1.580  14.033  0.3929  0.1218  3.0832
 6988TIP3    H242456   0.696   1.729  14.020 -0.6912 -0.2754 -1.4915
 6989TIP3   OH242457   3.826   0.373   5.278 -0.3412  0.6726  0.3482
 6989TIP3    H142458   3.839   0.285   5.242 -2.9539  0.3236  0.0628
 6989TIP3    H242459   3.788   0.357   5.365  0.7491  1.5413  1.0058
 6990TIP3   OH242460   5.427   4.166   4.747  0.7776 -0.2218 -0.5484
 6990TIP3    H142461   5.398   4.210   4.827 -2.3585  0.9784 -2.1617
 6990TIP3    H242462   5.387   4.080   4.751  2.4769 -1.0378  0.1074
 6991TIP3   OH242463   1.771   2.495  16.722 -0.5080 -0.4047  0.1020
 6991TIP3    H142464   1.783   2.587  16.746  3.3563 -0.5524 -0.5462
 6991TIP3    H242465   1.678   2.488  16.700 -0.9825  3.3161  0.2007
 6992TIP3   OH242466   2.202   4.416   4.817 -0.4081  0.5245 -0.7337
 6992TIP3    H142467   2.280   4.394   4.867 -0.7996 -0.0937 -0.3887
 6992TIP3    H242468   2.229   4.491   4.763 -0.1646  1.6808  0.8978
 6993TIP3   OH242469   2.940   4.680   3.481 -0.0770  0.0788  0.0430
 6993TIP3    H142470   2.888   4.602   3.460  0.5307 -0.4762  0.5167
 6993TIP3    H242471   2.896   4.751   3.436 -1.0178 -0.4349  0.1079
 6994TIP3   OH242472   3.621   1.563   5.726 -0.8309 -0.0186 -0.0732
 6994TIP3    H142473   3.547   1.519   5.767 -0.2957  0.6550  1.7217
 6994TIP3    H242474   3.583   1.639   5.683 -1.1755  0.4940  1.0978
 6995TIP3   OH242475   6.138   2.334  16.641  0.2222 -0.3797 -0.0975
 6995TIP3    H142476   6.051   2.319  16.605 -0.1437  0.1106  0.5639
 6995TIP3    H242477   6.143   2.277  16.718  1.0143 -1.4552 -0.9231
 6996TIP3   OH242478   6.827   4.602  15.357 -0.0894 -0.4660  0.1536
 6996TIP3    H142479   6.892   4.608  15.287 -0.1805  1.8274  0.1782
 6996TIP3    H242480   6.751   4.561  15.315  0.8598 -1.8721 -0.2474
 6997TIP3   OH242481   2.713   0.845   3.952 -0.0968 -0.0429  0.1993
 6997TIP3    H142482   2.663   0.767   3.977  1.1049 -0.1442  2.5995
 6997TIP3    H242483   2.796   0.811   3.920  0.4517  0.2127  1.3050
 6998TIP3   OH242484   0.939   6.320  15.628 -0.4156  0.3432  0.9390
 6998TIP3    H142485   0.918   6.263  15.702  2.2886 -1.2672  0.5913
 6998TIP3    H242486   0.982   6.396  15.668 -0.7052  0.3971  1.1491
 6999TIP3   OH242487   1.192   3.466  13.687 -0.5724 -0.0798  0.4602
 6999TIP3    H142488   1.245   3.402  13.641  0.6116 -1.8518  3.9209
 6999TIP3    H242489   1.103   3.431  13.682 -0.3832 -0.4968 -0.0647
 7000TIP3   OH242490   4.358   0.944  17.103 -0.2444  0.4225  0.0304
 7000TIP3    H142491   4.412   0.877  17.146 -0.1202  0.8720  0.5846
 7000TIP3    H242492   4.282   0.954  17.161 -0.9944 -0.2813 -0.7949
 7001TIP3   OH242493   0.254   5.239  15.910  0.1565  0.4575  0.7901
 7001TIP3    H142494   0.272   5.146  15.901 -0.9287  0.0945  2.0386
 7001TIP3    H242495   0.160   5.247  15.892  0.0050  1.1201  1.7777
 7002TIP3   OH242496   2.038   0.771   5.671 -0.1478 -0.2646  0.8316
 7002TIP3    H142497   2.026   0.853   5.719 -0.7957  0.5875 -0.6956
 7002TIP3    H242498   2.058   0.798   5.582 -1.5723 -1.7449  0.0052
 7003TIP3   OH242499   4.248   2.044  15.660  0.0016 -0.0866 -0.3777
 7003TIP3    H142500   4.307   2.000  15.598  1.2303  0.6568  0.2114
 7003TIP3    H242501   4.307   2.096  15.714 -1.3651  2.1072 -0.9039
 7004TIP3   OH242502   0.460   6.615  14.603  0.6866 -0.2445  0.2414
 7004TIP3    H142503   0.525   6.652  14.662  0.2067 -0.4215  0.8855
 7004TIP3    H242504   0.392   6.682  14.597  1.5220  0.4991 -1.4621
 7005TIP3   OH242505   3.761   1.145  11.728 -0.3192  0.0150 -0.1784
 7005TIP3    H142506   3.788   1.101  11.647 -0.9219 -0.2120 -0.2602
 7005TIP3    H242507   3.669   1.165  11.715 -1.0476 -2.0641  1.3381
 7006TIP3   OH242508   2.256   2.814   2.515 -0.1543 -0.3148 -0.2405
 7006TIP3    H142509   2.278   2.726   2.544 -0.6660 -0.1891  0.5575
 7006TIP3    H242510   2.333   2.867   2.537 -0.3187 -0.3318  0.3913
 7007TIP3   OH242511   3.861   5.130   3.624  0.1960  0.4977 -0.3454
 7007TIP3    H142512   3.817   5.191   3.565  0.5129  0.3169 -0.7705
 7007TIP3    H242513   3.816   5.047   3.609  0.8673  0.2480 -0.9883
 7008TIP3   OH242514   2.737   4.276   0.994 -0.2431  0.2588  0.3570
 7008TIP3    H142515   2.759   4.240   1.080  0.5057 -0.1271  0.0125
 7008TIP3    H242516   2.725   4.370   1.010  1.7021  0.5173  0.5814
 7009TIP3   OH242517   2.555   3.296   3.204 -0.2613 -0.2349 -0.8327
 7009TIP3    H142518   2.471   3.320   3.244  0.8429 -0.8206  2.0630
 7009TIP3    H242519   2.607   3.375   3.209 -0.2300 -0.2062 -1.5302
 7010TIP3   OH242520   4.625   2.817   5.412 -0.1004 -0.1280 -0.3010
 7010TIP3    H142521   4.661   2.826   5.324  1.1207 -1.2999  0.0393
 7010TIP3    H242522   4.614   2.907   5.444  1.0446  0.2892 -1.0300
 7011TIP3   OH242523   4.216   6.493  13.918  0.0700 -0.2635 -0.5599
 7011TIP3    H142524   4.147   6.469  13.856 -1.4090  0.0439  0.9048
 7011TIP3    H242525   4.185   6.573  13.959  2.1797  0.9430 -1.1424
 7012TIP3   OH242526   0.575   5.487  15.498 -0.1026  0.5146  0.2853
 7012TIP3    H142527   0.597   5.421  15.564  1.3846  0.9662  0.2853
 7012TIP3    H242528   0.650   5.488  15.439 -0.6263  1.3706 -0.3972
 7013TIP3   OH242529   1.943   3.448  17.173 -0.1007  0.6208  0.2530
 7013TIP3    H142530   1.963   3.489  17.257  2.6131  0.6833 -0.3332
 7013TIP3    H242531   1.964   3.355  17.186 -1.5233  0.2551  0.1527
 7014TIP3   OH242532   0.180   0.615   5.772  0.0003  0.1812  0.5335
 7014TIP3    H142533   0.146   0.700   5.799 -0.1044  0.4291 -0.3429
 7014TIP3    H242534   0.102   0.567   5.742 -0.4210 -1.2914  3.5827
 7015TIP3   OH242535   5.455   5.046  13.068 -0.4821  0.2225 -0.3384
 7015TIP3    H142536   5.484   5.083  12.984  0.7940 -0.9341 -0.4568
 7015TIP3    H242537   5.470   4.952  13.058  0.1107  0.1043  1.3341
 7016TIP3   OH242538   3.183   1.725   3.682 -0.1222 -0.4191  0.0093
 7016TIP3    H142539   3.188   1.630   3.679 -0.0569 -0.3956 -0.6610
 7016TIP3    H242540   3.268   1.753   3.715  0.3653 -0.5316 -1.1253
 7017TIP3   OH242541   2.529   1.242   4.101  0.1900 -0.1538  0.8201
 7017TIP3    H142542   2.556   1.261   4.011 -0.4760 -0.5573  0.5287
 7017TIP3    H242543   2.533   1.147   4.107 -0.8396 -0.1962  0.8723
 7018TIP3   OH242544   1.637   1.890   6.402  0.2218  0.2334  0.3174
 7018TIP3    H142545   1.638   1.937   6.319 -0.1274 -0.7290 -0.2501
 7018TIP3    H242546   1.646   1.958   6.469 -0.6080  1.1312 -0.4544
 7019TIP3   OH242547   3.318   5.833  11.972 -0.5304  0.5256  0.3997
 7019TIP3    H142548   3.413   5.840  11.963 -0.5063  1.5581  1.2699
 7019TIP3    H242549   3.306   5.776  12.048 -0.6583 -1.6624 -1.1843
 7020TIP3   OH242550   0.450   0.650   1.235 -0.2749 -0.1367 -0.7767
 7020TIP3    H142551   0.434   0.656   1.140  0.9327  1.7411 -0.9125
 7020TIP3    H242552   0.507   0.725   1.254 -1.4103  0.1890  1.6489
 7021TIP3   OH242553   3.189   0.684  10.698 -0.0501 -0.5346 -0.7318
 7021TIP3    H142554   3.174   0.778  10.710 -0.0812 -0.8099  2.1522
 7021TIP3    H242555   3.101   0.646  10.697  0.0039 -0.6850 -0.0645
 7022TIP3   OH242556   5.631   6.711   1.632 -0.4508 -0.2688  0.4120
 7022TIP3    H142557   5.591   6.783   1.583 -0.0361 -0.6631 -0.5315
 7022TIP3    H242558   5.560   6.648   1.644 -0.1370 -1.0220 -1.3698
 7023TIP3   OH242559   2.369   2.592   0.746  1.0400 -0.4803 -0.1280
 7023TIP3    H142560   2.323   2.521   0.791  0.7004  1.3107  2.6142
 7023TIP3    H242561   2.429   2.547   0.687  0.0912 -3.0176  0.6743
 7024TIP3   OH242562   0.694   4.189   3.162 -0.7193 -0.6093  0.1931
 7024TIP3    H142563   0.715   4.157   3.250 -0.6654 -1.2668 -0.0486
 7024TIP3    H242564   0.778   4.186   3.115 -1.0417 -1.8626 -0.3543
 7025TIP3   OH242565   2.127   1.941   2.216 -0.3535 -0.2302 -0.5637
 7025TIP3    H142566   2.048   1.909   2.260 -1.1840  1.6388 -0.5843
 7025TIP3    H242567   2.190   1.954   2.287 -0.1150 -1.4919 -0.5177
 7026TIP3   OH242568   2.667   1.097   0.354 -0.0252 -0.5241 -0.1261
 7026TIP3    H142569   2.625   1.045   0.286 -3.0940  3.4376 -1.5907
 7026TIP3    H242570   2.616   1.080   0.433 -2.1868  1.3616 -1.0136
 7027TIP3   OH242571   2.488   4.470  12.805 -0.1054 -0.1871  0.3338
 7027TIP3    H142572   2.504   4.464  12.899 -0.0640 -1.0879  0.2756
 7027TIP3    H242573   2.414   4.412  12.789  0.8008 -1.1868 -0.3952
 7028TIP3   OH242574   1.911   5.136  13.245  0.2849 -0.1134  0.2337
 7028TIP3    H142575   1.861   5.079  13.303 -1.9236  0.8952 -0.5923
 7028TIP3    H242576   1.907   5.222  13.285 -0.7260  0.4622 -1.0195
 7029TIP3   OH242577   2.849   4.841   1.094 -0.2825  0.2586 -0.2730
 7029TIP3    H142578   2.795   4.917   1.118  0.0017  1.0441 -1.9236
 7029TIP3    H242579   2.871   4.856   1.002 -0.7348 -2.1758 -0.8401
 7030TIP3   OH242580   3.426   4.207   1.813 -0.1534  0.2097  0.0150
 7030TIP3    H142581   3.512   4.217   1.852 -0.4058 -0.7159  0.8375
 7030TIP3    H242582   3.392   4.125   1.849 -1.2037  0.3433 -0.6221
 7031TIP3   OH242583   1.192   0.561   4.348 -0.1442 -0.0312 -0.3795
 7031TIP3    H142584   1.278   0.521   4.334 -0.5422 -0.5184 -1.4610
 7031TIP3    H242585   1.154   0.511   4.421  1.0575  1.1375  1.1224
 7032TIP3   OH242586   3.009   2.138   1.932 -0.1024  0.1793 -0.5336
 7032TIP3    H142587   3.028   2.078   1.860  1.1315  1.5265 -1.3844
 7032TIP3    H242588   3.084   2.198   1.934  0.5546 -0.5911  2.7412
 7033TIP3   OH242589   0.246   3.750  13.098 -0.0764  0.0543  0.1150
 7033TIP3    H142590   0.331   3.749  13.142 -0.4899 -0.6571  0.9264
 7033TIP3    H242591   0.267   3.738  13.005  0.7067 -0.0322  0.2958
 7034TIP3   OH242592   4.394   0.082  15.113  0.1184 -0.4299  0.2457
 7034TIP3    H142593   4.405   0.082  15.018 -2.2199 -1.0369 -0.0881
 7034TIP3    H242594   4.376  -0.009  15.135  1.1004 -0.3765  1.3666
 7035TIP3   OH242595   1.463   5.181   0.738 -0.4779 -0.0429 -0.5102
 7035TIP3    H142596   1.432   5.253   0.684  1.0748  0.6881 -0.4807
 7035TIP3    H242597   1.554   5.203   0.759 -0.3797 -1.3448  0.6377
 7036TIP3   OH242598   2.256   5.733   0.752 -0.2731 -0.4516  0.5889
 7036TIP3    H142599   2.188   5.668   0.767 -0.1310 -0.9148 -0.6228
 7036TIP3    H242600   2.213   5.802   0.701  0.4970 -1.5603 -1.7245
 7037TIP3   OH242601   4.418   1.423   4.401 -0.0986 -0.0923 -0.3203
 7037TIP3    H142602   4.473   1.430   4.479  2.9295 -0.3934 -2.2543
 7037TIP3    H242603   4.379   1.510   4.392 -1.8022 -0.4680  2.2736
 7038TIP3   OH242604   4.760   1.657  12.613  0.0876 -0.2671  0.7098
 7038TIP3    H142605   4.845   1.639  12.652 -0.5123 -0.9185  1.7664
 7038TIP3    H242606   4.703   1.588  12.647 -0.6197 -0.5039 -0.8579
 7039TIP3   OH242607   3.502   2.288   0.319  0.6341 -0.1641  0.4641
 7039TIP3    H142608   3.533   2.206   0.281 -0.6838 -0.5407  0.1325
 7039TIP3    H242609   3.543   2.357   0.265  1.2037 -0.6155  0.3126
 7040TIP3   OH242610   2.909   3.137   2.695 -0.4323 -0.1560  0.6234
 7040TIP3    H142611   2.975   3.201   2.721 -0.8665 -0.4439  2.5193
 7040TIP3    H242612   2.864   3.179   2.621  0.8424  0.6814  0.2829
 7041TIP3   OH242613   5.440   0.436  12.180 -0.0443  0.5043 -0.2005
 7041TIP3    H142614   5.473   0.347  12.167  0.8439  0.6211  1.0544
 7041TIP3    H242615   5.350   0.434  12.149 -1.0031 -1.6139  2.3554
 7042TIP3   OH242616   2.131   0.118   2.228  0.5570 -0.1084 -0.1246
 7042TIP3    H142617   2.179   0.188   2.272 -0.3360  0.0702  0.6039
 7042TIP3    H242618   2.059   0.162   2.183  0.4657 -0.4726 -0.3454
 7043TIP3   OH242619   0.403   2.997   3.033  0.0118 -0.1922  0.3208
 7043TIP3    H142620   0.464   3.071   3.042 -1.1053  0.8604 -0.3479
 7043TIP3    H242621   0.459   2.922   3.011  1.0533  0.7844 -0.5137
 7044TIP3   OH242622   1.110   3.199   5.939  0.2275 -0.0773  0.2380
 7044TIP3    H142623   1.190   3.158   5.909 -1.1170 -2.4810 -0.3013
 7044TIP3    H242624   1.070   3.236   5.860  1.3068  2.2345  0.6811
 7045TIP3   OH242625   5.528   3.646  16.324  0.5468  0.1050 -0.3264
 7045TIP3    H142626   5.471   3.576  16.293 -0.3332  0.1922  0.9898
 7045TIP3    H242627   5.552   3.620  16.413 -0.0980  1.6066  0.3320
 7046TIP3   OH242628   1.496   3.245  14.115 -0.1764  0.2432 -0.5252
 7046TIP3    H142629   1.557   3.173  14.096 -0.5192  0.3820 -2.3244
 7046TIP3    H242630   1.552   3.323  14.121 -0.1291  0.4224 -2.4817
 7047TIP3   OH242631   0.554   0.611   5.277 -0.2470 -0.1006 -0.1171
 7047TIP3    H142632   0.558   0.607   5.181 -1.6739 -0.2101 -0.2050
 7047TIP3    H242633   0.484   0.674   5.295 -0.0502 -0.1474  0.8547
 7048TIP3   OH242634   0.688   1.153  17.043 -0.5033 -0.1763 -0.1709
 7048TIP3    H142635   0.699   1.114  16.956 -2.5048  0.1572 -0.6341
 7048TIP3    H242636   0.684   1.247  17.026  0.0067 -0.0498  0.4005
 7049TIP3   OH242637   3.542   6.314   4.742  0.1074 -0.0657 -0.4688
 7049TIP3    H142638   3.468   6.300   4.683  0.7462 -1.7256 -0.9514
 7049TIP3    H242639   3.529   6.401   4.778 -1.1255  0.3719 -1.8963
 7050TIP3   OH242640   2.814   4.907  15.018  0.7058  0.3187  0.6620
 7050TIP3    H142641   2.861   4.836  15.063 -0.5783  0.3537  2.1477
 7050TIP3    H242642   2.743   4.930  15.078 -1.5643 -0.1130 -1.7066
 7051TIP3   OH242643   4.327   4.094   1.472  0.2927  0.8143 -0.0478
 7051TIP3    H142644   4.332   4.001   1.492 -0.6186  0.9063  0.7172
 7051TIP3    H242645   4.368   4.103   1.386  0.0801 -0.3410 -0.2823
 7052TIP3   OH242646   6.370   0.187  10.753 -0.4945  0.1493 -0.2192
 7052TIP3    H142647   6.347   0.272  10.790  4.7758  1.4616  0.8661
 7052TIP3    H242648   6.386   0.205  10.660  1.8806  0.8411  0.2511
 7053TIP3   OH242649   2.867   4.392   4.815 -0.2725  0.2273 -0.1628
 7053TIP3    H142650   2.926   4.338   4.763 -0.4741  0.1838 -0.3491
 7053TIP3    H242651   2.888   4.482   4.791  0.6799  0.2872  0.8049
 7054TIP3   OH242652   5.938   5.151   2.040 -0.6382  0.2653  0.0975
 7054TIP3    H142653   5.928   5.193   1.954 -0.8325 -0.5919 -0.3084
 7054TIP3    H242654   5.945   5.058   2.020 -0.3963  0.0852  1.0004
 7055TIP3   OH242655   6.017   0.837  11.932 -0.3755  0.0955  0.5076
 7055TIP3    H142656   5.973   0.848  12.016  0.6359 -0.0141  1.0679
 7055TIP3    H242657   6.021   0.925  11.895 -1.5803  0.0228  0.1700
 7056TIP3   OH242658   3.042   2.129  13.928 -0.5993 -0.0220  0.5201
 7056TIP3    H142659   3.047   2.187  13.852  4.3499 -0.8873 -0.1209
 7056TIP3    H242660   3.070   2.043  13.896 -0.8596 -1.0831  2.8544
 7057TIP3   OH242661   1.909   1.556   5.084  0.0936 -0.8454 -0.1699
 7057TIP3    H142662   1.933   1.488   5.147 -0.0588 -1.2499 -0.5437
 7057TIP3    H242663   1.992   1.588   5.050  0.1577 -1.2085 -0.3684
 7058TIP3   OH242664   4.012   4.236   1.086  0.0423 -0.2248 -0.3058
 7058TIP3    H142665   4.099   4.199   1.103  1.3024  1.6202 -2.3048
 7058TIP3    H242666   3.976   4.182   1.015  0.3964  0.2099 -0.8199
 7059TIP3   OH242667   6.204   6.400  14.162  0.7337 -0.2751 -0.4246
 7059TIP3    H142668   6.144   6.443  14.223  0.7588  1.0433 -1.2919
 7059TIP3    H242669   6.184   6.307  14.171 -0.3921  0.0163  0.3966
 7060TIP3   OH242670   0.590   1.599   5.743 -0.1035 -0.5148 -1.0292
 7060TIP3    H142671   0.602   1.573   5.651 -1.1519 -1.3116 -0.9614
 7060TIP3    H242672   0.569   1.692   5.739  0.6099 -0.3669 -1.5350
 7061TIP3   OH242673   6.446   6.258   9.971 -0.1801  0.1504  0.0840
 7061TIP3    H142674   6.358   6.220   9.975  0.0997 -0.4996  0.1397
 7061TIP3    H242675   6.482   6.244  10.059  0.1343  0.0286 -0.0621
 7062TIP3   OH242676   0.615   0.180   1.260 -0.2078  0.4019  0.2317
 7062TIP3    H142677   0.622   0.085   1.270 -0.7470  0.3703  0.3423
 7062TIP3    H242678   0.619   0.194   1.165  0.0154  0.2808  0.2228
 7063TIP3   OH242679   0.102   6.227   4.229  0.4235 -0.7562  0.0016
 7063TIP3    H142680   0.137   6.197   4.145 -1.1731  2.7143 -2.1340
 7063TIP3    H242681   0.176   6.270   4.272  1.1324 -2.1237  0.1962
 7064TIP3   OH242682   6.297   6.275  16.513  0.3868 -0.1644 -0.5470
 7064TIP3    H142683   6.380   6.322  16.503  1.3791 -1.9161 -0.8336
 7064TIP3    H242684   6.236   6.322  16.457  0.9868  1.5435  0.1517
 7065TIP3   OH242685   6.755   3.959  14.663  0.6038  0.4302 -0.2008
 7065TIP3    H142686   6.712   4.043  14.680  0.7255  0.2894  0.8229
 7065TIP3    H242687   6.715   3.928  14.581  0.1202  1.1949 -0.2621
 7066TIP3   OH242688   5.004   5.397   4.400  0.0125 -0.0431  0.2429
 7066TIP3    H142689   4.963   5.344   4.332  1.3518  1.5916 -1.9832
 7066TIP3    H242690   4.980   5.354   4.482 -2.9498 -1.2596 -1.1124
 7067TIP3   OH242691   0.143   1.345   3.550  0.6313  0.0930 -0.4196
 7067TIP3    H142692   0.083   1.280   3.587  0.3320  0.0261 -1.0094
 7067TIP3    H242693   0.088   1.399   3.493  0.6889  1.4591  0.7581
 7068TIP3   OH242694   3.064   1.986   2.981 -0.1082 -0.2384  0.5928
 7068TIP3    H142695   3.007   1.932   3.035 -0.0170 -1.1921 -0.2367
 7068TIP3    H242696   3.136   1.927   2.956  1.4901  1.0444  1.9688
 7069TIP3   OH242697   4.845   1.746   3.472  0.0969  0.0968 -0.0282
 7069TIP3    H142698   4.767   1.726   3.420 -0.5466 -0.0136  0.9401
 7069TIP3    H242699   4.908   1.678   3.448 -0.5905 -0.6292  0.1469
 7070TIP3   OH242700   2.015   5.188   5.656 -0.1119  0.2458  0.0482
 7070TIP3    H142701   2.108   5.206   5.639 -0.2726  0.3522 -0.7566
 7070TIP3    H242702   2.006   5.094   5.642  0.1036  0.0230  1.2787
 7071TIP3   OH242703   4.787   1.033  14.407  0.1914 -0.0676 -0.0719
 7071TIP3    H142704   4.700   1.068  14.426 -0.6551 -1.6179 -0.8880
 7071TIP3    H242705   4.787   0.945  14.445  0.4643 -1.0643 -2.2050
 7072TIP3   OH242706   6.481   5.294   5.208 -0.2395 -0.3262  0.2511
 7072TIP3    H142707   6.540   5.332   5.143  0.0969 -0.1961  0.6288
 7072TIP3    H242708   6.394   5.315   5.176 -0.0547  0.9447  0.5599
 7073TIP3   OH242709   0.007   6.114  14.010  0.3942  0.1477  0.4387
 7073TIP3    H142710  -0.070   6.137  14.063 -1.7768 -2.2491 -1.4153
 7073TIP3    H242711   0.081   6.120  14.071 -1.1653  2.6936  2.2792
 7074TIP3   OH242712   1.643   5.430  14.844  0.3240  0.0615  0.6117
 7074TIP3    H142713   1.687   5.419  14.760 -1.4370  0.1677 -0.3866
 7074TIP3    H242714   1.594   5.348  14.856 -0.7383  0.6813  0.6783
 7075TIP3   OH242715   5.521   0.992  11.282 -0.0967 -0.3841  0.6953
 7075TIP3    H142716   5.570   0.920  11.243  1.5824 -0.4125  2.6716
 7075TIP3    H242717   5.577   1.068  11.271 -1.5154  0.5083 -0.6813
 7076TIP3   OH242718   3.929   0.923   6.511  0.2165  0.2074 -0.4414
 7076TIP3    H142719   3.871   0.985   6.554  1.9335  0.1126  2.1918
 7076TIP3    H242720   3.890   0.837   6.529 -0.5955  0.3119 -1.5995
 7077TIP3   OH242721   4.911   4.334   6.383  0.6172 -0.4059  0.5949
 7077TIP3    H142722   4.922   4.363   6.473  0.4930 -0.5192  0.6476
 7077TIP3    H242723   4.816   4.331   6.370  0.6380 -0.1367  0.3774
 7078TIP3   OH242724   0.598   1.477  12.128 -0.1754 -0.0728 -0.2255
 7078TIP3    H142725   0.612   1.550  12.068 -1.7570  1.1021  0.7619
 7078TIP3    H242726   0.651   1.498  12.205  1.2152 -1.1774 -0.8374
 7079TIP3   OH242727   3.695   2.206  16.561 -0.6485  0.1451 -0.0443
 7079TIP3    H142728   3.655   2.269  16.500 -0.8384 -1.2130 -1.3716
 7079TIP3    H242729   3.714   2.130  16.507 -1.2911 -1.3243  1.7217
 7080TIP3   OH242730   5.240   5.733   2.881  0.0650 -0.3144 -0.7856
 7080TIP3    H142731   5.274   5.822   2.872  0.5034 -0.4786 -0.7614
 7080TIP3    H242732   5.308   5.677   2.843  0.6702 -0.7938  0.9003
 7081TIP3   OH242733   6.780   0.356   5.169 -0.4382  0.5061 -0.4024
 7081TIP3    H142734   6.687   0.346   5.147 -0.7761  0.2690  1.0212
 7081TIP3    H242735   6.814   0.267   5.174  0.2589  0.6274 -2.3789
 7082TIP3   OH242736   0.096   5.274   5.047 -0.8371 -0.2108 -0.4770
 7082TIP3    H142737   0.076   5.197   5.101  0.8715  0.5560  1.3308
 7082TIP3    H242738   0.045   5.345   5.087  0.7678  0.4553  0.4939
 7083TIP3   OH242739   6.538   0.852  13.702 -0.1989  0.2733 -0.1271
 7083TIP3    H142740   6.486   0.906  13.642  0.2869  1.1486  0.2196
 7083TIP3    H242741   6.484   0.845  13.781 -0.7911 -0.7880 -0.6095
 7084TIP3   OH242742   6.392   2.566  15.369  0.1064  0.3244  0.1558
 7084TIP3    H142743   6.375   2.473  15.352 -0.4091  0.6602 -1.3034
 7084TIP3    H242744   6.311   2.597  15.410 -0.2959  0.4407 -0.7021
 7085TIP3   OH242745   0.183   1.868  16.139  0.0543 -1.0268 -0.0742
 7085TIP3    H142746   0.173   1.914  16.056  2.9977 -0.7171 -0.3661
 7085TIP3    H242747   0.157   1.932  16.205  2.3025  0.5196 -0.5756
 7086TIP3   OH242748   5.178   3.070   0.513 -0.5266 -0.2937 -0.0782
 7086TIP3    H142749   5.171   3.043   0.421 -2.1027 -0.5392  0.0901
 7086TIP3    H242750   5.126   3.007   0.561 -0.9153  0.6764  0.8180
 7087TIP3   OH242751   5.984   4.661   3.319 -0.0891 -0.4657  0.2586
 7087TIP3    H142752   5.981   4.667   3.224  0.9951 -0.0263  0.2429
 7087TIP3    H242753   5.980   4.567   3.337  1.0059 -0.6229 -0.2805
 7088TIP3   OH242754   4.570   5.613  10.335 -0.2267  0.1752  0.1072
 7088TIP3    H142755   4.575   5.517  10.342 -2.0373  0.0569  0.2532
 7088TIP3    H242756   4.564   5.643  10.426  0.1413  0.4256  0.0513
 7089TIP3   OH242757   1.139   4.233  17.216 -0.2112  0.1723 -0.0977
 7089TIP3    H142758   1.212   4.227  17.155  0.7928 -0.1416  1.0797
 7089TIP3    H242759   1.063   4.201  17.168  0.0646  2.0363 -1.8881
 7090TIP3   OH242760   1.025   3.758  16.659  0.5984  0.7562 -0.6784
 7090TIP3    H142761   1.056   3.819  16.592  0.9528  0.6176 -0.6423
 7090TIP3    H242762   1.096   3.754  16.723  0.5427  0.3722 -0.6380
 7091TIP3   OH242763   3.303   3.487   1.580  0.1610  0.2298 -0.1445
 7091TIP3    H142764   3.215   3.469   1.613 -0.5996 -0.9578 -2.5019
 7091TIP3    H242765   3.289   3.518   1.490  2.1373  0.2587 -0.4943
 7092TIP3   OH242766   5.855   0.247   2.286 -0.3214 -0.1559 -0.1456
 7092TIP3    H142767   5.872   0.315   2.220 -0.5884 -0.2259 -0.2886
 7092TIP3    H242768   5.884   0.165   2.244 -1.9413 -0.4269 -0.7996
 7093TIP3   OH242769   0.472   3.325  12.742  0.0910 -0.6177  0.1069
 7093TIP3    H142770   0.410   3.387  12.703  0.1382 -0.3629  0.4270
 7093TIP3    H242771   0.460   3.244  12.692 -0.3611 -0.5110  0.0371
 7094TIP3   OH242772   1.603   3.307  12.366 -0.3648 -0.4781  0.1819
 7094TIP3    H142773   1.661   3.262  12.427  0.3085  0.1021 -0.0153
 7094TIP3    H242774   1.533   3.343  12.421  1.4803  2.1074  1.0278
 7095TIP3   OH242775   4.789   3.357  15.880 -0.0265  0.0087  0.1953
 7095TIP3    H142776   4.795   3.375  15.974 -0.3895  0.8326  0.0682
 7095TIP3    H242777   4.723   3.288  15.874 -1.7585  1.5821  0.3888
 7096TIP3   OH242778   3.308   1.451  14.893 -0.0338  0.3148 -0.2383
 7096TIP3    H142779   3.250   1.450  14.969 -1.9431 -0.7882 -1.6236
 7096TIP3    H242780   3.351   1.366  14.894  0.4798  0.5673 -0.0414
 7097TIP3   OH242781   2.152   3.727  12.468 -0.4127 -0.0145  0.3376
 7097TIP3    H142782   2.065   3.719  12.508  0.1998  1.3191  2.0599
 7097TIP3    H242783   2.195   3.795  12.519  0.8043  1.0902 -2.0391
 7098TIP3   OH242784   0.402   1.269   2.328  0.3254  0.3844 -0.2026
 7098TIP3    H142785   0.424   1.265   2.235  1.2745  0.9324 -0.0112
 7098TIP3    H242786   0.371   1.359   2.342  1.9850  0.8982  0.3753
 7099TIP3   OH242787   1.794   3.260   0.117  0.0498  0.1564  0.2372
 7099TIP3    H142788   1.744   3.324   0.067  0.9807  2.0369  1.6075
 7099TIP3    H242789   1.728   3.201   0.154 -1.1749  2.2246  1.5448
 7100TIP3   OH242790   6.709   0.193   2.787  0.2708  0.5393  0.7672
 7100TIP3    H142791   6.757   0.113   2.765  2.0079  0.9785  2.6451
 7100TIP3    H242792   6.630   0.163   2.831 -2.4216 -0.2906 -3.9844
 7101TIP3   OH242793   1.273   0.861  13.157 -0.3752  0.3516  0.1585
 7101TIP3    H142794   1.234   0.877  13.243  1.1759  1.5721  0.6802
 7101TIP3    H242795   1.232   0.927  13.100  0.5060  1.3063  0.5926
 7102TIP3   OH242796   5.499   4.721   3.049  0.4209  0.0010  0.3018
 7102TIP3    H142797   5.519   4.685   2.963  1.0888  0.8989  0.0590
 7102TIP3    H242798   5.484   4.814   3.032 -5.1462 -0.6026  0.2675
 7103TIP3   OH242799   0.262   4.864  10.955 -0.2955 -0.2431 -0.2907
 7103TIP3    H142800   0.207   4.787  10.969  0.6221 -1.2349 -1.8778
 7103TIP3    H242801   0.236   4.925  11.025 -2.8595 -0.9549 -0.5272
 7104TIP3   OH242802   3.733   4.278   5.736  0.0765  0.3044 -0.2846
 7104TIP3    H142803   3.656   4.315   5.778 -0.7713 -1.2977 -0.3660
 7104TIP3    H242804   3.764   4.211   5.797  1.4391  0.9431 -0.2402
 7105TIP3   OH242805   3.096   0.261  16.736 -0.3123 -0.4015  0.2236
 7105TIP3    H142806   3.123   0.304  16.655 -0.0849 -1.6821 -0.4010
 7105TIP3    H242807   3.151   0.183  16.742 -0.1869 -0.2370  1.7260
 7106TIP3   OH242808   2.793   1.361  16.830 -0.3270  0.5270  0.3896
 7106TIP3    H142809   2.879   1.397  16.851 -0.8647  1.9876  0.1819
 7106TIP3    H242810   2.796   1.348  16.735 -0.4810  0.9650  0.3262
 7107TIP3   OH242811   0.131   3.929  10.828 -0.0697 -0.0908 -1.1482
 7107TIP3    H142812   0.172   4.007  10.790  0.1048 -0.5685 -1.9642
 7107TIP3    H242813   0.196   3.860  10.817 -0.0385 -0.2641 -0.0061
 7108TIP3   OH242814   0.252   5.609   3.696  0.1521 -0.0919 -1.2769
 7108TIP3    H142815   0.324   5.637   3.753 -1.7059  1.6302  0.3689
 7108TIP3    H242816   0.227   5.523   3.730 -1.5144  1.2741  1.2792
 7109TIP3   OH242817   6.622   6.413  15.311 -0.4512 -0.4568  0.2492
 7109TIP3    H142818   6.711   6.428  15.279 -0.7815  0.4591 -0.3020
 7109TIP3    H242819   6.629   6.417  15.406  0.2739 -1.5250  0.2525
 7110TIP3   OH242820   3.127   0.366  14.064  0.0700 -0.0983  0.0210
 7110TIP3    H142821   3.164   0.290  14.108  1.9333  0.4746 -0.4750
 7110TIP3    H242822   3.111   0.336  13.974 -0.0170 -0.1591  0.0571
 7111TIP3   OH242823   3.434   2.962   4.417  0.2196 -0.2696  0.7715
 7111TIP3    H142824   3.530   2.960   4.414  0.2004 -0.4919  0.2632
 7111TIP3    H242825   3.410   3.041   4.369  0.0999 -1.0931 -0.6031
 7112TIP3   OH242826   2.616   0.738  16.568  0.2469 -0.1121 -0.0069
 7112TIP3    H142827   2.626   0.708  16.658  0.8082  0.7776  0.2461
 7112TIP3    H242828   2.552   0.809  16.573  0.0026 -0.3048 -0.3671
 7113TIP3   OH242829   1.699   4.750   2.870  0.3678  0.0967  0.1062
 7113TIP3    H142830   1.612   4.748   2.832  1.0269  1.2001 -1.5983
 7113TIP3    H242831   1.710   4.841   2.901  1.0135  0.0576  0.0172
 7114TIP3   OH242832   3.639   2.196  16.200  0.3800  0.0836  0.2558
 7114TIP3    H142833   3.735   2.195  16.195  0.3879 -0.8136  0.4747
 7114TIP3    H242834   3.617   2.122  16.257 -0.3707  1.2011  1.4975
 7115TIP3   OH242835   4.369   2.112   4.493 -0.3970 -1.0038  0.2872
 7115TIP3    H142836   4.391   2.075   4.408  0.0764  1.2528 -0.6400
 7115TIP3    H242837   4.273   2.108   4.497 -0.5944  0.6556 -1.2939
 7116TIP3   OH242838   2.256   2.756   3.007  0.1228  0.9608 -0.2376
 7116TIP3    H142839   2.316   2.711   3.067  1.6746  3.1760  0.0056
 7116TIP3    H242840   2.279   2.849   3.015 -2.5371  1.7915 -1.1088
 7117TIP3   OH242841   5.043   4.229  17.209  0.5167  0.0733  0.0785
 7117TIP3    H142842   5.092   4.207  17.288  0.0535 -1.5162 -0.0456
 7117TIP3    H242843   5.083   4.175  17.141 -1.9005 -1.9417  0.1396
 7118TIP3   OH242844   0.141   6.495   4.665  0.0015  0.3757 -0.1852
 7118TIP3    H142845   0.100   6.536   4.742 -0.8425 -1.0943  0.1736
 7118TIP3    H242846   0.161   6.569   4.607 -2.1912  1.2497  0.0776
 7119TIP3   OH242847   4.131   2.173   3.834  0.2927 -0.1399 -0.3603
 7119TIP3    H142848   4.222   2.187   3.809  0.2258  0.2189 -0.3989
 7119TIP3    H242849   4.127   2.079   3.854  0.4362 -0.3691 -1.3221
 7120TIP3   OH242850   1.089   3.947  15.831 -0.0489 -0.4913 -0.0497
 7120TIP3    H142851   0.994   3.945  15.837  0.0031 -2.0134  1.0645
 7120TIP3    H242852   1.108   3.917  15.742 -0.5958  1.6022 -0.9270
 7121TIP3   OH242853   3.239   5.163   1.976 -0.0792  0.3045 -0.8464
 7121TIP3    H142854   3.284   5.126   1.900  0.0768  1.4227 -1.3267
 7121TIP3    H242855   3.265   5.255   1.977  0.1181  0.2598  0.7194
 7122TIP3   OH242856   5.332   1.828  11.546  0.0758  0.0528 -0.1765
 7122TIP3    H142857   5.395   1.857  11.613 -0.9121  1.9722 -0.0226
 7122TIP3    H242858   5.246   1.839  11.587 -0.5455  1.0234 -1.6578
 7123TIP3   OH242859   2.555   0.204  17.205  0.4752  0.3904  0.1080
 7123TIP3    H142860   2.593   0.251  17.131 -0.0969  0.2623 -0.2747
 7123TIP3    H242861   2.628   0.156  17.244  0.8135  0.5996 -0.2667
 7124TIP3   OH242862   5.893   1.872   3.640 -0.4626  0.1923  0.1776
 7124TIP3    H142863   5.822   1.935   3.654 -0.2935  0.1795  1.1586
 7124TIP3    H242864   5.865   1.793   3.687 -0.2731 -0.1635 -0.3033
 7125TIP3   OH242865   3.930   2.584   6.743  0.4024 -0.8980 -0.6480
 7125TIP3    H142866   3.911   2.545   6.658 -0.5760 -0.9813 -0.4002
 7125TIP3    H242867   3.979   2.516   6.790 -0.1115 -1.3111 -0.7061
 7126TIP3   OH242868   2.865   6.478  15.896 -0.1183 -0.2189 -0.0005
 7126TIP3    H142869   2.842   6.565  15.864 -0.3385 -0.3366 -0.1614
 7126TIP3    H242870   2.805   6.419  15.851 -1.0486 -0.3071  1.3103
 7127TIP3   OH242871   1.373   0.289  12.771 -0.2334  0.2344  0.0071
 7127TIP3    H142872   1.311   0.321  12.706  0.0607 -1.7812 -1.3530
 7127TIP3    H242873   1.362   0.194  12.770  2.9491 -0.2387 -0.4284
 7128TIP3   OH242874   5.947   0.750   4.776  0.0659  0.3624  0.3778
 7128TIP3    H142875   5.899   0.796   4.707 -1.9363 -0.1979  1.3462
 7128TIP3    H242876   6.038   0.754   4.747 -0.7464 -0.5771 -2.7400
 7129TIP3   OH242877   5.946   5.130   2.555  0.3215  0.1776 -0.2871
 7129TIP3    H142878   6.011   5.200   2.544 -0.3223  0.8242 -0.0899
 7129TIP3    H242879   5.909   5.118   2.468  1.1365 -0.6327 -0.5309
 7130TIP3   OH242880   6.438   4.485  10.797 -0.4588  0.0931 -0.3314
 7130TIP3    H142881   6.472   4.443  10.876  1.0129  0.9500 -0.4658
 7130TIP3    H242882   6.357   4.527  10.825 -0.4774 -0.4566  0.4697
 7131TIP3   OH242883   0.755   1.689  14.439 -0.1400  0.4765  0.1136
 7131TIP3    H142884   0.695   1.617  14.458 -2.0146  1.9732  0.0925
 7131TIP3    H242885   0.807   1.699  14.519  0.2839 -0.9845  0.0524
 7132TIP3   OH242886   0.847   6.077  14.510 -0.3797 -0.1757 -0.2084
 7132TIP3    H142887   0.760   6.081  14.472  0.2273  0.9812 -1.5606
 7132TIP3    H242888   0.890   6.004  14.465  0.3743  1.2593 -1.9418
 7133TIP3   OH242889   4.936   6.289  14.071 -0.2240  0.6442  0.2460
 7133TIP3    H142890   4.855   6.259  14.112  0.5727  1.0891  2.2627
 7133TIP3    H242891   4.981   6.209  14.044 -0.6427  0.3214  0.4938
 7134TIP3   OH242892   1.999   5.085  15.248 -0.5098  0.2502  0.0915
 7134TIP3    H142893   2.089   5.060  15.268 -0.4306 -1.5372 -2.1167
 7134TIP3    H242894   1.945   5.019  15.292 -0.6104 -0.0962 -0.5410
 7135TIP3   OH242895   3.996   3.710  10.687  0.2899 -0.1345  0.4322
 7135TIP3    H142896   4.075   3.745  10.728  2.0832 -1.3918 -1.7156
 7135TIP3    H242897   3.992   3.619  10.716 -1.3671  0.3359  1.8215
 7136TIP3   OH242898   2.172   6.403  14.946 -0.7012 -0.3049  0.3895
 7136TIP3    H142899   2.130   6.489  14.940  0.5706  0.3306  0.4357
 7136TIP3    H242900   2.182   6.375  14.855 -1.7976 -0.7596  0.3942
 7137TIP3   OH242901   6.516   4.238   0.614  0.2237 -0.0117  0.0174
 7137TIP3    H142902   6.422   4.244   0.596  0.0213 -1.3752  0.5337
 7137TIP3    H242903   6.548   4.327   0.601 -1.3903  0.8146  1.2947
 7138TIP3   OH242904   1.023   1.676   2.313 -0.0123 -0.0459  0.7041
 7138TIP3    H142905   1.034   1.640   2.225 -1.7869  0.8530  0.0752
 7138TIP3    H242906   1.102   1.650   2.359  0.3492 -1.6896 -0.7540
 7139TIP3   OH242907   1.111   2.673  16.922 -0.3515 -0.2680  0.8935
 7139TIP3    H142908   1.095   2.581  16.903 -0.9410 -0.1493  0.7863
 7139TIP3    H242909   1.023   2.711  16.930 -0.2456  1.1119 -2.8564
 7140TIP3   OH242910   1.024   4.833  16.763  0.0183 -1.0558  0.5895
 7140TIP3    H142911   1.052   4.756  16.713  3.8445 -2.2153  3.9460
 7140TIP3    H242912   0.977   4.796  16.838  0.6127 -0.0565  1.4732
 7141TIP3   OH242913   1.406   3.374   3.108 -0.6709  0.0125  0.2761
 7141TIP3    H142914   1.311   3.382   3.114 -0.7075 -0.7308  0.7821
 7141TIP3    H242915   1.439   3.456   3.145 -1.1245  2.2263 -3.7086
 7142TIP3   OH242916   3.836   6.694  16.076 -0.2708 -0.2270 -0.7261
 7142TIP3    H142917   3.905   6.728  16.134 -1.3888  1.1710 -0.1692
 7142TIP3    H242918   3.878   6.622  16.029  0.8922 -0.9404  1.2975
 7143TIP3   OH242919   5.711   6.227  10.374 -0.6301  0.3487 -0.0097
 7143TIP3    H142920   5.654   6.218  10.450 -1.4646 -3.1634 -0.8838
 7143TIP3    H242921   5.658   6.275  10.310 -0.3955  2.1651  1.0993
 7144TIP3   OH242922   0.393   5.714   2.110  0.5979 -0.5970 -0.4066
 7144TIP3    H142923   0.478   5.672   2.100  1.2390 -0.0608  2.1323
 7144TIP3    H242924   0.363   5.687   2.196 -1.0419  0.5645 -0.5717
 7145TIP3   OH242925   5.021   4.379  13.804 -0.3809  0.0721  0.2705
 7145TIP3    H142926   5.054   4.348  13.720 -0.5549  1.3936 -0.3196
 7145TIP3    H242927   5.006   4.473  13.790 -0.3507  0.3314  1.7957
 7146TIP3   OH242928   4.149   5.348  11.127  0.3909 -0.2922 -0.6295
 7146TIP3    H142929   4.140   5.377  11.217  0.9145 -0.8380 -0.3948
 7146TIP3    H242930   4.094   5.408  11.076 -0.8285 -0.6804  0.1882
 7147TIP3   OH242931   1.476   0.245  16.375  0.1036  0.0391  0.3823
 7147TIP3    H142932   1.495   0.207  16.290  0.8643 -0.7123  0.8786
 7147TIP3    H242933   1.480   0.171  16.436 -0.8356  0.4931  1.0184
 7148TIP3   OH242934   2.514   4.629   0.520 -0.2665  0.0465  0.1814
 7148TIP3    H142935   2.443   4.681   0.557  1.0356 -0.0706  3.1294
 7148TIP3    H242936   2.579   4.693   0.491 -0.7554  0.1022 -0.8579
 7149TIP3   OH242937   1.878   3.538   4.225  0.2225 -0.0630  0.2922
 7149TIP3    H142938   1.956   3.483   4.227 -0.5545 -1.2538 -0.5941
 7149TIP3    H242939   1.837   3.525   4.311 -1.5443 -3.3732 -0.8703
 7150TIP3   OH242940   0.980   1.590  15.697 -0.4301 -0.1613 -0.0681
 7150TIP3    H142941   0.955   1.521  15.758  1.3949 -0.1071  0.8043
 7150TIP3    H242942   1.048   1.551  15.642 -0.4399  0.4978 -0.5651
 7151TIP3   OH242943   0.104   4.053  16.354 -0.2559 -0.0261 -0.0731
 7151TIP3    H142944   0.163   4.021  16.286 -1.0452  0.5615 -1.0468
 7151TIP3    H242945   0.138   4.015  16.435 -0.1060 -1.8418 -0.9598
 7152TIP3   OH242946   3.694   4.666  16.095  0.0819  0.4552  0.6114
 7152TIP3    H142947   3.712   4.677  16.002 -1.7410 -1.0402  0.0254
 7152TIP3    H242948   3.648   4.747  16.120  0.8943  1.0187  0.3278
 7153TIP3   OH242949   2.682   0.072   2.524  0.3862 -0.3287 -0.3025
 7153TIP3    H142950   2.746   0.034   2.583  1.8365  2.7956  0.3561
 7153TIP3    H242951   2.732   0.104   2.449 -0.8242 -0.3121 -1.1531
 7154TIP3   OH242952   3.915   2.309   4.942  0.1624 -0.0902  0.1742
 7154TIP3    H142953   3.855   2.326   5.015  0.3800  0.3087  0.2605
 7154TIP3    H242954   3.970   2.236   4.972 -0.0205 -0.1990  0.2455
 7155TIP3   OH242955   1.118   4.478  16.758  0.0683  0.7624  0.1679
 7155TIP3    H142956   1.183   4.506  16.823  0.8088  0.6778 -0.5137
 7155TIP3    H242957   1.119   4.547  16.692  0.2670  0.2327 -0.3955
 7156TIP3   OH242958   4.491   3.556   5.757  0.5798  0.0473  0.1174
 7156TIP3    H142959   4.448   3.560   5.671  0.5764  1.4707  0.1581
 7156TIP3    H242960   4.435   3.608   5.814  3.1265  3.5640 -0.2455
 7157TIP3   OH242961   4.918   3.414   5.890 -0.2205  0.5329 -0.5203
 7157TIP3    H142962   4.855   3.343   5.875 -0.0636  0.5092 -1.1055
 7157TIP3    H242963   4.915   3.429   5.984  0.5078 -0.9739 -0.2129
 7158TIP3   OH242964   6.656   2.072   2.924 -0.1559 -0.1576  0.5283
 7158TIP3    H142965   6.696   2.117   2.850 -1.5591 -0.7396 -0.6253
 7158TIP3    H242966   6.716   2.089   2.997 -0.7387  3.8571  0.2965
 7159TIP3   OH242967   2.923   4.882   0.838  0.2763  0.2675  0.1720
 7159TIP3    H142968   2.900   4.794   0.810  0.9520  0.5704 -1.4671
 7159TIP3    H242969   2.935   4.931   0.756  0.8553  1.6300  1.0285
 7160TIP3   OH242970   3.182   0.998   5.180  0.4012 -0.1770 -0.1915
 7160TIP3    H142971   3.089   1.018   5.192  0.4734  0.9253 -1.2159
 7160TIP3    H242972   3.193   0.910   5.215 -0.7379  0.1992  1.2177
 7161TIP3   OH242973   4.818   4.025   3.940 -0.2174  0.3347  0.3326
 7161TIP3    H142974   4.862   4.096   3.987 -0.3212  0.6175  0.0048
 7161TIP3    H242975   4.734   4.014   3.984  0.5869 -0.9086  1.6266
 7162TIP3   OH242976   3.836   5.441   1.104 -0.2553  0.6685 -0.8448
 7162TIP3    H142977   3.879   5.466   1.186  1.8826 -0.8116 -1.4092
 7162TIP3    H242978   3.764   5.502   1.095  0.1461  1.6114  1.5560
 7163TIP3   OH242979   5.413   1.781   0.091  0.5219  0.9589 -0.5902
 7163TIP3    H142980   5.432   1.687   0.085 -1.4868  0.5491 -1.5634
 7163TIP3    H242981   5.440   1.805   0.180 -2.4260 -1.5142  1.1866
 7164TIP3   OH242982   1.544   3.703  12.197  0.1537  0.2758  0.4803
 7164TIP3    H142983   1.459   3.663  12.216  0.5134 -1.7759 -1.6493
 7164TIP3    H242984   1.528   3.797  12.201 -1.7232 -0.0492  2.0159
 7165TIP3   OH242985   5.682   1.961   2.044 -0.2697  0.4926  0.2739
 7165TIP3    H142986   5.602   1.909   2.037 -0.5008  0.6986  1.2659
 7165TIP3    H242987   5.689   2.005   1.959 -0.3386 -0.7510 -0.3888
 7166TIP3   OH242988   0.648   2.843  12.299  0.1191 -0.7313  0.2824
 7166TIP3    H142989   0.592   2.912  12.262  0.9485  0.1460  0.6177
 7166TIP3    H242990   0.621   2.764  12.253 -1.1673 -0.2733  0.2037
 7167TIP3   OH242991   4.317   1.794   5.917 -0.2358 -0.4148  0.6567
 7167TIP3    H142992   4.371   1.729   5.962 -0.9857 -0.3293  1.7221
 7167TIP3    H242993   4.380   1.846   5.866  0.3925 -1.8861 -0.1486
 7168TIP3   OH242994   0.229   2.934  11.473  0.2224 -0.4309  0.0838
 7168TIP3    H142995   0.157   2.984  11.436  0.6866 -0.8760 -1.5104
 7168TIP3    H242996   0.232   2.853  11.422  0.1329 -1.6734  1.9240
 7169TIP3   OH242997   1.239   5.470  15.192  0.2114  0.1781  0.3127
 7169TIP3    H142998   1.309   5.427  15.242 -1.4537 -1.7401  1.1288
 7169TIP3    H242999   1.269   5.468  15.101  1.9481  0.9761  0.8207
 7170TIP3   OH243000   1.410   4.147   4.218 -0.8267  0.2167  0.0375
 7170TIP3    H143001   1.391   4.235   4.251 -3.3214 -0.3454  0.2589
 7170TIP3    H243002   1.350   4.135   4.145 -0.7041 -1.4044  0.1681
 7171TIP3   OH243003   0.171   2.649  10.829 -0.4842  0.3948  0.2275
 7171TIP3    H143004   0.264   2.638  10.849 -1.0680 -0.4600  2.9059
 7171TIP3    H243005   0.160   2.743  10.815  0.5933  0.6985  1.2107
 7172TIP3   OH243006   5.320   1.186   4.119 -1.0181  0.3415  0.5145
 7172TIP3    H143007   5.274   1.135   4.052 -0.6373  2.2295 -1.3003
 7172TIP3    H243008   5.265   1.263   4.132 -0.2770  0.7665  1.1815
 7173TIP3   OH243009   3.700   2.269  13.843 -0.7541 -0.0012  0.2146
 7173TIP3    H143010   3.719   2.193  13.789  1.7832 -0.0626  1.0693
 7173TIP3    H243011   3.632   2.317  13.794 -0.3086 -1.2918 -1.7723
 7174TIP3   OH243012   1.248   1.763   4.230 -0.3141 -0.6817  0.2241
 7174TIP3    H143013   1.290   1.777   4.146  0.2541  1.8294  0.8540
 7174TIP3    H243014   1.177   1.827   4.233  1.8684  1.8883  2.9927
 7175TIP3   OH243015   5.616   4.578   0.108  0.0019 -0.0107 -0.2368
 7175TIP3    H143016   5.653   4.504   0.154  2.1720  1.4203  0.4878
 7175TIP3    H243017   5.668   4.585   0.028 -2.4211 -1.2556 -2.0534
 7176TIP3   OH243018   5.882   3.847  12.896 -0.1256  0.0780 -0.3106
 7176TIP3    H143019   5.889   3.940  12.918  0.1394 -0.2630  1.1579
 7176TIP3    H243020   5.915   3.801  12.973 -0.5459 -1.2483 -0.8810
 7177TIP3   OH243021   2.960   6.262  16.699  0.0529  0.0304 -0.7331
 7177TIP3    H143022   2.983   6.263  16.792  1.0612 -0.2663 -0.9571
 7177TIP3    H243023   2.875   6.219  16.696  0.5687 -1.0909 -0.0502
 7178TIP3   OH243024   1.972   1.655   2.052 -0.9933  0.6158  0.3413
 7178TIP3    H143025   1.978   1.750   2.052 -1.7611  0.6858  1.4720
 7178TIP3    H243026   2.019   1.628   1.973  0.4744  1.8467  0.7375
 7179TIP3   OH243027   0.647   3.302  16.344 -0.4004  0.3840 -0.0784
 7179TIP3    H143028   0.660   3.208  16.332  0.4055  0.3281  1.0887
 7179TIP3    H243029   0.669   3.318  16.436 -0.5284  1.7162 -0.2570
 7180TIP3   OH243030   5.117   1.512  15.535 -0.7248 -0.2866  0.2768
 7180TIP3    H143031   5.160   1.502  15.620  0.2789  0.3290 -0.1426
 7180TIP3    H243032   5.044   1.572  15.553 -0.7612 -0.4771  0.7812
 7181TIP3   OH243033   2.534   1.966   3.149  0.2679 -0.2133  0.0333
 7181TIP3    H143034   2.616   1.998   3.111  1.0365 -1.3949  0.6256
 7181TIP3    H243035   2.544   1.982   3.243 -1.3388  2.0906 -0.1096
 7182TIP3   OH243036   5.155   3.831  13.751  0.2991 -0.2301  0.1697
 7182TIP3    H143037   5.090   3.877  13.804  1.7424  2.4649 -0.1796
 7182TIP3    H243038   5.125   3.842  13.661  0.9346  0.6440  0.0418
 7183TIP3   OH243039   2.774   6.434   4.173 -0.8373  0.0141  0.1083
 7183TIP3    H143040   2.779   6.436   4.269  5.1894  1.2507  0.1446
 7183TIP3    H243041   2.753   6.524   4.149 -2.3545 -0.2970  0.1376
 7184TIP3   OH243042   6.536   2.725  12.046 -0.1135  0.5966 -0.0789
 7184TIP3    H143043   6.544   2.817  12.018 -0.1765  0.9471  1.0128
 7184TIP3    H243044   6.601   2.715  12.114  1.3141 -0.7716 -1.5570
 7185TIP3   OH243045   3.514   2.040  16.385 -0.1889  0.1073 -0.0901
 7185TIP3    H143046   3.436   2.094  16.399 -1.3124  0.1174 -4.5780
 7185TIP3    H243047   3.482   1.950  16.389 -0.7708  0.1173 -2.5960
 7186TIP3   OH243048   3.627   0.912  13.587 -0.3879  0.3015  0.4781
 7186TIP3    H143049   3.614   0.963  13.667  0.4638  0.4245  0.5447
 7186TIP3    H243050   3.611   0.821  13.614 -2.1348  0.5081  0.3090
 7187TIP3   OH243051   4.262   1.969   3.228 -0.5381  0.8749  0.2501
 7187TIP3    H143052   4.274   2.010   3.314  1.7806  0.8693 -0.0243
 7187TIP3    H243053   4.337   1.998   3.176  0.4099 -2.4048 -0.4410
 7188TIP3   OH243054   3.207   4.644  12.785  0.0104  0.3271  0.0840
 7188TIP3    H143055   3.202   4.620  12.878 -0.1975 -0.4531 -0.1216
 7188TIP3    H243056   3.144   4.716  12.775 -0.1999  0.1999  0.4839
 7189TIP3   OH243057   3.653   3.276  11.551 -0.3056  0.9598 -0.0929
 7189TIP3    H143058   3.734   3.250  11.508 -0.0403 -0.1015  1.0364
 7189TIP3    H243059   3.605   3.195  11.564 -0.8879  1.4026  0.5967
 7190TIP3   OH243060   3.573   1.906   4.662  0.1502  0.6884  0.1088
 7190TIP3    H143061   3.652   1.959   4.672  1.3312 -1.0760  0.5559
 7190TIP3    H243062   3.605   1.821   4.634 -1.5748 -0.1348  0.5370
 7191TIP3   OH243063   0.312   2.369  13.423  0.6793  0.2461 -0.1358
 7191TIP3    H143064   0.346   2.452  13.389  1.9105  0.5925  1.7767
 7191TIP3    H243065   0.326   2.306  13.353 -2.1093  1.9460 -2.4457
 7192TIP3   OH243066   5.980   5.268   1.517 -0.1315 -0.4091  0.1414
 7192TIP3    H143067   5.977   5.189   1.571  0.6394 -0.0478  0.7190
 7192TIP3    H243068   5.889   5.296   1.512 -0.5423 -1.7656 -0.7386
 7193TIP3   OH243069   6.207   3.046  16.118  0.2993 -0.3069 -0.5388
 7193TIP3    H143070   6.193   2.965  16.070  1.7300  0.1294 -1.7519
 7193TIP3    H243071   6.236   3.109  16.052  0.5411  0.8165  0.5920
 7194TIP3   OH243072   1.734   3.116   5.649  0.2539 -0.7373 -0.2157
 7194TIP3    H143073   1.700   3.033   5.614 -0.2958  0.3009 -2.2682
 7194TIP3    H243074   1.829   3.109   5.641  0.4666 -2.2917  2.3964
 7195TIP3   OH243075   4.974   0.738  11.701 -0.5677 -0.5060 -0.0875
 7195TIP3    H143076   5.006   0.819  11.741  0.7002 -0.8731 -0.3015
 7195TIP3    H243077   4.981   0.672  11.770 -0.0753 -0.7566 -0.3657
 7196TIP3   OH243078   4.379   5.822  15.356 -0.5488  0.2604 -0.0735
 7196TIP3    H143079   4.297   5.862  15.327 -0.0796  0.7954 -0.7219
 7196TIP3    H243080   4.434   5.896  15.382 -0.8373 -0.1858  1.9708
 7197TIP3   OH243081   1.090   4.666  16.561  0.0342 -0.1010  0.3200
 7197TIP3    H143082   1.017   4.634  16.508  0.2036  1.7280 -1.1126
 7197TIP3    H243083   1.129   4.736  16.509  1.0710  0.8710  2.2855
 7198TIP3   OH243084   4.092   4.437  16.973  0.3019  0.2481 -0.3345
 7198TIP3    H143085   4.143   4.495  16.917 -0.1275  0.7287 -0.2319
 7198TIP3    H243086   4.113   4.465  17.062  0.4531 -0.0624 -0.2708
 7199TIP3   OH243087   6.414   1.824   6.052  0.0529  0.1599 -0.0978
 7199TIP3    H143088   6.411   1.731   6.033 -1.6355 -0.1836  1.5750
 7199TIP3    H243089   6.344   1.862   5.997  0.8467  0.5073 -0.9047
 7200TIP3   OH243090   0.160   3.433  13.572  0.1348  0.3603  0.5568
 7200TIP3    H143091   0.114   3.488  13.636 -1.2594 -0.0032 -0.1002
 7200TIP3    H243092   0.136   3.343  13.597 -0.4528  0.2185 -0.4744
 7201TIP3   OH243093   4.595   5.705   5.892  0.0542  0.0950 -0.1083
 7201TIP3    H143094   4.570   5.798   5.887  0.8894  0.3514  0.2736
 7201TIP3    H243095   4.517   5.661   5.926  0.3775  1.0041  1.9588
 7202TIP3   OH243096   3.290   1.475  11.930  0.1232  0.4827  0.6651
 7202TIP3    H143097   3.271   1.527  11.852 -2.5318 -1.2462  0.0340
 7202TIP3    H243098   3.349   1.406  11.898 -1.1765 -0.3849  0.0475
 7203TIP3   OH243099   3.730   6.759   1.917  0.3461  0.4505  0.6746
 7203TIP3    H143100   3.775   6.718   1.843 -0.5862  2.2606 -1.0054
 7203TIP3    H243101   3.789   6.747   1.991  0.6987 -2.6684  0.0439
 7204TIP3   OH243102   3.746   6.327  15.454  0.2714  0.3196  0.0948
 7204TIP3    H143103   3.815   6.317  15.388 -0.5284 -1.2862 -0.5573
 7204TIP3    H243104   3.774   6.402  15.507  2.2115  0.0815 -0.5111
 7205TIP3   OH243105   1.839   2.271  14.489  0.1190 -0.6001 -0.0924
 7205TIP3    H143106   1.776   2.340  14.509  0.3910  0.1333 -1.6476
 7205TIP3    H243107   1.786   2.198  14.457 -0.0279 -0.4941 -0.0887
 7206TIP3   OH243108   1.647   4.757  15.745 -0.2525  0.1304  0.1677
 7206TIP3    H143109   1.708   4.801  15.805  0.3525  2.1381 -1.7428
 7206TIP3    H243110   1.639   4.818  15.671 -1.6959 -1.7664 -1.3512
 7207TIP3   OH243111   4.523   5.927   2.839  0.1616  0.3305  0.2933
 7207TIP3    H143112   4.527   6.006   2.785  1.7018  1.1954  1.5889
 7207TIP3    H243113   4.603   5.879   2.818 -0.0241 -0.1353  0.6230
 7208TIP3   OH243114   3.196   1.117   2.790  0.2844  0.0406  0.0632
 7208TIP3    H143115   3.207   1.191   2.850 -1.5217 -0.1891  0.7464
 7208TIP3    H243116   3.168   1.044   2.846 -0.6520 -0.4038 -0.9384
 7209TIP3   OH243117   3.635   4.887  13.936 -0.1814  0.7065  0.0208
 7209TIP3    H143118   3.619   4.946  14.010 -1.3681 -1.1906  1.3526
 7209TIP3    H243119   3.722   4.912  13.903  1.0773  0.6541  3.0087
 7210TIP3   OH243120   3.583   3.227   1.784 -0.4543  0.4103 -0.0403
 7210TIP3    H143121   3.587   3.295   1.717 -1.2968  1.8853  1.3327
 7210TIP3    H243122   3.629   3.265   1.859 -3.8376  0.9931  1.9553
 7211TIP3   OH243123   5.665   1.997   4.391 -0.1000  0.5622  0.1198
 7211TIP3    H143124   5.751   2.035   4.410  0.2032  2.7791 -4.3219
 7211TIP3    H243125   5.643   1.946   4.469  3.8213  2.3449  2.7054
 7212TIP3   OH243126   5.091   0.818  13.902  0.4172 -0.0627 -0.2784
 7212TIP3    H143127   5.002   0.847  13.923  0.4995  0.1734 -0.2540
 7212TIP3    H243128   5.133   0.806  13.987  0.4886  0.0770 -0.2932
 7213TIP3   OH243129   3.608   1.319  16.104  0.2776 -0.2410  0.6300
 7213TIP3    H143130   3.589   1.387  16.039  0.1210 -1.6337 -0.8288
 7213TIP3    H243131   3.534   1.259  16.099  0.4510 -0.5891  1.8418
 7214TIP3   OH243132   5.940   2.249  11.520  0.0092 -0.0401 -0.2655
 7214TIP3    H143133   5.985   2.282  11.442  1.8059 -0.7573  0.4085
 7214TIP3    H243134   5.911   2.328  11.566  0.9360  0.4858 -0.5555
 7215TIP3   OH243135   0.364   5.459   5.958  0.2070  0.0763  0.0365
 7215TIP3    H143136   0.413   5.411   6.024 -0.4380  0.0646  0.5154
 7215TIP3    H243137   0.395   5.550   5.968 -0.3981  0.2057  0.8454
 7216TIP3   OH243138   1.826   5.121  12.133  0.1652  0.3428  0.3378
 7216TIP3    H143139   1.775   5.201  12.117  1.1295  1.4427  2.3298
 7216TIP3    H243140   1.798   5.060  12.065 -1.9279  1.7598 -0.1496
 7217TIP3   OH243141   2.173   2.090  16.736  0.0571 -0.2528  0.0168
 7217TIP3    H143142   2.176   2.185  16.746  1.2359 -0.3414  0.6386
 7217TIP3    H243143   2.141   2.058  16.820  2.1139 -0.5258  0.7484
 7218TIP3   OH243144   5.842   4.795   4.259 -0.0675 -0.6395  0.1584
 7218TIP3    H143145   5.840   4.830   4.169  0.6619  1.9030  1.0431
 7218TIP3    H243146   5.785   4.855   4.308  0.4578 -1.3100  1.6228
 7219TIP3   OH243147   3.592   5.987  15.212 -0.2208  0.5075  0.4461
 7219TIP3    H143148   3.573   6.039  15.135 -2.1130 -0.4753  0.1971
 7219TIP3    H243149   3.580   6.047  15.286 -2.6317  0.4512  0.1822
 7220TIP3   OH243150   0.789   4.350  11.119 -0.6540 -0.6352  0.1823
 7220TIP3    H143151   0.860   4.338  11.182 -1.8162  2.0420  2.2050
 7220TIP3    H243152   0.829   4.395  11.046 -0.0718  0.0167  0.8929
 7221TIP3   OH243153   0.519   5.202   0.765 -0.5388  0.2041  0.1340
 7221TIP3    H143154   0.463   5.145   0.712  0.0914  1.3785 -1.9216
 7221TIP3    H243155   0.605   5.160   0.763 -0.7255 -0.2722  1.1495
 7222TIP3   OH243156   5.443   2.231  11.168 -0.2234  0.3792  0.5858
 7222TIP3    H143157   5.479   2.292  11.103 -0.2695  0.1213  0.3103
 7222TIP3    H243158   5.351   2.221  11.143 -0.0585 -0.3162  0.2118
 7223TIP3   OH243159   2.510   5.174   2.066  0.1821  0.4543 -0.0638
 7223TIP3    H143160   2.599   5.151   2.038  0.1843 -0.1847  0.4467
 7223TIP3    H243161   2.513   5.171   2.162 -1.1210 -2.6410  0.0072
 7224TIP3   OH243162   5.745   3.411  12.853  0.0072  0.4979 -0.2862
 7224TIP3    H143163   5.828   3.452  12.829  0.0352 -0.1786 -1.4234
 7224TIP3    H243164   5.754   3.393  12.946  1.3679 -0.0483 -0.4970
 7225TIP3   OH243165   5.394   4.502   3.222 -0.4804  0.0466  0.3235
 7225TIP3    H143166   5.485   4.488   3.247 -0.0574  0.6294 -0.8147
 7225TIP3    H243167   5.394   4.587   3.177 -1.6306  0.1677  0.5206
 7226TIP3   OH243168   5.289   6.089  12.135 -0.0491 -0.0418  0.0622
 7226TIP3    H143169   5.330   6.175  12.145  1.6885 -1.0126  1.9752
 7226TIP3    H243170   5.284   6.076  12.040  0.9355  1.5725 -0.2492
 7227TIP3   OH243171   2.204   6.091  12.041 -0.2132 -0.3249 -0.2481
 7227TIP3    H143172   2.117   6.094  12.000  0.1042  1.0708 -0.8845
 7227TIP3    H243173   2.187   6.097  12.135 -0.7825  1.0763 -0.4164
 7228TIP3   OH243174   0.866   2.024  15.726 -0.1067  0.0559  0.3908
 7228TIP3    H143175   0.781   1.994  15.694  0.3808 -1.0428  0.0905
 7228TIP3    H243176   0.910   1.945  15.756  1.4283  0.3786 -0.9080
 7229TIP3   OH243177   1.264   6.229  16.128 -0.1792 -0.1998  0.1648
 7229TIP3    H143178   1.210   6.265  16.198  1.0469  0.2746  0.8922
 7229TIP3    H243179   1.209   6.235  16.050 -1.6622 -0.9687  1.1131
 7230TIP3   OH243180   6.312   3.914   0.952  0.1178  0.1910  0.1720
 7230TIP3    H143181   6.303   3.825   0.985 -1.0167  0.4766  0.6837
 7230TIP3    H243182   6.350   3.962   1.026  1.8901 -0.0971 -0.5099
 7231TIP3   OH243183   1.956   0.483  12.544  0.3661  0.7100  0.2142
 7231TIP3    H143184   1.868   0.514  12.565  0.0083 -1.4021  2.2798
 7231TIP3    H243185   1.960   0.396  12.583  3.1384  0.4465 -0.4858
 7232TIP3   OH243186   2.347   3.782   4.228 -0.5385 -0.4636  0.3173
 7232TIP3    H143187   2.267   3.786   4.176 -0.4924 -1.0834  0.1903
 7232TIP3    H243188   2.352   3.867   4.271 -0.6905 -0.0205 -0.5214
 7233TIP3   OH243189   0.047   0.546   2.944  0.3030  0.0315  0.0122
 7233TIP3    H143190  -0.038   0.582   2.971  0.2962  0.4858 -0.5943
 7233TIP3    H243191   0.036   0.525   2.851  0.0092 -2.4405  0.5262
 7234TIP3   OH243192   3.135   0.421   3.149  0.1426 -0.0387 -0.1015
 7234TIP3    H143193   3.068   0.465   3.202 -0.1670 -1.3113  0.6016
 7234TIP3    H243194   3.214   0.473   3.163 -0.8527  2.1460 -1.7911
 7235TIP3   OH243195   2.731   1.404   4.628 -0.4122 -0.2868  0.0042
 7235TIP3    H143196   2.664   1.385   4.562  0.2136  0.1410 -0.7737
 7235TIP3    H243197   2.749   1.498   4.618 -1.5027  0.1877  1.9307
 7236TIP3   OH243198   2.029   4.790   1.502  0.4599 -0.7193 -0.0303
 7236TIP3    H143199   1.965   4.796   1.572 -1.0241  0.8856 -1.4166
 7236TIP3    H243200   2.103   4.843   1.531 -0.9957  1.6601 -0.4657
 7237TIP3   OH243201   1.795   1.492  15.643  0.0067 -0.1120  0.5287
 7237TIP3    H143202   1.745   1.537  15.574  0.2854 -1.5519 -0.6505
 7237TIP3    H243203   1.882   1.531  15.637 -0.2133  0.4302  0.7178
 7238TIP3   OH243204   5.105   2.737  11.430 -0.6011 -0.4170 -0.2228
 7238TIP3    H143205   5.068   2.752  11.343  0.8729 -1.5084 -1.0837
 7238TIP3    H243206   5.101   2.642  11.442  1.2728 -0.5225 -0.1004
 7239TIP3   OH243207   1.353   6.320   1.324 -0.0892 -0.1632  0.0500
 7239TIP3    H143208   1.435   6.271   1.316 -0.6946 -1.3645  0.9766
 7239TIP3    H243209   1.334   6.348   1.235 -0.0590 -2.2090 -0.6578
 7240TIP3   OH243210   3.767   5.765  10.376 -0.2247 -0.1289  0.2093
 7240TIP3    H143211   3.740   5.768  10.284 -0.4108 -1.2107  0.2170
 7240TIP3    H243212   3.835   5.832  10.383 -0.1364 -0.1047 -0.7414
 7241TIP3   OH243213   1.343   3.557   0.174  0.4286 -0.5580 -0.4998
 7241TIP3    H143214   1.411   3.619   0.199 -0.6104  0.5448 -0.3253
 7241TIP3    H243215   1.301   3.532   0.257  0.2201 -0.7577 -0.6640
 7242TIP3   OH243216   0.900   1.253  11.019 -0.3811  0.3873  0.4451
 7242TIP3    H143217   0.837   1.324  11.011 -1.2359 -0.4354 -0.2437
 7242TIP3    H243218   0.947   1.272  11.101 -0.9555  1.4411  0.5469
 7243TIP3   OH243219   1.312   5.020  10.714  0.2501 -0.5086  0.7990
 7243TIP3    H143220   1.235   4.964  10.713  0.8914 -1.4244  1.4398
 7243TIP3    H243221   1.371   4.982  10.649  0.5766 -0.4249  1.0414
 7244TIP3   OH243222   1.414   3.110  12.599  0.1329  0.6711  0.7100
 7244TIP3    H143223   1.426   3.205  12.592 -1.8137  0.8760 -0.6794
 7244TIP3    H243224   1.320   3.097  12.587  0.3814 -1.4640  0.7318
 7245TIP3   OH243225   3.407   4.049  13.982  0.6820 -0.1694 -0.4869
 7245TIP3    H143226   3.442   4.102  14.054  3.2314 -0.7629 -1.1975
 7245TIP3    H243227   3.480   4.041  13.920 -0.2464 -2.8433 -1.3598
 7246TIP3   OH243228   0.817   5.881   3.778  0.0933 -0.6124 -0.1632
 7246TIP3    H143229   0.866   5.799   3.784  0.9526 -0.3539 -2.5184
 7246TIP3    H243230   0.731   5.855   3.745  0.2866 -0.6166 -0.6799
 7247TIP3   OH243231   5.069   4.457  11.007  0.4972 -0.1188  0.2303
 7247TIP3    H143232   5.033   4.534  10.963 -0.2400 -1.5557 -1.8830
 7247TIP3    H243233   5.077   4.483  11.099 -2.6493  1.4857  0.1913
 7248TIP3   OH243234   5.799   1.444   1.866  0.2531 -0.5476 -0.0653
 7248TIP3    H143235   5.768   1.443   1.775 -0.5304 -0.5953  0.1867
 7248TIP3    H243236   5.718   1.441   1.918  0.5668  1.5822  0.6566
 7249TIP3   OH243237   0.597   0.374   3.889  0.0040  0.0977  0.4282
 7249TIP3    H143238   0.615   0.280   3.881  1.3447  0.4425 -1.1817
 7249TIP3    H243239   0.680   0.416   3.868 -1.3650  1.7102 -2.2017
 7250TIP3   OH243240   0.853   0.158  14.145 -0.8770 -0.0381 -0.2768
 7250TIP3    H143241   0.878   0.081  14.094  1.1836 -1.1361  2.1876
 7250TIP3    H243242   0.848   0.127  14.236  1.7903  2.9833  1.0970
 7251TIP3   OH243243   6.128   4.275  14.758 -0.3660  0.0193 -0.2282
 7251TIP3    H143244   6.033   4.270  14.755 -0.3740  0.5223 -1.0820
 7251TIP3    H243245   6.150   4.353  14.708  0.5343 -0.5372 -0.7336
 7252TIP3   OH243246   2.805   3.369   0.905  0.1120  0.1639  0.7863
 7252TIP3    H143247   2.788   3.282   0.868  0.3524 -0.4088  1.9691
 7252TIP3    H243248   2.778   3.430   0.836 -1.8245 -0.7991  0.6021
 7253TIP3   OH243249   2.405   3.588  16.105  0.1137  0.3471 -0.8270
 7253TIP3    H143250   2.370   3.659  16.052  2.9196  1.3414 -1.5030
 7253TIP3    H243251   2.463   3.540  16.047 -0.0634 -1.2175  0.2149
 7254TIP3   OH243252   4.499   5.303  16.632 -0.1446 -0.2433  0.0192
 7254TIP3    H143253   4.520   5.221  16.679 -3.2865 -1.2244 -0.0566
 7254TIP3    H243254   4.442   5.351  16.693 -1.5666  0.0035 -1.4373
 7255TIP3   OH243255   4.679   4.619  15.830 -0.1750 -0.5477 -0.0880
 7255TIP3    H143256   4.704   4.677  15.902  0.2489  0.2602 -0.8807
 7255TIP3    H243257   4.583   4.614  15.837 -0.2013  0.0874  0.1094
 7256TIP3   OH243258   5.775   1.354  12.070  0.5852 -0.4547  0.0462
 7256TIP3    H143259   5.846   1.415  12.052  0.8969 -0.4467  1.2144
 7256TIP3    H243260   5.696   1.408  12.071  0.8119 -0.1247  0.6767
 7257TIP3   OH243261   4.374   6.770  16.620 -0.1617  0.1600  0.1079
 7257TIP3    H143262   4.363   6.695  16.562 -0.7465 -1.5154  2.2279
 7257TIP3    H243263   4.289   6.780  16.663  0.4544  0.8130  1.2493
 7258TIP3   OH243264   5.455   5.608  12.067  0.3278 -0.0117 -0.3866
 7258TIP3    H143265   5.367   5.643  12.083  0.7683  0.7869  0.3607
 7258TIP3    H243266   5.446   5.554  11.988 -1.3244 -1.7248  0.8776
 7259TIP3   OH243267   5.494   0.992  11.723 -0.4069  0.2019 -0.1342
 7259TIP3    H143268   5.553   1.049  11.673  0.1546 -0.1980  0.0518
 7259TIP3    H243269   5.461   0.929  11.659  1.5056 -1.2764  0.2159
 7260TIP3   OH243270   0.830   6.499   6.495 -0.0686 -0.1821 -0.5046
 7260TIP3    H143271   0.919   6.524   6.516 -1.0624  0.7060  3.4024
 7260TIP3    H243272   0.777   6.576   6.516 -2.2060 -2.2300  2.4413
 7261TIP3   OH243273   6.057   5.619  14.806  0.7726 -0.0469  0.4723
 7261TIP3    H143274   5.978   5.630  14.753  0.2236 -0.0507  1.2661
 7261TIP3    H243275   6.076   5.707  14.840 -1.9200 -0.7401  4.4406
 7262TIP3   OH243276   6.074   5.085  14.379 -0.0074 -0.2531  0.3223
 7262TIP3    H143277   6.144   5.101  14.315 -0.6245 -0.6567 -0.4744
 7262TIP3    H243278   6.114   5.106  14.463  0.3204  1.9766 -0.3069
 7263TIP3   OH243279   0.451   3.739  16.214 -0.6347  0.5259  0.2014
 7263TIP3    H143280   0.497   3.691  16.283 -1.5186 -0.6124  0.0354
 7263TIP3    H243281   0.448   3.678  16.140 -0.4043  1.4345 -0.5611
 7264TIP3   OH243282   1.097   1.849  16.819  0.2737  0.1577 -0.0351
 7264TIP3    H143283   1.177   1.893  16.848  0.6978  0.2603 -1.3130
 7264TIP3    H243284   1.124   1.798  16.743 -0.9191  0.3471 -0.6085
 7265TIP3   OH243285   6.620   6.648   5.652 -0.1010  0.1390 -0.2146
 7265TIP3    H143286   6.606   6.604   5.736  0.2149  0.3497 -0.0538
 7265TIP3    H243287   6.535   6.643   5.608 -0.4341  0.5708  0.3708
 7266TIP3   OH243288   4.742   3.123  12.711 -0.1185 -0.1596 -0.6863
 7266TIP3    H143289   4.692   3.194  12.672 -0.0562 -0.4269 -1.2659
 7266TIP3    H243290   4.830   3.159  12.722 -0.4840  0.4116  0.6120
 7267TIP3   OH243291   5.714   4.316   5.372  0.0905 -0.3170 -0.1280
 7267TIP3    H143292   5.808   4.330   5.386  0.3504 -1.0932 -0.9700
 7267TIP3    H243293   5.710   4.252   5.301 -1.0952  0.0993 -0.4568
 7268TIP3   OH243294   5.654   5.579  10.545 -0.0399 -0.0353  0.4278
 7268TIP3    H143295   5.578   5.532  10.512  1.8816 -1.5037 -2.3178
 7268TIP3    H243296   5.717   5.511  10.569  2.2444  0.9613 -2.1798
 7269TIP3   OH243297   1.226   4.359  12.478 -0.3725  0.7029 -0.1552
 7269TIP3    H143298   1.132   4.366  12.494 -0.2675  1.0510  0.3089
 7269TIP3    H243299   1.267   4.400  12.554  0.1756 -0.2426  0.0784
 7270TIP3   OH243300   1.425   0.421   1.817  0.2306  0.4332  0.2021
 7270TIP3    H143301   1.506   0.385   1.852  0.3568  1.4016  0.9378
 7270TIP3    H243302   1.384   0.348   1.771  1.4580 -0.0956 -0.0758
 7271TIP3   OH243303   5.861   5.767  16.457 -0.0877 -0.4977  0.2105
 7271TIP3    H143304   5.791   5.818  16.415  1.6298  0.9860 -0.9791
 7271TIP3    H243305   5.862   5.684  16.409 -3.4084 -2.1732  2.6403
 7272TIP3   OH243306   1.445   5.480  13.883 -0.1739  0.2128 -0.3248
 7272TIP3    H143307   1.420   5.400  13.837  0.2057  0.2691 -0.6287
 7272TIP3    H243308   1.540   5.472  13.895 -0.4193 -0.4080  1.5652
 7273TIP3   OH243309   1.348   4.538  14.836  0.2913 -0.6529  0.0962
 7273TIP3    H143310   1.350   4.450  14.798 -0.3130 -0.4904 -0.3186
 7273TIP3    H243311   1.350   4.524  14.930 -1.3131 -1.1678  0.0717
 7274TIP3   OH243312   5.624   4.210   1.322  0.5210  0.1606 -0.1849
 7274TIP3    H143313   5.566   4.285   1.334  2.0336  1.0719  2.1622
 7274TIP3    H243314   5.577   4.153   1.260 -2.8482  0.8544  1.4610
 7275TIP3   OH243315   4.826   3.822  11.616 -0.0101  0.1695 -0.3444
 7275TIP3    H143316   4.848   3.779  11.533  1.2778  0.9671 -0.4521
 7275TIP3    H243317   4.910   3.832  11.660 -0.5049  1.0177  0.4314
 7276TIP3   OH243318   3.095   2.764   3.779 -0.1569  0.5277 -0.0568
 7276TIP3    H143319   3.166   2.723   3.828 -0.4719 -0.6460 -0.5481
 7276TIP3    H243320   3.138   2.834   3.730  0.6066  0.0735 -0.0561
 7277TIP3   OH243321   2.305   1.841  15.865 -0.0247 -0.0536 -0.1298
 7277TIP3    H143322   2.245   1.908  15.897  0.0783  0.3954 -0.8574
 7277TIP3    H243323   2.380   1.889  15.831  0.1938 -0.5536 -0.3694
 7278TIP3   OH243324   2.817   6.137  14.933  0.4241 -0.3931 -0.1376
 7278TIP3    H143325   2.844   6.178  15.015  0.1645 -0.4733 -0.0101
 7278TIP3    H243326   2.878   6.171  14.868 -0.4659  1.0935 -0.2494
 7279TIP3   OH243327   2.878   3.596   3.697 -0.2669 -0.1359 -0.6897
 7279TIP3    H143328   2.964   3.638   3.687  0.6744 -1.4799  1.1798
 7279TIP3    H243329   2.887   3.513   3.650  0.9590 -2.1381  2.7355
 7280TIP3   OH243330   0.250   6.097  14.853 -0.0393 -0.0679  0.1643
 7280TIP3    H143331   0.312   6.135  14.790 -1.5764  1.1609 -0.6891
 7280TIP3    H243332   0.267   6.145  14.934  0.3276  0.0586  0.0148
 7281TIP3   OH243333   6.171   2.446   1.684 -0.0691 -0.4109  0.1461
 7281TIP3    H143334   6.227   2.518   1.713 -0.4458  0.1489 -0.5073
 7281TIP3    H243335   6.158   2.393   1.763  1.2284 -0.4536  0.3447
 7282TIP3   OH243336   2.502   2.997   4.436 -0.5886  0.6146  0.3017
 7282TIP3    H143337   2.459   2.914   4.459  0.9495 -0.6098 -1.0006
 7282TIP3    H243338   2.437   3.044   4.384 -1.2084 -0.1451  0.3653
 7283TIP3   OH243339   6.558   6.203  10.196 -0.7211  0.1632  0.0530
 7283TIP3    H143340   6.572   6.110  10.215  0.5585  0.1211 -0.9413
 7283TIP3    H243341   6.637   6.246  10.227 -0.4796  0.6538 -1.1629
 7284TIP3   OH243342   0.248   2.916  10.743 -0.1148 -0.6833 -0.1664
 7284TIP3    H143343   0.220   2.979  10.677  1.4597  1.4843  1.0968
 7284TIP3    H243344   0.210   2.949  10.825  1.7993 -0.5805  0.7360
 7285TIP3   OH243345   6.552   1.165   6.148 -0.4098  0.3773  0.0324
 7285TIP3    H143346   6.507   1.248   6.134  1.3624  1.4790  0.4366
 7285TIP3    H243347   6.634   1.190   6.191 -0.1750 -1.6702  0.9032
 7286TIP3   OH243348   2.034   0.849   4.292 -0.0935  0.2511 -0.1440
 7286TIP3    H143349   2.120   0.893   4.297 -0.2374  0.3784  1.6892
 7286TIP3    H243350   2.005   0.865   4.202  1.6460  0.5008 -0.7033
 7287TIP3   OH243351   4.706   1.724  15.621 -0.0750  0.1419  0.4781
 7287TIP3    H143352   4.760   1.750  15.547  1.2591 -1.5020  0.8002
 7287TIP3    H243353   4.706   1.628  15.619 -1.4588  0.0702  1.5967
 7288TIP3   OH243354   2.412   5.010  16.389  0.5496 -0.0076  0.3133
 7288TIP3    H143355   2.371   4.981  16.471 -0.4265 -0.7248 -0.4053
 7288TIP3    H243356   2.385   5.102  16.380  0.1258 -0.1159  0.4671
 7289TIP3   OH243357   6.108   3.566   1.429  0.5671  0.2855  0.6648
 7289TIP3    H143358   6.039   3.523   1.480  0.2840 -2.4792 -1.8088
 7289TIP3    H243359   6.062   3.631   1.375 -0.4665 -2.2846 -1.7760
 7290TIP3   OH243360   2.958   4.492   1.543  0.0479 -0.1259  0.4698
 7290TIP3    H143361   3.033   4.544   1.514 -0.0593  0.3037  0.9300
 7290TIP3    H243362   2.992   4.440   1.616 -0.2262  0.5012  1.0650
 7291TIP3   OH243363   2.062   3.547   0.563  0.5940  0.4880 -0.0415
 7291TIP3    H143364   2.095   3.615   0.505 -0.9412  1.8735  0.6389
 7291TIP3    H243365   2.045   3.591   0.646 -3.6333  0.2229 -0.5211
 7292TIP3   OH243366   3.491   5.466   0.828  0.4122 -0.8886 -0.1435
 7292TIP3    H143367   3.564   5.447   0.768 -0.4744 -2.2472 -0.8681
 7292TIP3    H243368   3.413   5.446   0.776 -0.3934 -1.9415  1.4095
 7293TIP3   OH243369   1.777   4.009  12.175 -0.0050  0.3706  0.6197
 7293TIP3    H143370   1.726   3.979  12.099 -0.6311 -0.6981  1.4433
 7293TIP3    H243371   1.828   4.083  12.141 -0.3446 -0.0185 -0.8207
 7294TIP3   OH243372   3.035   2.977   2.236  0.1238 -0.2692  0.2245
 7294TIP3    H143373   3.053   2.988   2.330  2.8147 -1.0443 -0.1074
 7294TIP3    H243374   3.000   2.888   2.229  0.0162 -0.2510  0.4949
 7295TIP3   OH243375   1.120   0.599   3.004 -0.2519 -0.5780  0.2219
 7295TIP3    H143376   1.121   0.517   2.955 -1.0638 -0.2820 -0.3140
 7295TIP3    H243377   1.142   0.574   3.093  0.1445 -1.2855 -0.0630
 7296TIP3   OH243378   2.242   3.237   1.296  0.7232  0.1271  0.1553
 7296TIP3    H143379   2.297   3.314   1.288 -1.1871  1.7514  1.5026
 7296TIP3    H243380   2.224   3.210   1.206  2.4387  0.4523 -0.3144
 7297TIP3   OH243381   1.612   2.968  11.453 -0.1990  0.7358  0.1221
 7297TIP3    H143382   1.532   2.996  11.407 -0.9711  2.2530  2.2161
 7297TIP3    H243383   1.683   3.009  11.403 -0.7734  0.2987 -1.1131
 7298TIP3   OH243384   2.606   0.797  13.137  0.6588  0.1965 -1.0124
 7298TIP3    H143385   2.685   0.743  13.147  1.0359  0.8236 -0.5583
 7298TIP3    H243386   2.630   0.861  13.070  0.6701  0.6213 -0.6074
 7299TIP3   OH243387   1.522   0.295  11.794  0.4997 -0.6176 -0.1657
 7299TIP3    H143388   1.545   0.270  11.884  0.2769  1.6163  0.5898
 7299TIP3    H243389   1.606   0.310  11.751  0.5962 -0.1950  0.1608
 7300TIP3   OH243390   0.490   3.441  14.647  0.4193 -0.0734  0.2508
 7300TIP3    H143391   0.488   3.354  14.686  1.0116  0.0996  0.6849
 7300TIP3    H243392   0.399   3.463  14.631  0.3258 -1.3601 -1.1897
 7301TIP3   OH243393   2.825   6.416   4.452  0.3033 -0.4065  0.0549
 7301TIP3    H143394   2.881   6.342   4.476 -1.0536 -0.9261  1.8522
 7301TIP3    H243395   2.833   6.476   4.526 -0.0077  0.4168 -0.5654
 7302TIP3   OH243396   2.061   0.793   4.031 -0.5583  0.3807 -0.7267
 7302TIP3    H143397   2.097   0.853   3.966 -0.7127  0.9047 -0.3317
 7302TIP3    H243398   2.037   0.715   3.981 -2.0273  1.3219 -1.5390
 7303TIP3   OH243399   5.672   1.851   0.217 -0.1968  0.1562 -0.6729
 7303TIP3    H143400   5.726   1.870   0.140 -0.6809  1.7409 -0.6471
 7303TIP3    H243401   5.689   1.924   0.276 -1.1447 -0.1665  0.0090
 7304TIP3   OH243402   3.882   4.437  15.969  0.1934  0.8252 -0.2265
 7304TIP3    H143403   3.807   4.471  15.920 -1.4458 -0.2489  1.4200
 7304TIP3    H243404   3.881   4.486  16.051 -0.3490 -1.0084  0.9041
 7305TIP3   OH243405   4.235   1.175  12.369 -0.3952  0.3148  0.5560
 7305TIP3    H143406   4.186   1.140  12.294  0.7841 -0.7341  0.2263
 7305TIP3    H243407   4.168   1.204  12.430 -1.4024  0.2933 -0.4996
 7306TIP3   OH243408   0.534   4.943  15.566  0.1448 -0.0032 -0.0338
 7306TIP3    H143409   0.457   4.996  15.548 -0.7325 -1.0906  0.3972
 7306TIP3    H243410   0.583   4.993  15.632  0.9624  1.7212 -1.8470
 7307TIP3   OH243411   4.354   3.628  11.843 -0.2986 -0.4806 -0.0333
 7307TIP3    H143412   4.273   3.639  11.793 -0.3761  0.1758  0.2345
 7307TIP3    H243413   4.375   3.535  11.834 -0.2324 -0.3490 -1.4120
 7308TIP3   OH243414   1.345   2.043  16.931 -0.4629 -0.4130  0.6682
 7308TIP3    H143415   1.392   2.126  16.919 -1.0729 -0.3290 -1.5865
 7308TIP3    H243416   1.403   1.991  16.986  0.6382  0.9631  0.8738
 7309TIP3   OH243417   2.929   2.891   1.507 -0.7052 -0.5583  0.0114
 7309TIP3    H143418   2.869   2.928   1.571  0.1132  0.0638  0.4273
 7309TIP3    H243419   2.923   2.949   1.431 -1.7620 -1.3596 -0.5552
 7310TIP3   OH243420   3.981   5.471  14.744  0.0187  0.3921  0.2447
 7310TIP3    H143421   3.963   5.564  14.758 -0.0700  0.1235  2.1174
 7310TIP3    H243422   4.021   5.441  14.826  1.5822 -0.8626 -0.9120
 7311TIP3   OH243423   3.478   0.572   1.134  0.1089 -0.2511  0.1155
 7311TIP3    H143424   3.573   0.557   1.129  0.2180  0.7607 -1.5059
 7311TIP3    H243425   3.469   0.667   1.132 -1.0067 -0.3143 -2.6599
 7312TIP3   OH243426   0.410   5.560  16.799 -0.2871 -0.1139  0.3820
 7312TIP3    H143427   0.320   5.590  16.813 -0.7696 -1.6634  0.7564
 7312TIP3    H243428   0.445   5.548  16.887  0.5224  1.0731  0.2451
 7313TIP3   OH243429   5.233   6.752   4.013  0.5374 -0.6799 -0.2101
 7313TIP3    H143430   5.197   6.664   4.001  1.1174 -0.9055 -0.3605
 7313TIP3    H243431   5.313   6.752   3.959  0.3001  0.0906 -0.5716
 7314TIP3   OH243432   2.304   5.058  15.268  0.6211 -0.6494  0.3350
 7314TIP3    H143433   2.294   5.135  15.212 -0.4148 -1.0011  0.0292
 7314TIP3    H243434   2.353   5.090  15.344  0.1695  0.3233  0.2257
 7315TIP3   OH243435   5.367   6.662   1.709  0.0012 -0.3139 -0.0129
 7315TIP3    H143436   5.344   6.744   1.753 -1.0339 -0.2994 -0.5389
 7315TIP3    H243437   5.313   6.595   1.752  1.7870 -0.9897  1.3099
 7316TIP3   OH243438   2.397   5.888  16.345  0.6826 -0.0709  0.5839
 7316TIP3    H143439   2.329   5.912  16.409  0.1913  2.1933 -0.6636
 7316TIP3    H243440   2.477   5.930  16.378  0.3736  1.3192 -0.3337
 7317TIP3   OH243441   0.581   1.679   5.212  0.3456 -0.1899  0.1170
 7317TIP3    H143442   0.485   1.685   5.211  0.3534 -0.0511 -0.7074
 7317TIP3    H243443   0.609   1.729   5.135  1.0422 -0.7837 -0.0271
 7318TIP3   OH243444   5.262   2.010   3.690  0.0925  0.4512 -0.1946
 7318TIP3    H143445   5.182   1.963   3.667  1.0515 -0.2490 -2.3489
 7318TIP3    H243446   5.277   1.988   3.782 -0.7285 -1.6241 -0.5018
 7319TIP3   OH243447   3.111   1.129   5.547  0.5506 -0.2252  0.2060
 7319TIP3    H143448   3.034   1.171   5.584  1.6323 -1.1409  3.8623
 7319TIP3    H243449   3.144   1.193   5.483 -1.6203  1.3963  0.5937
 7320TIP3   OH243450   6.083   5.604   5.157  0.8436 -0.2679 -0.0032
 7320TIP3    H143451   6.124   5.519   5.171  0.5306 -0.3517  0.4417
 7320TIP3    H243452   6.136   5.665   5.208  0.1622 -0.4497  0.9609
 7321TIP3   OH243453   6.110   1.879  11.449 -0.1570  0.0189  0.5120
 7321TIP3    H143454   6.203   1.876  11.427 -0.2661 -0.8533  0.1313
 7321TIP3    H243455   6.092   1.794  11.490 -0.6573  0.4143  1.1339
 7322TIP3   OH243456   5.733   4.092   1.893  0.1884 -0.1023  0.7860
 7322TIP3    H143457   5.702   4.143   1.967 -0.2419 -3.0877  2.8481
 7322TIP3    H243458   5.805   4.144   1.856 -0.6150  2.2184  2.2661
 7323TIP3   OH243459   2.984   5.410  12.861 -0.2136 -0.0936  0.6672
 7323TIP3    H143460   2.994   5.487  12.917 -2.8667  0.3239  0.6961
 7323TIP3    H243461   3.074   5.384  12.840  0.8173  1.4538  2.7411
 7324TIP3   OH243462   5.481   3.221  15.699 -0.0206  0.1837 -0.1982
 7324TIP3    H143463   5.425   3.188  15.769  2.3461 -0.6222  1.4799
 7324TIP3    H243464   5.550   3.155  15.691  0.2804  0.7000 -2.7366
 7325TIP3   OH243465   1.080   6.742  15.107 -0.4338 -0.2514  0.3534
 7325TIP3    H143466   1.015   6.777  15.047  1.3063  0.7084 -1.0279
 7325TIP3    H243467   1.155   6.719  15.052  0.4496 -1.2885  1.9032
 7326TIP3   OH243468   2.043   5.459  12.322  0.0516 -0.6332 -0.8300
 7326TIP3    H143469   1.974   5.523  12.308  0.9950  0.2451 -1.7113
 7326TIP3    H243470   2.093   5.493  12.396  0.3706 -0.5053 -1.1013
 7327TIP3   OH243471   1.678   6.485  17.190  0.4154  0.0768  0.3658
 7327TIP3    H143472   1.747   6.538  17.150  1.0175 -0.5561  0.5481
 7327TIP3    H243473   1.613   6.474  17.121  0.7348  0.2541  0.0345
 7328TIP3   OH243474   0.126   5.270  11.607  0.1891 -0.5091  0.2699
 7328TIP3    H143475   0.048   5.260  11.552  0.7094  1.3881 -0.9141
 7328TIP3    H243476   0.096   5.248  11.695 -1.0785 -2.0434 -0.4938
 7329TIP3   OH243477   0.898   6.016   5.218  0.2741 -0.1450  0.1248
 7329TIP3    H143478   0.814   5.972   5.204  0.5272 -0.6989  0.3630
 7329TIP3    H243479   0.947   5.959   5.277  1.2431 -0.3410 -0.8481
 7330TIP3   OH243480   6.503   2.750   2.822 -0.0242 -0.4010 -0.7485
 7330TIP3    H143481   6.448   2.828   2.833  1.2319  0.5664 -1.1492
 7330TIP3    H243482   6.463   2.685   2.880 -0.1431  1.0531  0.9067
 7331TIP3   OH243483   3.732   2.909  13.953  0.2204 -0.2239 -0.4931
 7331TIP3    H143484   3.790   2.979  13.982 -0.3964  0.6188 -1.2225
 7331TIP3    H243485   3.660   2.910  14.017  0.4762 -0.5622 -0.1954
 7332TIP3   OH243486   0.702   4.422   2.537  0.0529 -0.1924 -0.4342
 7332TIP3    H143487   0.758   4.379   2.603  0.4007  1.8367  0.6692
 7332TIP3    H243488   0.614   4.389   2.556  0.3145 -0.4784  0.3527
 7333TIP3   OH243489   3.469   6.342  14.106  0.0182 -0.4370 -0.3828
 7333TIP3    H143490   3.550   6.370  14.064  0.6680  0.5089  1.4084
 7333TIP3    H243491   3.448   6.258  14.064  0.8741  0.1928 -2.1933
 7334TIP3   OH243492   4.809   4.563   1.136 -0.1886  0.2924  0.2100
 7334TIP3    H143493   4.788   4.488   1.081 -1.0394  1.6869 -1.4757
 7334TIP3    H243494   4.878   4.610   1.088  0.1119  0.7558  1.0752
 7335TIP3   OH243495   3.723   5.704   1.293  0.4285  0.5629  0.5037
 7335TIP3    H143496   3.711   5.717   1.387 -0.3981  1.1149  0.3308
 7335TIP3    H243497   3.651   5.646   1.267 -0.2480  1.6254 -0.0530
 7336TIP3   OH243498   1.970   3.501  11.686 -0.3777 -0.5330  0.0113
 7336TIP3    H143499   2.008   3.423  11.646  1.0879 -0.1162  0.5558
 7336TIP3    H243500   1.933   3.550  11.613  0.6138 -0.6845 -0.5979
 7337TIP3   OH243501   6.176   3.779  12.558 -0.5657  0.1981  0.3983
 7337TIP3    H143502   6.196   3.756  12.467 -1.3117 -1.1840  0.5650
 7337TIP3    H243503   6.081   3.785  12.561 -1.0169 -4.0380  1.9499
 7338TIP3   OH243504   3.429   4.589  16.788 -0.2572 -0.0728  0.4190
 7338TIP3    H143505   3.411   4.514  16.845 -0.2814  0.2431  0.8347
 7338TIP3    H243506   3.446   4.661  16.849 -1.8643  0.6655  0.0557
 7339TIP3   OH243507   3.979   5.882  12.470  0.1424  0.4909 -0.3628
 7339TIP3    H143508   4.007   5.798  12.434 -1.2330  0.7297 -2.1427
 7339TIP3    H243509   4.059   5.934  12.474  1.0461 -0.9362  0.9439
 7340TIP3   OH243510   4.405   5.899   4.795 -0.4605 -0.6121  0.6928
 7340TIP3    H143511   4.464   5.974   4.796 -0.5112 -0.5287 -0.5896
 7340TIP3    H243512   4.446   5.836   4.854 -0.9557  0.7853  2.6183
 7341TIP3   OH243513   0.030   1.298  16.983  0.2701  0.3741  0.0786
 7341TIP3    H143514   0.043   1.380  16.936  0.6576  0.4655  0.3436
 7341TIP3    H243515   0.016   1.233  16.915 -2.0900  0.9919 -0.1040
 7342TIP3   OH243516   0.641   4.520  12.100  0.1824 -0.3818  0.6711
 7342TIP3    H143517   0.585   4.531  12.177 -1.8376 -1.5269 -0.5423
 7342TIP3    H243518   0.619   4.433  12.066  1.1875 -0.0123 -1.0741
 7343TIP3   OH243519   0.352   0.142   5.416  0.1614  0.0173  0.6448
 7343TIP3    H143520   0.393   0.186   5.491  1.5887 -0.3978  0.1278
 7343TIP3    H243521   0.364   0.049   5.433 -0.4249 -0.1130  0.3834
 7344TIP3   OH243522   1.801   3.720   5.676  0.0114  0.1344 -0.4103
 7344TIP3    H143523   1.760   3.633   5.676 -0.5704  0.3857  0.6916
 7344TIP3    H243524   1.808   3.743   5.769  1.7503  0.5455 -0.6003
 7345TIP3   OH243525   4.653   6.035   0.250 -0.2101 -0.3025 -0.2810
 7345TIP3    H143526   4.658   6.107   0.188  0.2315  0.5412  0.6903
 7345TIP3    H243527   4.739   5.992   0.244  0.4391  0.7573  0.8370
 7346TIP3   OH243528   0.040   6.525   3.553 -0.5263  0.2468 -0.4207
 7346TIP3    H143529   0.099   6.571   3.613  1.1953  1.1651 -2.6919
 7346TIP3    H243530   0.087   6.446   3.528 -2.0964 -1.2066  0.8906
 7347TIP3   OH243531   2.127   3.064   2.627 -0.0709  0.2434 -0.4945
 7347TIP3    H143532   2.091   2.990   2.578 -0.7403  0.7650 -0.8083
 7347TIP3    H243533   2.221   3.046   2.632 -0.2913 -0.9295 -0.0385
 7348TIP3   OH243534   2.707   2.524  14.394  0.3924  0.0688  0.0373
 7348TIP3    H143535   2.723   2.618  14.391  1.5199 -0.1344 -1.0017
 7348TIP3    H243536   2.749   2.490  14.315 -1.0336 -1.1625 -0.2412
 7349TIP3   OH243537   5.438   5.787  11.434 -0.0743  0.3069 -0.0958
 7349TIP3    H143538   5.468   5.796  11.343 -0.3092  1.9245 -0.0411
 7349TIP3    H243539   5.408   5.875  11.458 -0.8970 -0.3135  1.2433
 7350TIP3   OH243540   4.431   1.664  14.692  0.3681 -0.2957 -0.2635
 7350TIP3    H143541   4.363   1.728  14.713  0.0011 -0.4698 -0.8844
 7350TIP3    H243542   4.509   1.716  14.676  0.8882 -0.1970  2.2836
 7351TIP3   OH243543   0.102   2.027  15.903  0.6109 -0.0713  0.1579
 7351TIP3    H143544   0.077   1.938  15.880 -0.7905 -0.6253  3.2960
 7351TIP3    H243545   0.020   2.077  15.899  0.3687 -0.0829  2.9099
 7352TIP3   OH243546   4.810   4.991   5.337  0.1125 -0.1324  0.2415
 7352TIP3    H143547   4.744   4.951   5.394 -1.5103  1.5627 -0.3405
 7352TIP3    H243548   4.856   5.053   5.394  1.1308 -1.1765  0.5992
 7353TIP3   OH243549   1.343   1.148  13.277 -0.1642 -0.4493  0.1019
 7353TIP3    H143550   1.303   1.173  13.194  0.5519  1.2477  0.2328
 7353TIP3    H243551   1.425   1.106  13.253 -0.3283 -0.6675 -0.0738
 7354TIP3   OH243552   2.466   3.425   1.271  0.1634 -0.0556  0.2841
 7354TIP3    H143553   2.416   3.506   1.262 -0.8631 -0.6163  0.7951
 7354TIP3    H243554   2.521   3.439   1.348  1.1669  0.7332 -0.5397
 7355TIP3   OH243555   5.895   5.428   4.260 -0.5579 -0.2874  0.2298
 7355TIP3    H143556   5.901   5.461   4.171 -0.9952  1.4566  0.8076
 7355TIP3    H243557   5.963   5.475   4.308 -0.3012 -1.2269  0.8354
 7356TIP3   OH243558   0.822   3.392   3.052  0.4981 -0.4072 -0.1786
 7356TIP3    H143559   0.763   3.437   2.991  0.9704  0.4885 -0.0034
 7356TIP3    H243560   0.830   3.304   3.017 -2.5714 -1.2517  0.9133
 7357TIP3   OH243561   3.234   1.111  14.804 -0.4805 -0.2539  0.2545
 7357TIP3    H143562   3.328   1.113  14.821 -0.6597  2.9656  1.5255
 7357TIP3    H243563   3.194   1.114  14.891 -1.7105  0.6625 -0.3142
 7358TIP3   OH243564   0.793   4.253   1.615 -0.5480  0.9244 -0.6831
 7358TIP3    H143565   0.870   4.290   1.659  0.3961  0.1698 -1.6596
 7358TIP3    H243566   0.734   4.328   1.604 -0.4224  1.3206  0.9898
 7359TIP3   OH243567   1.938   3.888  10.991 -0.1297 -0.7681 -0.3302
 7359TIP3    H143568   2.016   3.840  10.963 -1.4318 -2.0914 -1.8919
 7359TIP3    H243569   1.929   3.959  10.928  1.6782  1.5718  1.8584
 7360TIP3   OH243570   0.876   2.456   6.689  0.1394  0.6315 -0.1467
 7360TIP3    H143571   0.969   2.472   6.677  0.0802  1.4601  0.3866
 7360TIP3    H243572   0.841   2.540   6.719 -0.4046 -0.2136  1.7545
 7361TIP3   OH243573   0.685   4.808   5.195  0.0443  0.3346 -0.4996
 7361TIP3    H143574   0.703   4.892   5.154  1.1262 -0.0803 -0.9207
 7361TIP3    H243575   0.599   4.819   5.236  0.7979  2.1201  0.7378
 7362TIP3   OH243576   4.333   1.940   3.885  0.4778  0.0789 -0.4383
 7362TIP3    H143577   4.365   1.872   3.825  1.7466  0.8982 -0.7301
 7362TIP3    H243578   4.382   2.018   3.860  0.1452  0.7319  0.8868
 7363TIP3   OH243579   3.714   6.021  11.693  0.3506  0.1038 -0.3674
 7363TIP3    H143580   3.636   6.072  11.671 -0.7989 -0.8564  1.2500
 7363TIP3    H243581   3.768   6.082  11.743 -0.3916  0.1653  0.3927
 7364TIP3   OH243582   5.526   1.606  10.621 -0.2371  0.4416 -0.0209
 7364TIP3    H143583   5.565   1.584  10.536  0.6970  0.9241  0.2769
 7364TIP3    H243584   5.436   1.631  10.600  0.1846  1.2310 -0.9575
 7365TIP3   OH243585   5.163   4.106  15.095  0.2468 -0.4149 -0.6390
 7365TIP3    H143586   5.167   4.025  15.147 -0.7362 -1.2534 -1.7983
 7365TIP3    H243587   5.189   4.175  15.155  1.0983 -1.5956  0.3951
 7366TIP3   OH243588   4.436   2.157   2.867 -0.2622 -0.3293  0.1513
 7366TIP3    H143589   4.498   2.108   2.812 -0.1639  1.2830 -1.2833
 7366TIP3    H243590   4.489   2.228   2.904 -1.2355  1.2037 -1.2738
 7367TIP3   OH243591   5.210   0.007   1.212  0.1614  0.0252  0.2761
 7367TIP3    H143592   5.207  -0.053   1.286 -1.3257  1.4295  1.4184
 7367TIP3    H243593   5.231   0.092   1.251  0.3334  0.6144 -1.0430
 7368TIP3   OH243594   4.680   4.577   0.862  0.2873  0.4054  0.7548
 7368TIP3    H143595   4.698   4.669   0.840 -0.1281  0.7323  1.7628
 7368TIP3    H243596   4.585   4.568   0.853  0.4893 -0.4386 -1.1810
 7369TIP3   OH243597   6.374   6.055  13.998  0.5010 -0.2774  0.7057
 7369TIP3    H143598   6.348   5.965  14.014 -1.0576  0.1716  0.8283
 7369TIP3    H243599   6.398   6.057  13.905  0.2543 -0.7562  0.6316
 7370TIP3   OH243600   4.025   0.852   0.640  0.4099 -0.1075 -0.5212
 7370TIP3    H143601   4.071   0.771   0.663  0.4371 -0.3936 -1.5347
 7370TIP3    H243602   3.960   0.825   0.574  1.4087  0.9225 -1.9823
 7371TIP3   OH243603   1.404   2.396  11.072  0.6391 -0.1484  0.0623
 7371TIP3    H143604   1.428   2.468  11.131  1.0077  0.8183 -1.2213
 7371TIP3    H243605   1.316   2.370  11.101  0.7256  0.4371  0.9027
 7372TIP3   OH243606   0.038   0.500  11.500 -0.5928 -0.4170 -0.0588
 7372TIP3    H143607  -0.018   0.572  11.472  0.9153  0.1639 -1.7572
 7372TIP3    H243608   0.099   0.540  11.562  1.1621  0.1858 -2.0695
 7373TIP3   OH243609   6.000   1.478   3.024  0.5436 -0.6109  0.1711
 7373TIP3    H143610   6.013   1.482   3.119  1.5171  0.8339  0.0128
 7373TIP3    H243611   6.080   1.516   2.988 -0.8207  1.1811 -1.1405
 7374TIP3   OH243612   0.633   5.850   2.450  0.2894 -0.1710 -0.1579
 7374TIP3    H143613   0.694   5.872   2.520 -1.1404  1.8588  0.5427
 7374TIP3    H243614   0.662   5.903   2.376 -1.0401  1.4371  0.4267
 7375TIP3   OH243615   0.748   6.043  16.357 -0.3572 -0.0014  0.0728
 7375TIP3    H143616   0.802   6.109  16.402 -1.2759  1.2531 -0.5905
 7375TIP3    H243617   0.668   6.039  16.409 -0.3619 -0.4892  0.0252
 7376TIP3   OH243618   5.840   4.683  15.131 -0.4626 -0.5352  0.2370
 7376TIP3    H143619   5.781   4.615  15.163  1.4834 -1.7387  1.4844
 7376TIP3    H243620   5.920   4.636  15.108 -0.1797  0.9280 -2.1001
 7377TIP3   OH243621   3.767   3.943   3.480 -0.2811 -0.1164 -0.2578
 7377TIP3    H143622   3.836   3.909   3.424  0.7448 -0.0992  0.9458
 7377TIP3    H243623   3.786   3.906   3.566 -2.5530 -1.2040 -0.1462
 7378TIP3   OH243624   3.259   6.456   2.709  0.2229  0.0840  0.2282
 7378TIP3    H143625   3.344   6.475   2.669  0.6896 -0.2898  1.0015
 7378TIP3    H243626   3.274   6.469   2.803  0.0942 -2.1887  0.6216
 7379TIP3   OH243627   0.546   3.254  16.927 -0.1864 -0.0660 -0.1801
 7379TIP3    H143628   0.492   3.320  16.970  1.7226  2.6505 -1.6440
 7379TIP3    H243629   0.636   3.287  16.936  0.4654  0.1976 -5.0666
 7380TIP3   OH243630   1.848   2.304  13.565 -0.5112 -0.1179 -0.1697
 7380TIP3    H143631   1.911   2.232  13.566 -0.0945  0.2341 -0.4343
 7380TIP3    H243632   1.834   2.321  13.472  0.1715  0.8029 -0.1170
 7381TIP3   OH243633   2.704   3.308   2.962  0.0809 -0.0481 -0.2156
 7381TIP3    H143634   2.688   3.399   2.988 -0.8718 -0.3150  0.1742
 7381TIP3    H243635   2.651   3.256   3.022  2.5776 -1.0498  1.2372
 7382TIP3   OH243636   5.252   3.505   1.742 -0.0802 -0.4603 -0.0682
 7382TIP3    H143637   5.260   3.580   1.684  2.5192 -1.8898 -1.7312
 7382TIP3    H243638   5.342   3.478   1.760 -0.9005 -3.0205  0.6446
 7383TIP3   OH243639   6.762   2.388   0.666  0.0961 -0.1031  0.4385
 7383TIP3    H143640   6.675   2.415   0.635  1.1066  1.4262 -1.2190
 7383TIP3    H243641   6.796   2.332   0.596  1.8440  2.2360 -0.6930
 7384TIP3   OH243642   0.512   4.380   0.181  0.2652 -0.2371  0.2373
 7384TIP3    H143643   0.530   4.413   0.269 -0.1463  0.6329  0.0126
 7384TIP3    H243644   0.517   4.285   0.189  0.9325 -0.1457  1.0404
 7385TIP3   OH243645   0.683   6.360   4.246 -0.3186  0.3080 -0.1207
 7385TIP3    H143646   0.621   6.294   4.217 -0.2150  0.1306  0.0603
 7385TIP3    H243647   0.641   6.400   4.322 -0.0039 -0.1376  0.2916
 7386TIP3   OH243648   5.916   3.842  14.888  0.4210  0.4047  0.2875
 7386TIP3    H143649   5.851   3.892  14.937  0.6383  1.7702 -0.7631
 7386TIP3    H243650   5.960   3.789  14.954 -1.2801 -0.0423  1.1225
 7387TIP3   OH243651   1.147   3.047   3.528 -0.5073 -0.3062  0.0106
 7387TIP3    H143652   1.173   2.974   3.472  2.6024 -0.4095  1.4128
 7387TIP3    H243653   1.055   3.063   3.505 -0.8677 -3.6272 -1.4337
 7388TIP3   OH243654   1.977   4.668  15.188 -0.0500  0.2848  0.1906
 7388TIP3    H143655   1.970   4.575  15.209  0.1014 -0.3206 -2.1145
 7388TIP3    H243656   1.906   4.710  15.236 -0.3775 -1.0772  0.9309
 7389TIP3   OH243657   4.386   5.816  16.826 -0.1919  0.1207  0.2507
 7389TIP3    H143658   4.480   5.825  16.808 -0.3125  2.4713  0.3833
 7389TIP3    H243659   4.380   5.829  16.921 -0.7166  1.0840  0.0989
 7390TIP3   OH243660   0.338   1.566   5.844 -0.2470 -0.4012 -0.4714
 7390TIP3    H143661   0.409   1.609   5.796 -0.2921  0.9354  0.5739
 7390TIP3    H243662   0.380   1.537   5.925 -0.4445 -1.4810 -0.7528
 7391TIP3   OH243663   4.128   5.775  16.714  0.3700 -0.1486  0.1931
 7391TIP3    H143664   4.219   5.784  16.743  0.0075  0.4213  1.1856
 7391TIP3    H243665   4.128   5.694  16.662  1.3950 -0.2727  0.3580
 7392TIP3   OH243666   1.063   1.889   2.647 -0.3787 -0.3123 -0.0119
 7392TIP3    H143667   1.157   1.882   2.628 -0.1440  0.5781  0.7479
 7392TIP3    H243668   1.023   1.818   2.597  0.5434  0.1029 -1.3893
 7393TIP3   OH243669   1.319   4.917  14.601  0.3088 -0.2702 -0.2620
 7393TIP3    H143670   1.339   4.876  14.685  0.5670 -0.5410 -0.4567
 7393TIP3    H243671   1.294   4.844  14.544 -0.3223 -0.0412 -0.2885
 7394TIP3   OH243672   2.759   5.021  17.135 -0.5223 -0.5928 -0.0212
 7394TIP3    H143673   2.827   4.955  17.119  0.0971  0.6064 -2.8473
 7394TIP3    H243674   2.746   5.063  17.051 -2.3191  1.6017  1.2452
 7395TIP3   OH243675   0.080   5.911   5.254 -0.1300 -0.0738 -0.0790
 7395TIP3    H143676   0.013   5.956   5.304 -0.8045 -0.7452 -0.3605
 7395TIP3    H243677   0.153   5.901   5.316  0.0825  1.4739 -0.0521
 7396TIP3   OH243678   0.254   5.941  16.407  0.2201  0.1468  0.2041
 7396TIP3    H143679   0.350   5.941  16.413  0.1730 -0.0107  1.2187
 7396TIP3    H243680   0.229   6.032  16.422  0.1316 -0.1535  2.1931
 7397TIP3   OH243681   2.810   5.426   5.753  0.4126  0.8191  0.7923
 7397TIP3    H143682   2.775   5.363   5.690 -1.1442 -0.0608  2.4357
 7397TIP3    H243683   2.898   5.445   5.722 -0.4848  0.8988 -1.9534
 7398TIP3   OH243684   3.589   5.768  16.160 -0.1759 -0.0661 -0.4907
 7398TIP3    H143685   3.587   5.834  16.090 -0.7438  1.2993  0.7668
 7398TIP3    H243686   3.555   5.814  16.237  0.3960 -1.5463  0.6797
 7399TIP3   OH243687   0.081   1.584  11.219 -0.3333  0.1436 -0.5226
 7399TIP3    H143688   0.041   1.498  11.234  0.3048 -0.1752 -0.6397
 7399TIP3    H243689   0.080   1.594  11.124  1.0088 -0.4329 -0.6247
 7400TIP3   OH243690   2.643   0.331  12.164 -0.8366  0.3815 -0.2056
 7400TIP3    H143691   2.552   0.317  12.190 -0.9509 -2.1762 -1.5924
 7400TIP3    H243692   2.639   0.400  12.099 -2.0246 -0.6157 -1.2507
 7401TIP3   OH243693   0.542   1.670  11.250 -0.0206 -0.3377  0.1255
 7401TIP3    H143694   0.480   1.609  11.289 -0.0555 -0.7191 -0.5104
 7401TIP3    H243695   0.542   1.648  11.157  0.7418 -0.0475  0.0497
 7402TIP3   OH243696   3.284   1.684  12.117 -0.3713 -0.3308  0.1772
 7402TIP3    H143697   3.191   1.702  12.104  0.1627  1.5523 -1.6974
 7402TIP3    H243698   3.304   1.616  12.052  0.0554  1.2048 -1.3670
 7403TIP3   OH243699   6.237   4.819   3.754 -0.2098 -0.3166 -0.3064
 7403TIP3    H143700   6.264   4.741   3.706  0.0857  0.4728 -1.4647
 7403TIP3    H243701   6.309   4.837   3.814  0.4106 -0.0658 -1.1175
 7404TIP3   OH243702   5.071   6.686  12.582 -0.5585  0.6133 -0.4876
 7404TIP3    H143703   5.119   6.764  12.557  0.7166 -0.2431 -0.8240
 7404TIP3    H243704   5.127   6.613  12.554 -0.2254 -0.4265  2.5085
 7405TIP3   OH243705   5.208   4.691  13.958 -0.5051  0.0862  0.0931
 7405TIP3    H143706   5.267   4.643  14.017  1.0623  1.6216 -0.1394
 7405TIP3    H243707   5.266   4.748  13.907 -2.0876  0.7184 -1.0919
 7406TIP3   OH243708   0.727   6.673   0.654 -0.1974 -0.2885 -0.3809
 7406TIP3    H143709   0.722   6.759   0.695 -0.0832 -1.0543  1.3540
 7406TIP3    H243710   0.700   6.612   0.723 -0.0647 -1.6658 -1.4922
 7407TIP3   OH243711   3.513   5.657  12.942 -0.9233 -0.0297  0.0974
 7407TIP3    H143712   3.507   5.578  12.996  2.2371  0.8272  1.9781
 7407TIP3    H243713   3.529   5.727  13.005  1.3296  1.2776 -1.7810
 7408TIP3   OH243714   6.238   0.694   5.559 -0.0101 -0.9160  0.5984
 7408TIP3    H143715   6.176   0.748   5.608  0.8086  0.2419  0.4064
 7408TIP3    H243716   6.277   0.636   5.624  1.3236  0.8419  1.4444
 7409TIP3   OH243717   4.440   3.318   2.628 -0.3791 -0.3353  0.1370
 7409TIP3    H143718   4.469   3.274   2.709 -1.6994 -0.4757  0.5513
 7409TIP3    H243719   4.509   3.382   2.610 -0.3754  0.1760  1.7604
 7410TIP3   OH243720   3.058   1.292  16.434  0.5161  0.0942  0.0469
 7410TIP3    H143721   3.134   1.250  16.393  2.0376  1.7248  1.0675
 7410TIP3    H243722   3.027   1.228  16.497  1.3646 -0.4039 -0.0216
 7411TIP3   OH243723   5.668   1.295  14.486 -0.2076 -0.2983 -0.1367
 7411TIP3    H143724   5.756   1.257  14.484  0.8472  1.9818 -0.1644
 7411TIP3    H243725   5.678   1.379  14.442 -1.7215  1.3529  2.4464
 7412TIP3   OH243726   0.754   4.954  16.046 -0.4639  0.4187 -0.5049
 7412TIP3    H143727   0.668   4.956  16.088 -0.4049 -0.1085 -0.3562
 7412TIP3    H243728   0.800   5.030  16.082 -0.4776  0.0764  0.2525
 7413TIP3   OH243729   3.163   4.122  12.307 -0.0389  0.7216 -0.1504
 7413TIP3    H143730   3.157   4.029  12.329 -3.0374  0.7532 -0.3205
 7413TIP3    H243731   3.181   4.124  12.213 -0.2717  0.2947 -0.2068
 7414TIP3   OH243732   5.288   6.765   4.512 -0.1480  0.4041  0.3360
 7414TIP3    H143733   5.255   6.676   4.515  1.2859 -0.1360  0.7477
 7414TIP3    H243734   5.343   6.768   4.434  0.4219  0.7059  0.7432
 7415TIP3   OH243735   5.109   1.822  12.399  0.2578  0.0117 -0.2233
 7415TIP3    H143736   5.065   1.879  12.463  0.5408 -0.7217  0.6525
 7415TIP3    H243737   5.170   1.771  12.451  0.4557 -0.6531 -1.0882
 7416TIP3   OH243738   4.172   5.414   5.103  0.5542  0.3754  0.1897
 7416TIP3    H143739   4.239   5.476   5.075 -0.5560  1.1562 -0.7966
 7416TIP3    H243740   4.129   5.457   5.177  0.0820  0.6028 -0.2096
 7417TIP3   OH243741   0.247   2.302   0.206  0.4661 -0.5374  0.1632
 7417TIP3    H143742   0.280   2.332   0.291  1.2828 -0.7632 -0.0646
 7417TIP3    H243743   0.152   2.299   0.217  0.4529  0.8129  0.6162
 7418TIP3   OH243744   1.370   0.039   5.414 -0.2387 -0.6339  0.1342
 7418TIP3    H143745   1.312   0.020   5.341  1.0825  0.1893 -1.1777
 7418TIP3    H243746   1.444  -0.020   5.401 -0.1957 -0.8080  1.0963
 7419TIP3   OH243747   2.409   1.226   2.472 -0.1914  0.2021 -0.5043
 7419TIP3    H143748   2.406   1.211   2.377  0.5885  2.8733 -1.0458
 7419TIP3    H243749   2.501   1.214   2.495 -0.0989  1.0218 -0.4108
 7420TIP3   OH243750   5.728   5.190  14.213  0.0421 -0.5816 -0.0157
 7420TIP3    H143751   5.749   5.097  14.226  0.1293 -0.6117 -0.3635
 7420TIP3    H243752   5.807   5.227  14.172  0.1942 -0.2460  0.5715
 7421TIP3   OH243753   1.569   2.657  13.894  0.3102 -0.2115  0.5025
 7421TIP3    H143754   1.492   2.650  13.837  0.6751  2.2746 -0.4301
 7421TIP3    H243755   1.533   2.663  13.982 -0.4057 -1.6917  0.3357
 7422TIP3   OH243756   5.022   3.652   0.123  0.7348  0.4480 -0.1420
 7422TIP3    H143757   5.018   3.606   0.207 -3.6475  1.1915  0.2902
 7422TIP3    H243758   5.097   3.711   0.131  1.9529 -1.2540  2.1945
 7423TIP3   OH243759   0.456   1.108   0.736  0.5973  0.4250  0.6322
 7423TIP3    H143760   0.381   1.052   0.755  0.4720 -0.7967 -2.7910
 7423TIP3    H243761   0.418   1.194   0.716  0.3871  0.5257  1.4272
 7424TIP3   OH243762   1.784   0.038  11.920  0.2847  0.6455  0.1377
 7424TIP3    H143763   1.699   0.044  11.877 -0.7739 -3.2865  1.2979
 7424TIP3    H243764   1.821  -0.044  11.889  1.9598  0.4220  2.4702
 7425TIP3   OH243765   2.924   2.446  12.689 -0.4832  0.1133 -0.1743
 7425TIP3    H143766   2.971   2.496  12.622  0.7135  0.1886  0.6932
 7425TIP3    H243767   2.942   2.492  12.771 -0.7722 -0.7621  0.3949
 7426TIP3   OH243768   6.190   5.192  15.444 -0.2738  0.2735  0.8577
 7426TIP3    H143769   6.109   5.144  15.463 -0.1408 -0.9041 -1.2400
 7426TIP3    H243770   6.189   5.205  15.349  1.0486  2.0466  1.0373
 7427TIP3   OH243771   4.349   0.462  11.405 -0.1527 -0.2730 -0.4045
 7427TIP3    H143772   4.340   0.429  11.495 -0.4367  1.0496  0.0750
 7427TIP3    H243773   4.379   0.386  11.355 -0.1033 -1.0714  0.7813
 7428TIP3   OH243774   4.975   3.829  14.938 -0.0963  0.0696  0.5493
 7428TIP3    H143775   4.894   3.872  14.909  0.1872  0.0224 -0.3534
 7428TIP3    H243776   5.029   3.825  14.859 -0.1731 -2.1136  0.5517
 7429TIP3   OH243777   1.444   1.165  11.521  0.0729  0.1099 -0.4072
 7429TIP3    H143778   1.381   1.233  11.496 -1.0398 -0.6738  0.1521
 7429TIP3    H243779   1.486   1.141  11.439 -0.4282  0.5918 -0.8173
 7430TIP3   OH243780   5.454   3.686  11.707  0.2554 -0.5496 -0.1261
 7430TIP3    H143781   5.494   3.724  11.628 -0.5676 -0.0057 -0.2885
 7430TIP3    H243782   5.528   3.653  11.757  0.9633  0.7360 -0.2654
 7431TIP3   OH243783   0.873   2.848  11.667  0.7066  0.0457  0.5021
 7431TIP3    H143784   0.831   2.769  11.632  0.4242  0.3863  0.0686
 7431TIP3    H243785   0.964   2.841  11.638  0.0405  1.4249 -2.3463
 7432TIP3   OH243786   1.431   4.624   3.660  0.5693  0.1609  0.2511
 7432TIP3    H143787   1.481   4.557   3.612  1.0267  0.0406  0.8844
 7432TIP3    H243788   1.491   4.698   3.667 -0.7270  1.6660 -2.6109
 7433TIP3   OH243789   6.494   1.841  14.925 -0.3631  0.0758  0.1995
 7433TIP3    H143790   6.520   1.869  15.013 -1.9287 -0.4694  0.8839
 7433TIP3    H243791   6.415   1.892  14.907 -1.3221 -1.4143  0.0606
 7434TIP3   OH243792   6.366   0.996   5.779 -0.7261  0.1579  0.4465
 7434TIP3    H143793   6.295   0.938   5.752 -2.7938  3.1401 -1.0777
 7434TIP3    H243794   6.369   0.988   5.875 -0.7453 -2.4870  0.3082
 7435TIP3   OH243795   1.344   1.148  15.920  0.2166  0.3720  0.9229
 7435TIP3    H143796   1.347   1.124  15.828  0.7445  1.5135  0.6321
 7435TIP3    H243797   1.282   1.086  15.959 -1.9030  1.3533 -0.6681
 7436TIP3   OH243798   6.403   1.844  11.652  0.2005 -0.0387  0.1882
 7436TIP3    H143799   6.317   1.866  11.687 -0.6222 -1.4077 -0.9037
 7436TIP3    H243800   6.387   1.821  11.560  1.6730 -0.7122  0.0697
 7437TIP3   OH243801   6.063   6.275  15.256  0.3422  0.1040  0.1050
 7437TIP3    H143802   5.996   6.326  15.301 -0.3388 -1.1259  0.5270
 7437TIP3    H243803   6.139   6.279  15.313  0.5121  1.1795 -0.1833
 7438TIP3   OH243804   3.758   3.947  15.951 -0.5205 -0.0614 -0.0587
 7438TIP3    H143805   3.817   3.873  15.935  1.0270  0.9823  0.6344
 7438TIP3    H243806   3.815   4.019  15.976 -2.2585  0.0486  4.5772
 7439TIP3   OH243807   0.897   4.800   2.059 -0.0713 -0.0036 -0.4646
 7439TIP3    H143808   0.905   4.769   2.149  0.4120 -2.8075 -1.3924
 7439TIP3    H243809   0.876   4.722   2.008 -0.6591  1.5529 -2.7786
 7440TIP3   OH243810   4.996   1.885   1.642 -0.2841  0.0770 -0.4335
 7440TIP3    H143811   5.033   1.811   1.594 -1.6813  0.1374 -1.6788
 7440TIP3    H243812   4.975   1.950   1.574 -1.4968  0.5279  0.3308
 7441TIP3   OH243813   4.382   2.381  16.633 -0.4386  0.3316 -0.2973
 7441TIP3    H143814   4.356   2.470  16.657 -2.8584 -0.4705  0.3032
 7441TIP3    H243815   4.471   2.372  16.668 -1.1202  1.6392  1.9621
 7442TIP3   OH243816   6.311   3.074   1.958  0.3267  0.1112 -0.0519
 7442TIP3    H143817   6.333   3.040   1.871  1.4345  0.5546  0.0369
 7442TIP3    H243818   6.243   3.140   1.941  1.3213  1.0021 -0.7354
 7443TIP3   OH243819   1.319   4.643   3.362  0.6810 -0.2114  0.0210
 7443TIP3    H143820   1.302   4.734   3.338 -0.7954 -0.4537  0.0169
 7443TIP3    H243821   1.337   4.645   3.456 -1.9621 -0.1370  0.6169
 7444TIP3   OH243822   3.720   4.681   0.110 -0.2554  0.4346 -0.5210
 7444TIP3    H143823   3.686   4.715   0.028 -0.5167  0.0249 -0.5867
 7444TIP3    H243824   3.812   4.662   0.092  0.5107  3.1797  0.1521
 7445TIP3   OH243825   0.268   6.239   4.678  0.0339  0.1655  0.3944
 7445TIP3    H143826   0.350   6.251   4.630 -1.5957  1.0398 -2.4164
 7445TIP3    H243827   0.224   6.323   4.671 -1.3548 -0.4480  1.3206
 7446TIP3   OH243828   1.630   0.042   4.460 -0.2144  0.2094  0.1655
 7446TIP3    H143829   1.627  -0.028   4.525 -0.6099  0.3758  0.3253
 7446TIP3    H243830   1.550   0.031   4.409 -0.2443  0.5041  0.1466
 7447TIP3   OH243831   4.251   2.710   4.874  0.4391  0.1221 -0.7913
 7447TIP3    H143832   4.228   2.617   4.869  0.5122 -0.0018  0.6670
 7447TIP3    H243833   4.337   2.711   4.916  0.2324  0.8496 -0.3651
 7448TIP3   OH243834   4.873   6.327  11.946  0.0531  0.5359 -0.5379
 7448TIP3    H143835   4.819   6.265  11.896  1.3146 -0.6747 -0.4583
 7448TIP3    H243836   4.905   6.276  12.021  0.7747  1.4187 -0.2255
 7449TIP3   OH243837   2.000   1.114   2.100 -0.2197 -0.5833 -0.8406
 7449TIP3    H143838   1.916   1.070   2.089 -1.4964  1.9072 -1.6887
 7449TIP3    H243839   1.978   1.202   2.128  2.2606 -0.6345  1.7111
 7450TIP3   OH243840   2.208   5.314   1.384 -0.0730  0.4629  0.1494
 7450TIP3    H143841   2.187   5.283   1.472  1.1118  0.4029  0.4191
 7450TIP3    H243842   2.206   5.410   1.392  0.4192  0.4580  0.3375
 7451TIP3   OH243843   2.206   6.600  16.941  0.2619 -0.0763 -0.5941
 7451TIP3    H143844   2.192   6.666  17.009 -0.3228 -0.4007 -0.3879
 7451TIP3    H243845   2.283   6.551  16.971  0.6015  0.4052 -0.6668
 7452TIP3   OH243846   3.574   0.261   3.411 -0.0371  0.1853  0.1071
 7452TIP3    H143847   3.504   0.325   3.422 -0.5886 -0.6183  1.5868
 7452TIP3    H243848   3.542   0.202   3.342 -1.2110 -0.6058  1.2665
 7453TIP3   OH243849   3.426   6.664   1.859 -0.0103  0.3485  0.4220
 7453TIP3    H143850   3.517   6.691   1.866  0.4637 -1.1974  0.4629
 7453TIP3    H243851   3.411   6.652   1.765 -0.7993  2.5244  0.1969
 7454TIP3   OH243852   5.427   0.887  14.354  0.3118  0.0431  0.0477
 7454TIP3    H143853   5.393   0.883  14.444  2.5825 -1.2548  0.9269
 7454TIP3    H243854   5.438   0.980  14.337  0.9762  0.2797  1.5890
 7455TIP3   OH243855   5.633   3.007   6.161  0.1163  0.1092 -0.9956
 7455TIP3    H143856   5.594   3.081   6.207 -2.2319 -0.8184 -1.3644
 7455TIP3    H243857   5.645   2.940   6.229  1.0690  0.3685 -0.8948
 7456TIP3   OH243858   1.820   3.307  15.515 -0.6511 -0.1843  0.1433
 7456TIP3    H143859   1.833   3.228  15.462  0.7690 -0.5551  1.0160
 7456TIP3    H243860   1.907   3.346  15.521 -0.5417 -0.7049  3.0582
 7457TIP3   OH243861   4.741   0.684   2.116 -0.0978 -0.0214 -0.5401
 7457TIP3    H143862   4.729   0.590   2.115 -2.8563  0.2618 -1.0742
 7457TIP3    H243863   4.737   0.710   2.024 -1.5189  0.7892 -0.2886
 7458TIP3   OH243864   4.844   2.074   2.489 -0.3451 -0.6802 -0.1129
 7458TIP3    H143865   4.926   2.049   2.446 -0.0252  0.9210 -0.5165
 7458TIP3    H243866   4.799   1.992   2.505  1.0093 -1.5454 -0.5628
 7459TIP3   OH243867   4.472   2.484   2.855 -0.6649 -0.0380 -0.1994
 7459TIP3    H143868   4.412   2.414   2.881  2.0378 -2.4461  0.0735
 7459TIP3    H243869   4.545   2.477   2.916  0.2892  2.2584 -0.9752
 7460TIP3   OH243870   3.467   0.405  14.067  0.1122  0.2497 -0.1606
 7460TIP3    H143871   3.405   0.475  14.049  1.2420  1.2072 -0.4026
 7460TIP3    H243872   3.437   0.367  14.150 -0.5707  0.9336 -0.0802
 7461TIP3   OH243873   0.573   3.953   1.114  0.0921 -0.2049 -0.3645
 7461TIP3    H143874   0.500   3.951   1.052  1.2305 -2.0775 -1.7669
 7461TIP3    H243875   0.536   3.918   1.195 -0.9360  0.3860 -0.5638
 7462TIP3   OH243876   1.443   0.422   5.049 -0.0836  0.2934 -0.0150
 7462TIP3    H143877   1.361   0.454   5.085  0.9354 -0.4088  3.3009
 7462TIP3    H243878   1.507   0.490   5.070  0.5220  0.0642 -1.0166
 7463TIP3   OH243879   0.304   3.143   1.149 -0.0488  0.3251  0.3394
 7463TIP3    H143880   0.313   3.205   1.076 -2.4801  1.1261  0.6531
 7463TIP3    H243881   0.243   3.077   1.117 -0.1740 -0.0016  1.2293
 7464TIP3   OH243882   6.205   0.086   2.573  0.3992 -0.0645 -0.5504
 7464TIP3    H143883   6.150   0.009   2.561 -0.4497  0.3570  0.4447
 7464TIP3    H243884   6.294   0.052   2.582  0.1915 -0.8275 -1.2962
 7465TIP3   OH243885   3.656   5.025  11.901 -0.1583  0.3557 -0.2896
 7465TIP3    H143886   3.670   4.944  11.949 -1.8364  1.2579  1.8751
 7465TIP3    H243887   3.680   5.004  11.811  1.7103 -1.8352  0.6200
 7466TIP3   OH243888   1.883   0.952  12.484  0.0958  0.2061  0.0176
 7466TIP3    H143889   1.925   0.875  12.446 -0.2403 -0.7337  1.5051
 7466TIP3    H243890   1.839   0.994  12.409  2.0880  0.2145 -1.2211
 7467TIP3   OH243891   1.798   3.301  16.298 -0.0394 -0.0947 -0.6180
 7467TIP3    H143892   1.872   3.260  16.343 -0.2365  0.4383  0.2189
 7467TIP3    H243893   1.725   3.242  16.315 -0.2007  0.3126  0.1050
 7468TIP3   OH243894   5.845   2.125  17.059  0.0861 -0.4281  0.4266
 7468TIP3    H143895   5.809   2.164  16.980 -1.0649  0.0250  1.1356
 7468TIP3    H243896   5.810   2.179  17.130  0.0014 -1.6172  1.3174
 7469TIP3   OH243897   3.372   1.172  16.060 -0.1868  0.6008  0.4391
 7469TIP3    H143898   3.321   1.246  16.027  2.2575  1.5703 -1.4896
 7469TIP3    H243899   3.336   1.096  16.014 -1.5240  0.8108  1.0751
 7470TIP3   OH243900   3.626   5.534  16.279 -0.3566  0.1641  0.7519
 7470TIP3    H143901   3.570   5.557  16.353 -1.4326  0.2852 -0.0782
 7470TIP3    H243902   3.630   5.614  16.226 -0.9304 -0.3748 -0.1409
 7471TIP3   OH243903   3.599   5.271  16.790 -0.0627  0.1636 -0.7627
 7471TIP3    H143904   3.531   5.338  16.781  1.5775  1.7937 -1.8258
 7471TIP3    H243905   3.657   5.303  16.859 -0.3378 -1.1966  0.1348
 7472TIP3   OH243906   4.644   2.101  15.920  0.3954  0.4540  0.0168
 7472TIP3    H143907   4.567   2.139  15.877 -0.5594 -0.1581  1.1247
 7472TIP3    H243908   4.644   2.009  15.893  1.8180  0.8257 -1.4260
 7473TIP3   OH243909   5.754   6.252  12.409  0.6219  0.2309  0.1839
 7473TIP3    H143910   5.685   6.196  12.372  1.3494 -0.7639  0.2932
 7473TIP3    H243911   5.835   6.206  12.389  1.1354  0.4017  1.7365
 7474TIP3   OH243912   3.403   3.428  16.294 -0.0081  0.0689 -0.3203
 7474TIP3    H143913   3.427   3.407  16.384  0.1439 -0.6448 -0.5184
 7474TIP3    H243914   3.330   3.489  16.302  1.7969  2.2544  0.2853
 7475TIP3   OH243915   0.561   6.778  15.275  0.2376  0.4009  0.1076
 7475TIP3    H143916   0.652   6.758  15.253 -0.2959 -2.8642  0.4626
 7475TIP3    H243917   0.518   6.790  15.190  0.6811  0.4089 -0.1188
 7476TIP3   OH243918   1.823   6.285  15.748 -0.6812 -0.2957  0.3405
 7476TIP3    H143919   1.849   6.194  15.764 -1.3281 -0.3538  1.1417
 7476TIP3    H243920   1.800   6.288  15.655  1.8209 -0.3107 -0.3558
 7477TIP3   OH243921   5.764   3.748   2.127  0.5698  0.1582  0.2738
 7477TIP3    H143922   5.832   3.778   2.066  0.2656 -0.5566 -0.4362
 7477TIP3    H243923   5.787   3.657   2.146 -0.6348 -0.3637 -0.6425
 7478TIP3   OH243924   1.493   5.261  15.855 -0.7152 -0.3496  0.3069
 7478TIP3    H143925   1.439   5.201  15.906 -0.5984  0.3106  1.2361
 7478TIP3    H243926   1.517   5.330  15.917 -1.1935  0.8910 -0.8419
 7479TIP3   OH243927   0.532   5.289  13.797 -0.3387 -0.4960 -0.1169
 7479TIP3    H143928   0.489   5.374  13.787 -0.5693 -0.5552  0.3226
 7479TIP3    H243929   0.597   5.286  13.727  1.0284  0.8825  1.0208
 7480TIP3   OH243930   3.196   5.386  13.632 -0.2388  0.3934 -0.1140
 7480TIP3    H143931   3.164   5.364  13.719  0.5187  1.6369  0.5133
 7480TIP3    H243932   3.207   5.302  13.588 -0.8075 -0.2450  0.9279
 7481TIP3   OH243933   0.765   1.450  13.519  0.0495 -0.5945 -0.0485
 7481TIP3    H143934   0.845   1.475  13.472 -0.6424 -0.4246 -1.1568
 7481TIP3    H243935   0.778   1.485  13.607  1.0022 -0.1758 -0.3400
 7482TIP3   OH243936   4.798   4.000  11.108  0.2148 -0.1730 -0.2018
 7482TIP3    H143937   4.841   4.056  11.044 -1.9723  1.1710 -0.6164
 7482TIP3    H243938   4.746   3.939  11.055 -1.0845  0.5169  0.2221
 7483TIP3   OH243939   4.637   2.796  11.090  0.3936  0.1807  0.0268
 7483TIP3    H143940   4.570   2.797  11.158 -1.7516 -0.9372 -1.9276
 7483TIP3    H243941   4.633   2.884  11.052  0.8908  0.4859  0.6591
 7484TIP3   OH243942   6.662   4.119   1.341  0.1930 -0.0734 -0.1145
 7484TIP3    H143943   6.739   4.112   1.397  1.2873 -0.1691 -1.5842
 7484TIP3    H243944   6.692   4.171   1.266 -2.0389  2.7691  0.7588
 7485TIP3   OH243945   3.627   3.181   2.240  0.0276 -0.6138  0.0293
 7485TIP3    H143946   3.555   3.129   2.204  0.2703 -0.7853 -0.2067
 7485TIP3    H243947   3.608   3.187   2.334  1.1086 -2.9463  0.4546
 7486TIP3   OH243948   4.332   2.127  14.709  0.1143  0.6119  0.2447
 7486TIP3    H143949   4.404   2.081  14.666  0.5247  0.6048  0.9200
 7486TIP3    H243950   4.328   2.089  14.797 -0.2696  1.0905  0.4431
 7487TIP3   OH243951   4.669   3.387  12.624 -0.2645 -0.6094  0.2875
 7487TIP3    H143952   4.579   3.417  12.634  0.0950  0.0665  1.8795
 7487TIP3    H243953   4.719   3.441  12.685  1.2668 -0.8062 -0.7413
 7488TIP3   OH243954   0.408   6.525  13.378 -0.1423  0.4882 -0.1907
 7488TIP3    H143955   0.368   6.442  13.351 -0.5741  0.4551  0.5259
 7488TIP3    H243956   0.402   6.524  13.473  0.5192  1.0145 -0.1396
 7489TIP3   OH243957   2.171   0.883  13.492  0.3215  0.3511  0.2362
 7489TIP3    H143958   2.106   0.926  13.437  0.3438 -1.6013 -1.4506
 7489TIP3    H243959   2.120   0.831  13.554  0.1818 -1.1281 -1.0448
 7490TIP3   OH243960   6.189   2.740   0.076  0.0661 -0.1603  0.4415
 7490TIP3    H143961   6.282   2.751   0.055  0.3861  2.0151  2.5881
 7490TIP3    H243962   6.187   2.677   0.148  0.0527  0.9159  1.4046
 7491TIP3   OH243963   1.910   5.702   4.617  0.0239  0.1003 -0.5491
 7491TIP3    H143964   1.888   5.635   4.680 -0.8367  0.9013  0.0247
 7491TIP3    H243965   1.924   5.655   4.535  0.2454 -0.8475  0.0256
 7492TIP3   OH243966   1.646   1.093  12.732 -0.1996 -0.2108 -0.0889
 7492TIP3    H143967   1.594   1.156  12.781 -0.9120  0.1580 -1.2833
 7492TIP3    H243968   1.613   1.099  12.642 -1.6979 -3.6431  0.0603
 7493TIP3   OH243969   2.486   3.724   1.602  0.6013  0.1552  0.0461
 7493TIP3    H143970   2.573   3.749   1.635  0.1332  1.3462  0.4155
 7493TIP3    H243971   2.495   3.631   1.581  1.9633  0.2529  0.0854
 7494TIP3   OH243972   5.896   0.882   3.038 -0.0172  0.7278 -0.0532
 7494TIP3    H143973   5.925   0.964   2.997 -0.3948  0.7204 -0.3379
 7494TIP3    H243974   5.860   0.831   2.966  3.6897 -1.3333 -0.6978
 7495TIP3   OH243975   6.720   2.670  12.286  0.2644  0.2082 -0.2928
 7495TIP3    H143976   6.761   2.751  12.256  4.4865 -2.1820 -1.8529
 7495TIP3    H243977   6.724   2.674  12.381  3.5083  0.6376 -0.3247
 7496TIP3   OH243978   5.523   2.980  16.671 -0.0773 -0.6227 -0.1132
 7496TIP3    H143979   5.460   3.009  16.605 -0.0246 -1.9225 -0.7701
 7496TIP3    H243980   5.544   2.890  16.646  0.8693 -0.7312  0.9894
 7497TIP3   OH243981   1.385   2.178   5.865  0.3991  0.7277 -0.0077
 7497TIP3    H143982   1.405   2.196   5.957  2.0975 -0.1316 -0.1623
 7497TIP3    H243983   1.458   2.217   5.817  0.7411 -0.8221 -0.8028
 7498TIP3   OH243984   0.369   1.622  13.128  0.3963  0.2837  0.0893
 7498TIP3    H143985   0.302   1.561  13.161  0.0308  0.2518 -0.6767
 7498TIP3    H243986   0.367   1.695  13.190 -1.9037  1.3032 -1.0322
 7499TIP3   OH243987   4.050   4.774  13.997 -0.2658 -0.1203  0.2071
 7499TIP3    H143988   4.014   4.854  13.960  0.7286 -0.1923 -0.9890
 7499TIP3    H243989   4.108   4.740  13.929 -0.7254 -1.9026  0.6477
 7500TIP3   OH243990   6.598   6.190  14.119 -0.0194  0.9644 -0.2160
 7500TIP3    H143991   6.573   6.203  14.211 -0.1841  0.7557 -0.2311
 7500TIP3    H243992   6.542   6.119  14.089 -0.3797  1.4190 -0.6497
 7501TIP3   OH243993   6.099   2.073  17.164 -0.0353  0.2615 -0.0657
 7501TIP3    H143994   6.105   1.986  17.126 -1.1328 -0.2186  0.7844
 7501TIP3    H243995   6.010   2.102  17.143  0.1258  0.9354  0.1497
 7502TIP3   OH243996   5.893   5.962  15.101  0.3439  0.3099  0.0935
 7502TIP3    H143997   5.808   5.923  15.078  0.2197  0.6732 -0.0548
 7502TIP3    H243998   5.874   6.016  15.178  0.6053 -0.2729  0.5808
 7503TIP3   OH243999   0.164   3.409  15.913 -0.2830 -0.1991 -0.1679
 7503TIP3    H144000   0.071   3.427  15.925  0.0613  2.1220 -0.5574
 7503TIP3    H244001   0.179   3.422  15.819  0.6285  0.5352  0.0689
 7504TIP3   OH244002   6.402   1.253   3.538 -0.0187 -0.3156 -0.2396
 7504TIP3    H144003   6.497   1.260   3.544 -0.0799 -0.4438  1.3115
 7504TIP3    H244004   6.378   1.194   3.609 -1.4013  1.1798  0.5967
 7505TIP3   OH244005   2.100   5.225   6.471 -0.0841  0.0575  0.8534
 7505TIP3    H144006   2.171   5.162   6.482  0.9554  0.8783 -0.7725
 7505TIP3    H244007   2.030   5.192   6.527  0.9399 -1.7332  1.1575
 7506TIP3   OH244008   0.644   6.189  11.687  0.6646 -0.1175  0.1964
 7506TIP3    H144009   0.631   6.105  11.731  2.5263  0.2005  1.4691
 7506TIP3    H244010   0.613   6.254  11.750  0.2341  0.2127 -0.3479
 7507TIP3   OH244011   5.304   5.096   3.324  0.1395  0.1523 -0.2188
 7507TIP3    H144012   5.257   5.059   3.398  0.1404  0.0622 -0.2634
 7507TIP3    H244013   5.394   5.106   3.355  0.0216  0.6426 -0.0189
 7508TIP3   OH244014   2.188   2.109   5.041  0.3965 -0.2398 -0.2027
 7508TIP3    H144015   2.192   2.033   5.099  0.9649 -1.2740 -1.5484
 7508TIP3    H244016   2.166   2.073   4.956  0.3024  1.1630 -0.7966
 7509TIP3   OH244017   2.905   0.170   1.996  0.1124 -0.4005  0.4361
 7509TIP3    H144018   2.954   0.227   2.055 -0.7548 -1.1229  1.9246
 7509TIP3    H244019   2.963   0.157   1.921  0.4086  2.2536  0.1160
 7510TIP3   OH244020   6.513   4.088   5.802 -0.5438  0.5302  0.0826
 7510TIP3    H144021   6.533   4.182   5.810  2.6885  0.4622 -3.7118
 7510TIP3    H244022   6.473   4.080   5.716 -0.6359 -1.6220  0.2875
 7511TIP3   OH244023   0.540   3.801   2.761 -0.2851 -0.2196  0.3063
 7511TIP3    H144024   0.576   3.751   2.688 -0.0781 -1.1843  1.0650
 7511TIP3    H244025   0.453   3.828   2.730 -0.4471 -1.1392 -0.0675
 7512TIP3   OH244026   0.495   0.308  17.014 -0.2179  0.1252  0.2667
 7512TIP3    H144027   0.463   0.314  16.924 -1.3145 -0.6300  0.5893
 7512TIP3    H244028   0.498   0.398  17.044 -3.8742  0.2208  0.8083
 7513TIP3   OH244029   0.300   5.953   4.258 -0.3634  0.4199 -0.0570
 7513TIP3    H144030   0.291   5.864   4.293 -1.9873  0.7066  0.3256
 7513TIP3    H244031   0.236   5.957   4.187  0.2125  1.0607 -0.5470
 7514TIP3   OH244032   1.323   5.770  15.374  0.0054 -0.1434  0.4647
 7514TIP3    H144033   1.250   5.708  15.376 -0.5272  0.3907 -1.1285
 7514TIP3    H244034   1.284   5.851  15.343  0.6470  1.1178  2.7275
 7515TIP3   OH244035   1.159   5.138   5.911  0.4192 -0.1441  0.2423
 7515TIP3    H144036   1.239   5.100   5.876  0.8722  0.9263  0.0957
 7515TIP3    H244037   1.185   5.222   5.947 -0.4551 -0.2292  1.1205
 7516TIP3   OH244038   4.853   5.526  11.118 -0.6262  0.2511  0.4246
 7516TIP3    H144039   4.930   5.476  11.092 -0.6173  0.2472  0.4584
 7516TIP3    H244040   4.888   5.605  11.159 -0.6393  0.5282 -0.0933
 7517TIP3   OH244041   4.599   6.688  13.734  0.2912 -0.2925  0.2016
 7517TIP3    H144042   4.623   6.656  13.647  0.3427  0.6889 -0.1582
 7517TIP3    H244043   4.530   6.628  13.763 -3.0331  1.8929 -2.4398
 7518TIP3   OH244044   0.294   0.769  11.163 -0.0864  0.0799 -0.1975
 7518TIP3    H144045   0.353   0.791  11.235 -0.0318  0.6275 -0.4016
 7518TIP3    H244046   0.209   0.802  11.191  0.0717  0.8998 -0.6671
 7519TIP3   OH244047   2.945   4.588   6.458 -0.5163 -0.2830  0.2650
 7519TIP3    H144048   3.029   4.619   6.424  0.1349 -0.9366  1.2236
 7519TIP3    H244049   2.969   4.527   6.528 -1.7909  1.0070  1.9090
 7520TIP3   OH244050   1.593   3.570  13.086  0.0180 -0.1842  0.4222
 7520TIP3    H144051   1.554   3.563  13.173  0.7881  1.8942  0.9973
 7520TIP3    H244052   1.687   3.581  13.103  0.1108  0.8105 -0.6301
 7521TIP3   OH244053   3.955   5.305   0.898 -0.0398 -0.8353  0.0338
 7521TIP3    H144054   4.039   5.268   0.925  0.7741  0.9103  0.0133
 7521TIP3    H244055   3.923   5.352   0.975  0.4058  0.8720 -0.7609
 7522TIP3   OH244056   3.377   4.531   1.018  0.1313 -0.2586 -0.0705
 7522TIP3    H144057   3.337   4.474   0.952  1.8896 -1.4215 -0.2230
 7522TIP3    H244058   3.304   4.566   1.067 -1.1097 -1.4143 -1.0055
 7523TIP3   OH244059   2.836   4.122   5.890  0.4404  0.1093 -0.0682
 7523TIP3    H144060   2.768   4.188   5.877 -1.5710 -1.3184  2.3528
 7523TIP3    H244061   2.790   4.046   5.925  3.0511 -1.6348 -0.1282
 7524TIP3   OH244062   3.179   3.445  16.947 -0.0451  0.3118  0.1880
 7524TIP3    H144063   3.189   3.463  17.040  2.6483  1.4373 -0.2256
 7524TIP3    H244064   3.085   3.429  16.935 -0.3731 -0.4993  3.1514
 7525TIP3   OH244065   1.267   3.306  12.952 -0.6485 -0.1945  0.3897
 7525TIP3    H144066   1.306   3.386  12.918 -0.6007 -0.8189 -1.0590
 7525TIP3    H244067   1.312   3.291  13.036  0.0644  0.7263  0.1850
 7526TIP3   OH244068   4.669   1.975   4.797 -0.1006 -0.0991  0.1225
 7526TIP3    H144069   4.666   2.037   4.870 -1.2707 -0.9523  0.8403
 7526TIP3    H244070   4.659   1.889   4.838  1.1332 -0.7537 -0.8857
 7527TIP3   OH244071   1.723   0.045  12.421  0.0408  0.6899  0.6147
 7527TIP3    H144072   1.765   0.020  12.339 -0.2825 -0.5829  0.8091
 7527TIP3    H244073   1.786   0.020  12.489  0.3880  1.9133  0.7594
 7528TIP3   OH244074   2.490   5.395  17.138  0.4936 -0.0120  0.0001
 7528TIP3    H144075   2.423   5.425  17.200  0.2884  0.4403 -0.4317
 7528TIP3    H244076   2.450   5.409  17.052  1.4145  0.9508 -0.2908
 7529TIP3   OH244077   0.403   1.824   1.159 -0.4415  0.0468  0.4295
 7529TIP3    H144078   0.368   1.864   1.239 -1.7703 -0.4166  0.0992
 7529TIP3    H244079   0.368   1.735   1.159 -0.1855 -0.0641 -0.5020
 7530TIP3   OH244080   4.784   1.273   4.891  0.3193  0.0726 -0.1761
 7530TIP3    H144081   4.803   1.351   4.839 -2.8603 -0.1423 -1.8915
 7530TIP3    H244082   4.724   1.304   4.959  1.7710 -0.3089  1.3438
 7531TIP3   OH244083   4.812   5.402   2.766  0.0222  0.1781 -0.0832
 7531TIP3    H144084   4.822   5.439   2.678 -3.2603  0.7326 -0.3663
 7531TIP3    H244085   4.854   5.466   2.823 -1.1619  1.8891 -1.0077
 7532TIP3   OH244086   1.458   4.101  14.851  0.0914  0.2233 -0.2135
 7532TIP3    H144087   1.429   4.014  14.826 -3.5366  0.6206  1.7818
 7532TIP3    H244088   1.461   4.150  14.769  1.3004 -1.4968 -1.2484
 7533TIP3   OH244089   3.278   1.631  11.720  0.0176 -0.0131 -0.6191
 7533TIP3    H144090   3.325   1.704  11.679  0.7810  0.8650  1.7045
 7533TIP3    H244091   3.200   1.671  11.758  0.6970 -0.2575  1.1210
 7534TIP3   OH244092   6.265   3.230  12.417  0.5867 -0.4574 -0.6928
 7534TIP3    H144093   6.252   3.135  12.405 -0.3465 -0.8276  2.4764
 7534TIP3    H244094   6.184   3.269  12.384 -0.0889 -1.0053  0.2804
 7535TIP3   OH244095   5.907   2.723   1.648 -0.1173 -0.6345 -0.4967
 7535TIP3    H144096   5.856   2.678   1.716 -0.3412  0.3283 -0.0201
 7535TIP3    H244097   5.963   2.784   1.696 -1.3838  1.1722 -1.2368
 7536TIP3   OH244098   2.287   0.260   3.658 -0.4144  0.0859  0.0272
 7536TIP3    H144099   2.351   0.212   3.711 -0.0444  2.9313  2.3583
 7536TIP3    H244100   2.223   0.193   3.632  1.6736 -2.2270  0.3826
 7537TIP3   OH244101   3.264   2.429  16.637 -0.0386 -0.0109 -0.4342
 7537TIP3    H144102   3.280   2.505  16.582  0.6471  0.1686 -0.0076
 7537TIP3    H244103   3.351   2.404  16.670 -0.4276 -0.0983  0.5710
 7538TIP3   OH244104   6.782   4.248  12.375 -0.1925 -0.0668  0.3255
 7538TIP3    H144105   6.716   4.192  12.334 -0.5658  0.4037  0.2725
 7538TIP3    H244106   6.864   4.222  12.334 -0.0742 -1.7452  1.4766
 7539TIP3   OH244107   5.708   3.980  12.596  0.1437 -0.5233 -0.8237
 7539TIP3    H144108   5.738   4.059  12.553  1.6756 -0.9709 -0.6494
 7539TIP3    H244109   5.625   3.959  12.554 -0.9486  1.8513 -0.0051
 7540TIP3   OH244110   0.625   0.349   1.888  0.0669 -0.6694 -0.0237
 7540TIP3    H144111   0.662   0.367   1.801 -1.2366 -0.3607 -0.5333
 7540TIP3    H244112   0.616   0.254   1.891 -1.4672 -0.5794 -0.9222
 7541TIP3   OH244113   0.049   0.039  13.504 -0.4234  0.1780 -0.6185
 7541TIP3    H144114  -0.034   0.079  13.479 -1.5501 -0.1717  2.1991
 7541TIP3    H244115   0.095   0.107  13.552 -0.6903 -0.6829  0.9174
 7542TIP3   OH244116   1.901   2.793   6.458  0.1974  0.0257 -0.4558
 7542TIP3    H144117   1.824   2.831   6.416 -0.5097 -0.2824  0.5246
 7542TIP3    H244118   1.873   2.776   6.548  0.6203 -2.3146 -0.7021
 7543TIP3   OH244119   0.908   1.308  16.128  0.4888  0.0858 -0.2656
 7543TIP3    H144120   0.815   1.333  16.129  0.9565  2.0871  2.2100
 7543TIP3    H244121   0.952   1.382  16.087  1.3121  0.8421  1.8601
 7544TIP3   OH244122   6.790   0.574  16.126  0.2267  1.1513  0.0098
 7544TIP3    H144123   6.786   0.634  16.201 -0.0241  0.3531  0.6598
 7544TIP3    H244124   6.705   0.529  16.127  0.0231  1.5016 -1.0813
 7545TIP3   OH244125   5.754   4.801  12.040 -0.6539 -0.6279  0.9561
 7545TIP3    H144126   5.699   4.878  12.030 -0.3238 -0.6438 -1.6636
 7545TIP3    H244127   5.837   4.834  12.074 -0.9132 -0.0344  1.0239
 7546TIP3   OH244128   0.999   4.974   5.777 -0.0726  0.2707 -0.1395
 7546TIP3    H144129   1.081   4.929   5.760 -0.4960 -0.9240  0.8568
 7546TIP3    H244130   1.023   5.047   5.834  0.5805  1.2199 -1.5645
 7547TIP3   OH244131   4.864   1.051  15.312  0.9774 -0.6850  0.0671
 7547TIP3    H144132   4.944   1.003  15.336 -0.1786 -2.2815  0.8666
 7547TIP3    H244133   4.793   1.001  15.352 -0.6063 -0.3090 -2.1380
 7548TIP3   OH244134   1.274   0.889  13.680 -0.7101 -0.3569  0.6531
 7548TIP3    H144135   1.345   0.891  13.745  0.1776  1.9238 -0.2963
 7548TIP3    H244136   1.263   0.980  13.653 -2.4040 -0.9811 -0.9859
 7549TIP3   OH244137   2.518   6.518  13.146 -0.0567  0.2716 -0.0996
 7549TIP3    H144138   2.447   6.558  13.196  0.7592  1.0331  0.4891
 7549TIP3    H244139   2.550   6.589  13.090 -0.9526 -0.5667 -1.7467
 7550TIP3   OH244140   2.788   0.700  11.755 -0.1575 -0.1135  0.0318
 7550TIP3    H144141   2.831   0.680  11.671 -0.8506 -2.3957  0.1405
 7550TIP3    H244142   2.695   0.699  11.735 -0.2987  0.3455  0.6459
 7551TIP3   OH244143   6.794   3.064  15.229 -0.3135  0.7118 -0.0324
 7551TIP3    H144144   6.735   2.994  15.256  0.4216  0.0218 -0.2085
 7551TIP3    H244145   6.842   3.029  15.154  1.5515  0.6186  1.1527
 7552TIP3   OH244146   2.862   2.115   4.819  0.0910  0.3931  0.0460
 7552TIP3    H144147   2.776   2.093   4.784  0.8306 -1.4510 -0.7221
 7552TIP3    H244148   2.913   2.143   4.743  0.5803  0.1134  0.2641
 7553TIP3   OH244149   4.548   5.580  13.734 -0.6134  0.2810 -0.3722
 7553TIP3    H144150   4.633   5.551  13.702 -0.9560 -0.2679 -0.8130
 7553TIP3    H244151   4.496   5.500  13.739 -0.4987  0.2980  1.8301
 7554TIP3   OH244152   0.997   0.727  13.230 -0.3957 -0.1514  0.4985
 7554TIP3    H144153   1.042   0.734  13.314  1.6694  0.7815 -0.6134
 7554TIP3    H244154   1.032   0.647  13.191 -0.9030 -0.2697  0.2789
 7555TIP3   OH244155   3.495   4.946   0.139  0.6302 -0.2646  0.1269
 7555TIP3    H144156   3.467   4.858   0.111  2.5886 -1.2404  1.0571
 7555TIP3    H244157   3.565   4.930   0.202  2.5854  1.9688 -1.2970
 7556TIP3   OH244158   5.433   3.780   3.199 -0.6177 -0.1832  0.4486
 7556TIP3    H144159   5.454   3.810   3.287 -1.2453 -1.9652  1.2563
 7556TIP3    H244160   5.379   3.850   3.162 -0.5844  0.4609  1.5683
 7557TIP3   OH244161   0.887   6.442  12.558 -0.2488  0.3154 -0.0446
 7557TIP3    H144162   0.838   6.522  12.579  0.1949  0.7191 -0.5132
 7557TIP3    H244163   0.866   6.382  12.629 -0.1657  1.0382  0.6025
 7558TIP3   OH244164   4.726   4.220  12.322  0.0048 -0.1133  0.2823
 7558TIP3    H144165   4.787   4.277  12.276 -0.7850  0.3151 -0.2724
 7558TIP3    H244166   4.747   4.231  12.415 -0.9297  2.0769  0.2944
 7559TIP3   OH244167   5.494   5.668   2.786  1.3359 -0.0642 -0.4857
 7559TIP3    H144168   5.531   5.756   2.790  1.4758 -0.1057 -0.8533
 7559TIP3    H244169   5.505   5.641   2.695  1.2739 -0.4542 -0.3799
 7560TIP3   OH244170   2.999   2.765  14.671  0.4671 -0.7827  0.4721
 7560TIP3    H144171   2.974   2.688  14.620 -1.3638 -0.5801  0.9583
 7560TIP3    H244172   2.926   2.777  14.732  0.5317  1.5468  0.1700
 7561TIP3   OH244173   3.433   3.601  13.838 -0.3300  0.2159 -0.4352
 7561TIP3    H144174   3.373   3.527  13.852 -1.6672  1.1091 -1.1850
 7561TIP3    H244175   3.399   3.670  13.895  1.1265  0.1650  0.5366
 7562TIP3   OH244176   1.273   4.856  16.945 -0.4002 -0.3208  0.1213
 7562TIP3    H144177   1.182   4.860  16.916 -0.3668 -1.1470 -0.1194
 7562TIP3    H244178   1.285   4.934  16.998 -0.6892  0.8298 -1.4449
 7563TIP3   OH244179   4.556   4.088   4.809  0.3556  0.0776 -0.0403
 7563TIP3    H144180   4.649   4.110   4.806  0.1572  0.8841 -0.4349
 7563TIP3    H244181   4.511   4.172   4.815 -0.3164 -0.3476  1.3202
 7564TIP3   OH244182   1.857   2.635  14.799 -0.1591  0.1866 -0.4647
 7564TIP3    H144183   1.820   2.657  14.884 -1.0393  1.1048 -1.0593
 7564TIP3    H244184   1.796   2.672  14.736  1.4594  1.2177 -1.5098
 7565TIP3   OH244185   2.877   4.795   4.472 -0.0704 -0.0994 -0.1560
 7565TIP3    H144186   2.838   4.719   4.515 -0.2566  0.6728  1.0884
 7565TIP3    H244187   2.914   4.846   4.544  0.2297  0.8861 -0.9955
 7566TIP3   OH244188   1.408   1.602   5.406  0.2467  0.5736 -0.4180
 7566TIP3    H144189   1.491   1.597   5.359 -0.2096 -2.0814 -1.0719
 7566TIP3    H244190   1.343   1.625   5.339  0.0010 -0.4779 -0.5460
 7567TIP3   OH244191   6.325   1.729  12.405 -0.2085  0.3530 -0.7476
 7567TIP3    H144192   6.349   1.638  12.387  2.4125  0.6646  0.7640
 7567TIP3    H244193   6.395   1.780  12.366 -1.0586  1.6852 -0.5814
 7568TIP3   OH244194   5.678   2.658   5.217 -0.2984  0.1919  0.4498
 7568TIP3    H144195   5.668   2.663   5.122 -2.2614  1.3938  0.6646
 7568TIP3    H244196   5.767   2.689   5.233  1.5212 -3.5374 -1.1759
 7569TIP3   OH244197   1.412   2.362  15.217 -0.4543  0.4121 -0.3058
 7569TIP3    H144198   1.483   2.407  15.263  0.5576 -2.0344  0.6837
 7569TIP3    H244199   1.341   2.356  15.282 -0.3546  0.0549 -0.2286
 7570TIP3   OH244200   5.522   0.617  10.279 -0.0260  0.2148 -0.2408
 7570TIP3    H144201   5.568   0.547  10.324  0.6909  0.0933 -1.1096
 7570TIP3    H244202   5.430   0.595  10.286 -0.2627  1.7677  3.7633
 7571TIP3   OH244203   0.477   5.743   1.351  0.1102  0.0509 -0.4752
 7571TIP3    H144204   0.453   5.652   1.335 -0.2275 -0.2061  1.2324
 7571TIP3    H244205   0.511   5.775   1.268 -0.1088 -1.5280 -1.1948
 7572TIP3   OH244206   0.466   0.428   3.161 -0.7187 -0.9319 -0.0071
 7572TIP3    H144207   0.449   0.462   3.073 -0.4906 -1.2834 -0.1853
 7572TIP3    H244208   0.380   0.431   3.204 -0.9434 -1.2981 -0.4257
 7573TIP3   OH244209   1.666   3.054   5.172  0.3114  0.0900 -0.8505
 7573TIP3    H144210   1.643   3.145   5.157  1.9940  0.5581 -0.8331
 7573TIP3    H244211   1.715   3.054   5.254 -0.3563 -0.9675 -0.4219
 7574TIP3   OH244212   6.271   3.861   0.054  0.1620  0.5024 -0.2340
 7574TIP3    H144213   6.206   3.836  -0.011  1.2333  0.7162 -1.4397
 7574TIP3    H244214   6.307   3.778   0.085 -0.7293  0.3827  0.5041
 7575TIP3   OH244215   5.461   2.903   2.197 -0.2470  0.0195 -0.0620
 7575TIP3    H144216   5.541   2.955   2.189 -1.0769  1.2848 -0.5433
 7575TIP3    H244217   5.412   2.946   2.268 -0.7089 -0.4552 -0.0912
 7576TIP3   OH244218   2.297   4.968  13.345 -0.3719  0.3259 -0.6017
 7576TIP3    H144219   2.292   5.058  13.311 -1.4118  0.2755 -0.6104
 7576TIP3    H244220   2.263   4.975  13.434 -1.2198 -0.2029 -0.8840
 7577TIP3   OH244221   6.230   5.839   3.749 -0.1246 -0.7189  0.0748
 7577TIP3    H144222   6.303   5.850   3.810  0.8228 -1.5711 -0.8625
 7577TIP3    H244223   6.187   5.925   3.748  3.3353  1.2460 -2.3979
 7578TIP3   OH244224   2.250   3.302  12.911 -0.3152 -0.9388 -0.0421
 7578TIP3    H144225   2.287   3.387  12.890  0.5717 -1.3839 -0.3431
 7578TIP3    H244226   2.308   3.239  12.868 -0.9686 -1.6943  0.1513
 7579TIP3   OH244227   4.959   6.399   5.002  0.2665 -0.5923  0.1343
 7579TIP3    H144228   4.914   6.431   5.080 -0.1548 -0.8070 -0.0142
 7579TIP3    H244229   5.052   6.417   5.017  0.1100  0.0076  0.3766
 7580TIP3   OH244230   4.379   0.049  13.208  0.4672  0.0229 -0.0409
 7580TIP3    H144231   4.444   0.061  13.277  0.0264  1.9275  0.1042
 7580TIP3    H244232   4.299   0.026  13.255 -0.1123  2.3877  0.2726
 7581TIP3   OH244233   0.729   2.065  13.825 -0.1418 -0.2991  0.2434
 7581TIP3    H144234   0.702   2.137  13.767 -0.1381 -1.3532 -1.1004
 7581TIP3    H244235   0.648   2.034  13.865 -0.2319 -0.0241  0.2764
 7582TIP3   OH244236   2.131   5.292  17.072 -0.2901  0.3272 -0.4704
 7582TIP3    H144237   2.070   5.352  17.115 -0.7952  0.7178 -1.6816
 7582TIP3    H244238   2.138   5.326  16.982 -1.2846 -1.8945 -1.4676
 7583TIP3   OH244239   5.913   1.298   4.686  0.1345 -0.4740  0.4383
 7583TIP3    H144240   5.932   1.204   4.694  0.5648 -0.3370  1.0653
 7583TIP3    H244241   5.818   1.303   4.697  0.1041 -0.8392  0.3776
 7584TIP3   OH244242   5.397   4.390  16.027  0.3391 -0.2034 -0.0583
 7584TIP3    H144243   5.354   4.305  16.014 -2.4966  1.2046 -0.6274
 7584TIP3    H244244   5.377   4.439  15.948  2.0820  0.9716  0.1905
 7585TIP3   OH244245   4.536   1.196   6.711  0.3574  0.0304  0.3974
 7585TIP3    H144246   4.451   1.154   6.721  1.3622 -2.3065 -0.2337
 7585TIP3    H244247   4.577   1.190   6.798  0.8216 -1.1660  0.1262
 7586TIP3   OH244248   3.659   0.363  11.181  0.4923 -0.5590  0.0758
 7586TIP3    H144249   3.645   0.408  11.098 -0.0497 -0.8562  0.0066
 7586TIP3    H244250   3.636   0.272  11.164  0.3181 -0.6112  0.5694
 7587TIP3   OH244251   0.585   3.259  16.026  0.0628 -0.1884  0.0611
 7587TIP3    H144252   0.526   3.212  16.085 -1.5770 -1.1019 -2.1542
 7587TIP3    H244253   0.672   3.241  16.061 -0.6354 -3.1210  0.6207
 7588TIP3   OH244254   2.370   1.092   2.225  0.5525 -0.5139  0.1679
 7588TIP3    H144255   2.330   1.074   2.139 -0.0044  0.2984  0.2439
 7588TIP3    H244256   2.462   1.110   2.205  0.5541 -0.9110 -0.1914
 7589TIP3   OH244257   0.827   2.306   4.565 -0.3891  0.2823 -0.7419
 7589TIP3    H144258   0.867   2.227   4.530  0.3227 -0.4605  1.5574
 7589TIP3    H244259   0.876   2.324   4.645 -2.2533  1.5084  0.2020
 7590TIP3   OH244260   0.967   2.633  12.705  0.0625  0.5470  0.6426
 7590TIP3    H144261   0.927   2.693  12.767  0.1107 -2.0461  3.4089
 7590TIP3    H244262   0.901   2.619  12.637 -0.2861  2.8532  0.4257
 7591TIP3   OH244263   3.174   4.349   2.650 -0.4481  0.0834 -0.1029
 7591TIP3    H144264   3.162   4.339   2.744 -0.6020  0.6541 -0.0570
 7591TIP3    H244265   3.195   4.261   2.619 -2.3326 -0.5119  0.1763
 7592TIP3   OH244266   0.579   2.756   3.716  0.1017 -0.0007 -0.3845
 7592TIP3    H144267   0.529   2.818   3.663 -0.5009  0.6512  0.9010
 7592TIP3    H244268   0.616   2.694   3.653  2.5688  2.8553 -2.0092
 7593TIP3   OH244269   0.097   4.478  12.060  0.6556  0.3716  0.2167
 7593TIP3    H144270   0.016   4.529  12.047 -0.3262 -1.1417  0.1257
 7593TIP3    H244271   0.130   4.462  11.972  1.5132  1.6321  0.2794
 7594TIP3   OH244272   3.201   3.560   2.561 -0.5356  0.5706 -0.1165
 7594TIP3    H144273   3.257   3.625   2.604  1.8389 -2.1231  1.1836
 7594TIP3    H244274   3.243   3.547   2.475 -0.1637 -0.1800  0.1679
 7595TIP3   OH244275   3.543   0.661  13.673 -0.1878 -0.6970 -0.1414
 7595TIP3    H144276   3.450   0.677  13.654  0.0636  0.4006 -0.4886
 7595TIP3    H244277   3.549   0.663  13.769 -0.3430  0.3155 -0.1463
 7596TIP3   OH244278   5.536   1.212   0.206  0.4302  0.1383  0.0422
 7596TIP3    H144279   5.551   1.288   0.261  1.5436 -0.4763  0.6152
 7596TIP3    H244280   5.620   1.167   0.203 -0.5699 -1.9865  1.1593
 7597TIP3   OH244281   3.992   4.180  11.800 -0.4142 -0.9592 -0.1304
 7597TIP3    H144282   3.906   4.216  11.824  0.0066  0.0261 -0.0168
 7597TIP3    H244283   4.036   4.166  11.884 -0.1127 -0.5416 -0.2163
 7598TIP3   OH244284   2.650   4.281  13.857 -0.4295  0.0355 -0.1700
 7598TIP3    H144285   2.555   4.283  13.861 -0.4378  0.4969 -0.4592
 7598TIP3    H244286   2.677   4.365  13.894 -0.0865 -0.5614  0.9693
 7599TIP3   OH244287   6.685   4.659  14.967 -0.3799  0.0791  0.0914
 7599TIP3    H144288   6.759   4.646  14.908 -0.8249  1.0089 -0.7077
 7599TIP3    H244289   6.669   4.754  14.964  0.6580  0.4697  3.0325
 7600TIP3   OH244290   2.959   1.949   5.542 -0.2970 -0.4891 -0.0929
 7600TIP3    H144291   2.894   2.005   5.500 -1.0446 -0.6959  0.7349
 7600TIP3    H244292   2.957   1.868   5.492 -0.9288 -0.6095  0.1145
 7601TIP3   OH244293   0.291   0.311   4.396  0.1239 -0.2188 -0.2430
 7601TIP3    H144294   0.357   0.342   4.334  0.5448 -0.6115  0.0078
 7601TIP3    H244295   0.267   0.225   4.364 -1.6440  0.6462 -1.4070
 7602TIP3   OH244296   4.089   5.510   5.911  0.4205 -0.2421  0.6683
 7602TIP3    H144297   4.128   5.480   5.828 -1.1055 -0.5499  0.0169
 7602TIP3    H244298   4.115   5.443   5.975  0.2180 -0.9180  0.0596
 7603TIP3   OH244299   0.044   1.893   3.821  0.1794  0.6055  0.4173
 7603TIP3    H144300   0.075   1.967   3.768  0.5635  0.5020  0.4923
 7603TIP3    H244301  -0.007   1.839   3.760 -0.6794  1.2849  0.5270
 7604TIP3   OH244302   4.897   6.252   6.132  0.0462 -0.2195  0.0371
 7604TIP3    H144303   4.892   6.322   6.197  1.1002  0.7141 -0.8460
 7604TIP3    H244304   4.809   6.215   6.131  0.1168 -0.6192  2.3463
 7605TIP3   OH244305   3.904   4.928  13.583  0.2494  0.6587 -0.6162
 7605TIP3    H144306   3.995   4.907  13.560 -0.2046  0.4343 -2.3995
 7605TIP3    H244307   3.910   5.011  13.630  1.5184 -0.2675  0.9781
 7606TIP3   OH244308   5.700   3.528   1.048  0.4180  0.3304  0.1753
 7606TIP3    H144309   5.775   3.473   1.024  0.0951 -1.0261  2.1309
 7606TIP3    H244310   5.639   3.517   0.976 -0.0126 -2.6491  0.8844
 7607TIP3   OH244311   0.102   3.075  15.495  0.4347  0.3153  0.4877
 7607TIP3    H144312   0.032   3.103  15.554  0.2987  0.0012  0.4784
 7607TIP3    H244313   0.060   3.068  15.410  0.7635  1.3382  0.2283
 7608TIP3   OH244314   1.083   0.139   3.766 -0.0804 -0.1684  0.0876
 7608TIP3    H144315   1.176   0.118   3.757  0.3076  0.9115  1.3826
 7608TIP3    H244316   1.052   0.081   3.836 -0.1833  0.1003  0.2631
 7609TIP3   OH244317   6.704   4.524   5.046  0.2300 -0.0449 -0.3200
 7609TIP3    H144318   6.745   4.448   5.086 -1.0382 -0.7305 -0.2635
 7609TIP3    H244319   6.620   4.492   5.014  0.0568  1.1235 -1.1130
 7610TIP3   OH244320   1.070   3.641  14.034  0.4723  0.0910  0.5934
 7610TIP3    H144321   1.142   3.587  13.999  0.2029  0.0969  0.0287
 7610TIP3    H244322   1.110   3.727  14.049  0.5074  0.1847 -0.0175
 7611TIP3   OH244323   1.015   5.554   1.830  0.4493  0.6580 -0.1734
 7611TIP3    H144324   1.099   5.559   1.784  0.3063  0.5790 -0.4510
 7611TIP3    H244325   0.956   5.608   1.777  0.0915 -0.0496 -0.5133
 7612TIP3   OH244326   6.394   3.583  14.279 -0.1165  0.2067  0.1503
 7612TIP3    H144327   6.328   3.651  14.290 -0.1272  0.4468 -1.2924
 7612TIP3    H244328   6.345   3.501  14.279 -0.6480  0.4586 -2.4082
 7613TIP3   OH244329   4.461   3.145  14.673 -0.0846 -0.2767 -0.0886
 7613TIP3    H144330   4.452   3.193  14.591 -0.4212  0.5452  0.4164
 7613TIP3    H244331   4.554   3.124  14.679  0.1142  0.5612 -0.1867
 7614TIP3   OH244332   1.563   2.212   1.980  0.3047 -0.1982 -0.2548
 7614TIP3    H144333   1.499   2.173   1.921 -0.9355 -0.2381  1.0676
 7614TIP3    H244334   1.531   2.301   1.994 -1.9185 -1.3904  3.6388
 7615TIP3   OH244335   1.949   4.547  12.842 -0.6527  0.0525 -0.0591
 7615TIP3    H144336   1.988   4.566  12.757 -0.6462 -0.2830 -0.1318
 7615TIP3    H244337   2.016   4.497  12.889 -0.4535  0.6878  0.3410
 7616TIP3   OH244338   2.862   0.386  16.002 -0.1448 -0.2650  0.3512
 7616TIP3    H144339   2.877   0.303  15.956  0.5067  0.5222 -0.8818
 7616TIP3    H244340   2.861   0.452  15.933 -2.5438  0.5731  1.0862
 7617TIP3   OH244341   4.001   3.021  17.080  0.7943 -0.2824 -0.2087
 7617TIP3    H144342   3.934   2.974  17.129  2.6625 -0.3642  2.4281
 7617TIP3    H244343   4.023   2.962  17.007 -1.0186 -0.8241 -0.3636
 7618TIP3   OH244344   3.849   4.675  14.582  0.2324  0.3993 -0.7875
 7618TIP3    H144345   3.934   4.640  14.608  0.5188 -0.3732 -2.6097
 7618TIP3    H244346   3.868   4.734  14.509 -1.0359 -2.9176 -4.0882
 7619TIP3   OH244347   2.884   3.051  12.084  0.1112 -0.0603 -0.1302
 7619TIP3    H144348   2.874   3.120  12.149 -0.3300  0.2829 -0.5544
 7619TIP3    H244349   2.905   3.097  12.003 -0.2469 -0.4173 -0.4301
 7620TIP3   OH244350   3.569   0.841  14.677 -0.3654 -0.6562 -0.3388
 7620TIP3    H144351   3.531   0.780  14.739 -1.1530  0.2208  0.0653
 7620TIP3    H244352   3.663   0.838  14.695 -0.5584 -0.5920  0.7416
 7621TIP3   OH244353   3.963   4.722  15.289 -0.0094 -0.1119  0.2877
 7621TIP3    H144354   4.042   4.676  15.262 -0.7194 -0.7488 -0.7821
 7621TIP3    H244355   3.982   4.754  15.378  0.4217 -2.7124  1.2081
 7622TIP3   OH244356   4.846   5.326  10.705 -0.0948  0.6236  0.2005
 7622TIP3    H144357   4.761   5.368  10.714  0.2495  2.0263 -2.0949
 7622TIP3    H244358   4.838   5.270  10.628  0.5629 -0.6778  1.0354
 7623TIP3   OH244359   1.600   1.456   1.779 -0.0266  0.5625 -0.4742
 7623TIP3    H144360   1.672   1.469   1.717  0.1852 -0.5364 -0.4889
 7623TIP3    H244361   1.631   1.387   1.838 -1.1261 -0.0597 -0.5951
 7624TIP3   OH244362   2.845   3.467   1.234  0.2575 -0.8478  0.6901
 7624TIP3    H144363   2.774   3.484   1.171  1.0530 -0.6396 -0.1827
 7624TIP3    H244364   2.822   3.519   1.311 -1.2223 -1.8444  0.9494
 7625TIP3   OH244365   2.434   0.072  14.942 -0.6213  0.4669  0.4196
 7625TIP3    H144366   2.359   0.124  14.972 -0.1641  0.5191  1.5356
 7625TIP3    H244367   2.507   0.103  14.997  1.4052  3.7742 -3.5816
 7626TIP3   OH244368   4.884   0.161  16.024 -0.3794 -0.0290 -0.2885
 7626TIP3    H144369   4.840   0.240  16.054 -0.3534 -0.3070  0.5293
 7626TIP3    H244370   4.823   0.120  15.963 -1.5842 -0.7549  1.3305
 7627TIP3   OH244371   5.971   6.365  17.176  0.0916 -0.2002  0.2236
 7627TIP3    H144372   6.023   6.319  17.243 -0.8938 -1.2510  0.2995
 7627TIP3    H244373   5.915   6.297  17.139 -0.1195  0.5979 -0.9471
 7628TIP3   OH244374   1.020   2.582  15.754 -0.2611 -0.6024  0.1957
 7628TIP3    H144375   0.946   2.575  15.814  0.3473  0.7575  1.1645
 7628TIP3    H244376   0.981   2.594  15.668 -1.1560 -1.5296  0.4691
 7629TIP3   OH244377   0.330   2.017  13.503 -0.7960 -0.3718  0.3865
 7629TIP3    H144378   0.247   2.052  13.470  0.0320  1.2836 -0.0729
 7629TIP3    H244379   0.345   2.065  13.585  0.6269  0.8088 -0.5133
 7630TIP3   OH244380   5.507   1.613  15.764  0.4866 -0.1433 -0.0846
 7630TIP3    H144381   5.511   1.527  15.722 -0.2027 -0.7306  1.0083
 7630TIP3    H244382   5.558   1.669  15.707 -0.1772 -0.9655 -1.5613
 7631TIP3   OH244383   5.791   2.177   5.243  0.3747  0.0081 -0.0223
 7631TIP3    H144384   5.781   2.206   5.152  1.3702 -1.2974 -0.5766
 7631TIP3    H244385   5.837   2.249   5.286 -3.5232  2.4370  0.5346
 7632TIP3   OH244386   4.531   6.001   1.664 -0.6535  0.0918 -0.2758
 7632TIP3    H144387   4.596   6.057   1.623 -0.1140 -0.2863  0.0536
 7632TIP3    H244388   4.523   6.034   1.753  0.5665 -1.0776  0.3068
 7633TIP3   OH244389   0.504   2.908   5.912 -0.1800  0.2504  0.4610
 7633TIP3    H144390   0.523   2.964   5.988  1.5535  2.0118 -1.1341
 7633TIP3    H244391   0.589   2.900   5.867 -1.1558 -0.6714 -1.3203
 7634TIP3   OH244392   3.721   4.610   3.570  0.1370 -0.0320  0.6833
 7634TIP3    H144393   3.662   4.588   3.642 -0.5589  0.6161  0.3282
 7634TIP3    H244394   3.662   4.632   3.497  0.8140  0.5415  0.2939
 7635TIP3   OH244395   2.146   5.329   1.842  0.3527 -0.6430 -0.1107
 7635TIP3    H144396   2.214   5.396   1.831 -0.4384  0.3293  0.7728
 7635TIP3    H244397   2.160   5.294   1.930 -0.7404  0.1149  0.3882
 7636TIP3   OH244398   0.231   6.697   4.536 -0.5381 -0.4135 -0.0247
 7636TIP3    H144399   0.216   6.769   4.597  1.0611 -0.8172  0.9019
 7636TIP3    H244400   0.308   6.724   4.486  0.8114 -1.9296  1.1351
 7637TIP3   OH244401   3.088   2.988  13.464  0.1914  0.1237  0.4982
 7637TIP3    H144402   3.101   2.894  13.480  1.0369  0.2674  0.6609
 7637TIP3    H244403   2.995   3.001  13.481 -0.1541 -0.8648 -0.4482
 7638TIP3   OH244404   3.981   5.683   0.553  0.0520 -0.2327 -0.0178
 7638TIP3    H144405   3.905   5.732   0.583 -0.4127 -1.0773  0.1984
 7638TIP3    H244406   3.977   5.600   0.600 -0.5479 -1.4900 -2.1748
 7639TIP3   OH244407   2.279   0.935   2.713  0.3728  0.2106 -0.0217
 7639TIP3    H144408   2.191   0.972   2.720  1.2424  2.2205  1.0439
 7639TIP3    H244409   2.274   0.875   2.638 -1.5521  1.2768 -0.8060
 7640TIP3   OH244410   4.675   4.918  10.374  0.1067  0.6213  0.2293
 7640TIP3    H144411   4.748   4.959  10.327  0.5187 -0.9683 -0.6079
 7640TIP3    H244412   4.715   4.880  10.452 -0.4228  2.4708  1.4649
 7641TIP3   OH244413   4.396   4.450   5.808  0.1687  0.3571  0.0555
 7641TIP3    H144414   4.315   4.413   5.774 -0.9517  0.2391  2.6327
 7641TIP3    H244415   4.411   4.528   5.754 -1.5076  0.2174 -0.6769
 7642TIP3   OH244416   0.333   4.272  13.900  0.2748 -0.3475 -0.1863
 7642TIP3    H144417   0.344   4.366  13.888 -2.3322  0.2069  0.9649
 7642TIP3    H244418   0.393   4.250  13.972  0.4659  0.5772 -0.0519
 7643TIP3   OH244419   0.184   2.223  14.059 -0.3073  0.9030  0.4573
 7643TIP3    H144420   0.151   2.307  14.089  1.1234  1.4672  0.5573
 7643TIP3    H244421   0.277   2.225  14.082  0.0268 -0.1619 -0.7091
 7644TIP3   OH244422   5.095   3.577  13.528 -0.3582 -0.2502 -0.7687
 7644TIP3    H144423   5.147   3.552  13.605 -0.6681  0.5393 -0.2849
 7644TIP3    H244424   5.007   3.594  13.564 -0.6208 -0.3107 -1.3727
 7645TIP3   OH244425   4.249   0.958  14.098  0.7353  0.6374 -0.4929
 7645TIP3    H144426   4.237   1.009  14.179  1.8975 -0.4504  0.4129
 7645TIP3    H244427   4.174   0.899  14.097  0.4998  0.9302 -0.4266
 7646TIP3   OH244428   4.634   4.986  12.044 -0.2884 -0.0078 -0.0093
 7646TIP3    H144429   4.588   4.993  12.128  0.3178  0.1130  0.3214
 7646TIP3    H244430   4.571   4.944  11.986 -0.0068 -2.0154  1.0628
 7647TIP3   OH244431   0.103   5.831  12.687  0.4112 -0.1653  0.3910
 7647TIP3    H144432   0.032   5.855  12.746  1.2766  0.0121  1.3800
 7647TIP3    H244433   0.181   5.872  12.724  0.8751  0.5539 -1.2589
 7648TIP3   OH244434   2.166   5.398  13.480  0.1425  0.2668 -0.6621
 7648TIP3    H144435   2.093   5.364  13.531  1.4050 -1.4366  0.1316
 7648TIP3    H244436   2.143   5.378  13.389 -0.9036  0.8551 -0.5401
 7649TIP3   OH244437   1.505   0.860   4.826 -0.0685 -0.1545 -0.0080
 7649TIP3    H144438   1.523   0.930   4.888 -0.3939  0.1070 -0.2085
 7649TIP3    H244439   1.461   0.903   4.753 -0.1471 -0.5448 -0.1918
 7650TIP3   OH244440   1.433   1.929   0.628  0.4538 -0.8009  0.4038
 7650TIP3    H144441   1.382   1.849   0.610  0.0752 -0.3384 -0.6631
 7650TIP3    H244442   1.507   1.924   0.568  0.2615 -0.2092  0.1058
 7651TIP3   OH244443   5.953   5.238   1.089  0.0975 -0.3138 -0.1929
 7651TIP3    H144444   6.001   5.155   1.086 -0.6803 -0.7904  0.3110
 7651TIP3    H244445   5.862   5.214   1.075 -0.1950  0.3972  0.3972
 7652TIP3   OH244446   1.849   1.709   5.744  0.1681 -0.0199  0.3255
 7652TIP3    H144447   1.900   1.753   5.813 -1.9150  0.8326  1.4183
 7652TIP3    H244448   1.766   1.687   5.787 -0.9852  0.0259 -1.7854
 7653TIP3   OH244449   3.878   3.882   1.119  0.2000  0.3207  0.4352
 7653TIP3    H144450   3.953   3.923   1.076  0.5121  0.5733  1.2019
 7653TIP3    H244451   3.884   3.910   1.211 -0.7213  0.1885  0.5522
 7654TIP3   OH244452   1.317   3.229  16.501  0.3843 -0.4312 -0.1235
 7654TIP3    H144453   1.288   3.321  16.508  2.0704  0.3322 -2.1936
 7654TIP3    H244454   1.295   3.204  16.412  2.4336 -1.0811 -0.4995
 7655TIP3   OH244455   3.637   6.030   1.436  0.1703 -0.0847 -0.0963
 7655TIP3    H144456   3.623   5.978   1.515 -1.2392  0.1501 -0.1606
 7655TIP3    H244457   3.578   5.991   1.371 -0.0633  0.8661 -0.4739
 7656TIP3   OH244458   2.905   5.242   6.645 -0.0972  0.1635 -0.2998
 7656TIP3    H144459   2.991   5.229   6.604  0.2029 -2.4420  0.9902
 7656TIP3    H244460   2.873   5.154   6.662 -2.4660  1.1052  0.4796
 7657TIP3   OH244461   2.235   3.588  16.346  0.5737 -0.0369 -0.2955
 7657TIP3    H144462   2.302   3.560  16.284  0.8082  0.3848 -0.2334
 7657TIP3    H244463   2.190   3.660  16.301 -2.0799 -2.4195 -1.7878
 7658TIP3   OH244464   3.049   4.536   5.787 -0.0766 -0.2705 -0.4439
 7658TIP3    H144465   2.954   4.527   5.791 -0.1602  0.8846  1.3089
 7658TIP3    H244466   3.082   4.468   5.846 -0.0236  1.3207  1.4618
 7659TIP3   OH244467   2.815   5.507   4.858 -0.2925  0.6752  0.0348
 7659TIP3    H144468   2.721   5.489   4.856 -0.4496  1.4828 -1.0573
 7659TIP3    H244469   2.829   5.554   4.940 -0.4200 -1.4546  1.3361
 7660TIP3   OH244470   2.618   0.611  16.340 -0.0968 -0.6722 -0.4165
 7660TIP3    H144471   2.523   0.612  16.343 -0.0788 -0.5320  0.3378
 7660TIP3    H244472   2.645   0.669  16.411  0.5551 -2.1148  0.5574
 7661TIP3   OH244473   4.692   4.172  11.918  0.4359  0.0608  0.3409
 7661TIP3    H144474   4.633   4.182  11.993  0.3914 -0.9620  0.4575
 7661TIP3    H244475   4.697   4.260  11.879 -0.9024  0.2366  0.5264
 7662TIP3   OH244476   4.631   2.940  11.991 -0.0011  0.6128 -0.2156
 7662TIP3    H144477   4.710   2.944  11.936 -0.9460 -0.8144 -1.7921
 7662TIP3    H244478   4.648   2.868  12.052  0.4440  1.1873  0.3393
 7663TIP3   OH244479   0.692   4.090  13.828  0.4164  0.5358 -0.2865
 7663TIP3    H144480   0.682   3.995  13.832  2.4732  0.3199  2.3323
 7663TIP3    H244481   0.731   4.106  13.741  2.2066 -1.3298  0.0874
 7664TIP3   OH244482   6.281   2.486   5.181  0.6256 -0.0972  0.5037
 7664TIP3    H144483   6.277   2.395   5.153  0.5693  0.4766 -1.5481
 7664TIP3    H244484   6.196   2.523   5.157  1.1170  0.7980  0.0717
 7665TIP3   OH244485   4.551   6.744   5.691 -0.5355 -0.2164 -0.1623
 7665TIP3    H144486   4.545   6.661   5.644 -0.4439 -0.5589  0.4108
 7665TIP3    H244487   4.573   6.718   5.781 -1.2153  0.3884  0.1878
 7666TIP3   OH244488   0.642   3.569   1.615 -0.3795 -0.0785  0.3815
 7666TIP3    H144489   0.725   3.576   1.664 -0.0715  0.4289 -0.1984
 7666TIP3    H244490   0.620   3.659   1.593  1.2166 -0.4036 -3.2332
 7667TIP3   OH244491   5.176   1.326  14.284  0.5573  0.3278  0.2620
 7667TIP3    H144492   5.214   1.396  14.338 -0.0616 -1.0455  2.6329
 7667TIP3    H244493   5.150   1.259  14.347  1.0000 -2.0095 -1.8929
 7668TIP3   OH244494   0.650   5.508   5.029 -0.3990 -0.4916  0.1320
 7668TIP3    H144495   0.600   5.495   4.948  0.1020  2.2895 -0.7555
 7668TIP3    H244496   0.730   5.554   5.000 -1.2431  2.6866  2.3349
 7669TIP3   OH244497   5.413   1.803  13.616 -0.4278  0.3181 -0.0534
 7669TIP3    H144498   5.416   1.891  13.655 -0.5109  0.1573  0.3199
 7669TIP3    H244499   5.504   1.784  13.592 -0.5449  0.8936 -1.0247
 7670TIP3   OH244500   2.023   2.816   5.807 -0.0077  0.0883 -0.5222
 7670TIP3    H144501   2.099   2.864   5.838 -0.1034  1.6143 -2.4471
 7670TIP3    H244502   1.987   2.774   5.885  0.4982  2.5760  1.1504
 7671TIP3   OH244503   6.507   3.889  13.772 -0.4265  0.0246  0.5429
 7671TIP3    H144504   6.592   3.932  13.774  1.6013 -3.5162 -0.4913
 7671TIP3    H244505   6.482   3.890  13.679 -0.6166 -0.4510  0.5827
 7672TIP3   OH244506   6.362   4.079   3.586  1.1044  0.1026 -0.1552
 7672TIP3    H144507   6.361   4.070   3.491  0.0627  0.2654 -0.1777
 7672TIP3    H244508   6.423   4.151   3.602 -1.5720  2.8213 -1.0384
 7673TIP3   OH244509   0.238   3.683   4.953 -0.1718  0.4673  0.7623
 7673TIP3    H144510   0.277   3.713   4.871 -1.7354  1.7232  0.4275
 7673TIP3    H244511   0.144   3.680   4.935 -0.4162 -0.8188  2.0319
 7674TIP3   OH244512   4.543   2.935   3.213  0.2623  0.7478 -0.3200
 7674TIP3    H144513   4.611   2.975   3.267  1.4487  0.6735 -1.6925
 7674TIP3    H244514   4.588   2.914   3.131 -0.7996 -1.5710 -0.3874
 7675TIP3   OH244515   3.953   5.047  11.889 -0.6170 -0.3901  0.0011
 7675TIP3    H144516   3.864   5.065  11.920  0.2800  0.8306  2.0901
 7675TIP3    H244517   3.956   4.951  11.881 -2.3450 -0.4199 -1.0166
 7676TIP3   OH244518   0.927   3.386  12.685 -0.2842 -0.3535 -0.3363
 7676TIP3    H144519   0.845   3.354  12.648  0.4734 -2.1914 -0.5600
 7676TIP3    H244520   0.969   3.433  12.613 -1.0847  0.5451 -0.2375
 7677TIP3   OH244521   2.225   0.799   1.389  0.0544  0.3237 -0.5391
 7677TIP3    H144522   2.165   0.873   1.397 -0.3323 -0.0830  0.4649
 7677TIP3    H244523   2.201   0.757   1.306  0.2914  1.3203 -1.1312
 7678TIP3   OH244524   1.732   2.808   0.295 -0.1154 -0.8147 -0.2507
 7678TIP3    H144525   1.670   2.872   0.259  0.1742 -0.2390  0.2551
 7678TIP3    H244526   1.698   2.723   0.267  0.5407 -0.3825 -2.5732
 7679TIP3   OH244527   2.340   5.764  11.921  0.9746 -0.3608 -0.1185
 7679TIP3    H144528   2.343   5.670  11.900  1.0028 -0.3246 -0.2797
 7679TIP3    H244529   2.307   5.767  12.010  4.2992 -0.7175  1.2846
 7680TIP3   OH244530   6.136   5.513  17.003 -0.2103  0.2226  0.3059
 7680TIP3    H144531   6.184   5.575  16.947  0.7355 -0.1410  0.6945
 7680TIP3    H244532   6.164   5.427  16.972 -1.4217 -0.0321 -0.1439
 7681TIP3   OH244533   3.204   0.943   1.638  0.1562 -0.2688 -0.1428
 7681TIP3    H144534   3.155   0.865   1.660  2.0511 -1.8246 -1.1358
 7681TIP3    H244535   3.170   0.970   1.553  0.7032 -1.1257 -0.6524
 7682TIP3   OH244536   2.954   5.062  13.676 -0.1335 -0.3475  0.2023
 7682TIP3    H144537   2.875   5.087  13.724 -0.2632 -0.2229 -0.0756
 7682TIP3    H244538   2.957   4.966  13.682 -0.3346 -0.3553  0.1608
 7683TIP3   OH244539   2.715   3.360  11.477 -0.4675 -0.8404 -1.0387
 7683TIP3    H144540   2.706   3.367  11.382 -3.1894 -0.3708 -0.8282
 7683TIP3    H244541   2.642   3.305  11.504  0.4224 -1.2094  0.7894
 7684TIP3   OH244542   2.647   5.519  12.236  0.8395  0.2127  0.2422
 7684TIP3    H144543   2.572   5.468  12.204  0.4446 -0.6217  2.3565
 7684TIP3    H244544   2.716   5.454  12.249  1.4164  0.7402 -0.1452
 7685TIP3   OH244545   1.859   0.359   1.360 -0.2779  0.3228  0.3619
 7685TIP3    H144546   1.899   0.374   1.274  1.9472  1.7327  1.5246
 7685TIP3    H244547   1.771   0.327   1.341  0.2660  0.2341 -2.4203
 7686TIP3   OH244548   5.482   2.336   1.903  0.6515 -0.7062 -0.0091
 7686TIP3    H144549   5.444   2.399   1.842 -0.2295 -1.7826 -0.6059
 7686TIP3    H244550   5.566   2.374   1.928  0.1352  0.6986 -0.3381
 7687TIP3   OH244551   2.708   4.345   6.714 -0.1618  0.7161 -0.4768
 7687TIP3    H144552   2.786   4.352   6.769 -0.2262  0.6210 -0.3743
 7687TIP3    H244553   2.647   4.292   6.765 -0.5855  1.4257 -0.2323
 7688TIP3   OH244554   5.585   4.941  13.505 -0.3274  0.7467 -0.0662
 7688TIP3    H144555   5.501   4.906  13.477 -0.7093  1.8480 -0.3318
 7688TIP3    H244556   5.649   4.878  13.474 -0.8982  0.9256 -1.6855
 7689TIP3   OH244557   6.671   1.836  12.495 -0.4634 -0.4972 -0.0857
 7689TIP3    H144558   6.717   1.774  12.438 -1.3806  0.7177 -2.2537
 7689TIP3    H244559   6.685   1.801  12.584  1.4895 -2.1627 -0.9555
 7690TIP3   OH244560   5.637   5.786  16.763  0.4008 -0.5865  0.3701
 7690TIP3    H144561   5.564   5.848  16.770  1.7241  0.9814  1.0128
 7690TIP3    H244562   5.649   5.773  16.669  0.3405  0.4837  0.2015
 7691TIP3   OH244563   2.986   3.627  13.726 -0.1484  0.2798  0.2848
 7691TIP3    H144564   2.941   3.681  13.792  0.5586  0.4864  0.6035
 7691TIP3    H244565   2.925   3.625  13.652 -0.8153  0.3102  0.8174
 7692TIP3   OH244566   3.812   4.395   3.316  0.2328  0.0835 -0.6246
 7692TIP3    H144567   3.818   4.489   3.335 -1.9431 -0.4689  4.5964
 7692TIP3    H244568   3.897   4.359   3.341  0.7890  0.5217 -1.8359
 7693TIP3   OH244569   4.960   0.552   0.881 -0.0548  0.1897 -0.0489
 7693TIP3    H144570   4.866   0.546   0.867 -0.5277 -1.1478  2.8310
 7693TIP3    H244571   4.975   0.643   0.905 -1.0809 -0.0307  1.6264
 7694TIP3   OH244572   5.234   6.509   1.897  0.3196 -0.1692  0.0010
 7694TIP3    H144573   5.189   6.593   1.905 -0.9664 -0.9474  1.5346
 7694TIP3    H244574   5.204   6.473   1.814 -1.0749 -0.1936  0.4992
 7695TIP3   OH244575   4.396   4.243   6.742 -0.5682  0.2191  0.2942
 7695TIP3    H144576   4.444   4.324   6.759 -0.6714  0.3812 -0.1468
 7695TIP3    H244577   4.458   4.173   6.761 -1.0628  0.3236  2.5335
 7696TIP3   OH244578   0.152   0.811  15.277  0.2087 -0.5009  0.0534
 7696TIP3    H144579   0.165   0.888  15.222 -3.4275  0.6928  0.5771
 7696TIP3    H244580   0.194   0.834  15.360  0.1376  0.4324 -0.1605
 7697TIP3   OH244581   2.294   2.638  10.940  0.0832  0.6829  0.5587
 7697TIP3    H144582   2.346   2.603  11.013  0.6182  1.4005  0.5310
 7697TIP3    H244583   2.272   2.727  10.967 -0.7434  0.5494  0.3554
 7698TIP3   OH244584   0.562   2.857   2.194  0.4939  0.7401  0.1966
 7698TIP3    H144585   0.552   2.832   2.286  0.4901  1.9418  0.5483
 7698TIP3    H244586   0.475   2.890   2.169  0.6037  0.7960 -0.1077
 7699TIP3   OH244587   3.500   2.393  15.527  0.5229 -0.0819 -0.0670
 7699TIP3    H144588   3.434   2.459  15.504 -0.0128 -0.6927 -0.3108
 7699TIP3    H244589   3.533   2.362  15.443  1.6157  0.6950  0.0622
 7700TIP3   OH244590   1.768   0.841   2.646  0.7064  0.2011 -0.6933
 7700TIP3    H144591   1.715   0.919   2.666  1.2585  0.5955 -0.7469
 7700TIP3    H244592   1.832   0.837   2.717 -1.1142 -1.9065  1.0010
 7701TIP3   OH244593   0.547   1.479  13.835 -0.3597 -0.2550 -0.0168
 7701TIP3    H144594   0.487   1.415  13.874 -1.4174  0.3419 -0.6098
 7701TIP3    H244595   0.516   1.563  13.868  0.0436  0.0807 -0.4857
 7702TIP3   OH244596   2.705   3.702   4.155 -0.0053  0.5224 -0.6170
 7702TIP3    H144597   2.799   3.703   4.171 -0.0801 -2.2215  0.6407
 7702TIP3    H244598   2.696   3.686   4.061  0.7411  2.0429 -0.9635
 7703TIP3   OH244599   0.390   2.506  10.696 -0.8039 -0.2327 -0.2154
 7703TIP3    H144600   0.365   2.414  10.711 -0.0850 -0.6027 -1.1761
 7703TIP3    H244601   0.336   2.534  10.623 -0.3544 -0.1893 -0.5339
 7704TIP3   OH244602   6.004   1.246  15.354  0.1122 -0.1511 -0.8236
 7704TIP3    H144603   6.030   1.337  15.364 -1.8285  0.2572  1.7756
 7704TIP3    H244604   5.913   1.250  15.325 -0.7800 -1.0837  1.5589
 7705TIP3   OH244605   3.175   5.359  15.441 -0.5945 -0.0446  0.6804
 7705TIP3    H144606   3.195   5.309  15.520 -1.1073  0.7321  1.3220
 7705TIP3    H244607   3.247   5.340  15.381 -0.5599 -1.1978  1.0674
 7706TIP3   OH244608   2.833   2.562  13.913  0.0535 -0.5177 -0.1465
 7706TIP3    H144609   2.807   2.497  13.848  1.5990  0.0136 -1.3598
 7706TIP3    H244610   2.877   2.630  13.862  0.9592  0.1179  1.4220
 7707TIP3   OH244611   4.099   2.332   6.313 -0.8043  0.2800 -0.1685
 7707TIP3    H144612   4.048   2.252   6.304 -1.4534  0.4207  1.7841
 7707TIP3    H244613   4.122   2.356   6.223 -1.6584 -1.3923 -0.8803
 7708TIP3   OH244614   2.093   0.997  15.214 -0.0506 -0.0541  0.3036
 7708TIP3    H144615   2.002   1.011  15.242 -0.3517 -1.0176 -0.1847
 7708TIP3    H244616   2.136   1.080  15.236 -1.1716  0.6417 -0.0096
 7709TIP3   OH244617   5.149   0.674  16.050 -0.1433  0.4456  0.7321
 7709TIP3    H144618   5.085   0.706  15.986  0.9642  1.8354  0.2668
 7709TIP3    H244619   5.095   0.643  16.124 -1.3794  0.4587 -0.1262
 7710TIP3   OH244620   6.697   1.145  16.374 -0.1135 -0.3999  0.0341
 7710TIP3    H144621   6.671   1.115  16.461 -0.1206  0.9173  0.5137
 7710TIP3    H244622   6.649   1.088  16.314  0.3649 -1.7269  0.8779
 7711TIP3   OH244623   3.177   4.718   1.999 -0.0848 -0.0515  0.4654
 7711TIP3    H144624   3.115   4.737   1.928  1.5363  0.9433 -0.7477
 7711TIP3    H244625   3.121   4.694   2.073 -2.0223  2.5629  0.0018
 7712TIP3   OH244626   1.674   0.359   1.110  0.4746  0.1002  0.5302
 7712TIP3    H144627   1.579   0.374   1.112  0.4315 -0.0350 -0.0729
 7712TIP3    H244628   1.683   0.271   1.073  0.8762  0.9251 -1.5250
 7713TIP3   OH244629   5.275   5.193   4.612 -0.4937 -0.0037 -0.5100
 7713TIP3    H144630   5.341   5.209   4.544  0.9583  3.0776  1.3967
 7713TIP3    H244631   5.192   5.206   4.568  0.4069  1.7925 -1.8335
 7714TIP3   OH244632   2.104   3.326  15.433 -0.1132 -0.0819  0.2789
 7714TIP3    H144633   2.055   3.318  15.352 -0.7905  0.6290  0.6036
 7714TIP3    H244634   2.196   3.327  15.406 -0.3022 -0.4996 -0.4115
 7715TIP3   OH244635   3.198   4.518  16.279 -0.1768  0.0554  0.1003
 7715TIP3    H144636   3.139   4.592  16.267 -1.9143 -1.3577 -0.3264
 7715TIP3    H244637   3.271   4.536  16.219 -2.6442 -0.6408 -3.3835
 7716TIP3   OH244638   0.515   5.789  13.052  0.4041  0.7824 -0.1747
 7716TIP3    H144639   0.478   5.702  13.061  1.6390  0.2025 -0.5795
 7716TIP3    H244640   0.458   5.845  13.105 -0.9227 -0.1041 -0.6237
 7717TIP3   OH244641   6.092   4.192  11.878 -0.4710 -0.4527  0.1332
 7717TIP3    H144642   6.024   4.196  11.810 -2.0252 -0.9317  1.5915
 7717TIP3    H244643   6.166   4.240  11.841 -1.6538  0.2152 -1.4701
 7718TIP3   OH244644   6.610   2.246  12.539 -0.1994 -0.3732  0.0991
 7718TIP3    H144645   6.533   2.213  12.585 -0.0361  0.0976  0.7297
 7718TIP3    H244646   6.611   2.340  12.558  0.5425 -0.3800  0.1231
 7719TIP3   OH244647   6.075   2.974   0.062 -0.0870  0.6518  0.7126
 7719TIP3    H144648   6.126   2.894   0.070  0.4225  0.4399 -3.0760
 7719TIP3    H244649   6.119   3.037   0.119  0.9496 -1.0604  1.8808
 7720TIP3   OH244650   0.451   4.338   2.515  0.2526  0.0249  0.4941
 7720TIP3    H144651   0.399   4.397   2.460 -0.1887  0.5493  1.4537
 7720TIP3    H244652   0.416   4.251   2.495  0.7299  0.0852 -0.7319
 7721TIP3   OH244653   0.604   0.422   4.663 -0.6720  0.3169 -0.7098
 7721TIP3    H144654   0.655   0.363   4.718  1.8430  1.0429 -2.0903
 7721TIP3    H244655   0.513   0.393   4.673  0.0953 -1.6843  1.1252
 7722TIP3   OH244656   3.570   3.102   0.031 -0.7797  0.0076 -0.2203
 7722TIP3    H144657   3.497   3.164   0.022 -0.2216  0.3945 -3.8244
 7722TIP3    H244658   3.648   3.157   0.024 -0.1906 -0.7038  0.6354
 7723TIP3   OH244659   0.011   5.846  15.229 -0.2824 -0.0552 -0.0066
 7723TIP3    H144660   0.007   5.753  15.251  1.0763 -0.0887  0.1804
 7723TIP3    H244661   0.060   5.886  15.302  0.4503  0.5415 -0.7993
 7724TIP3   OH244662   2.442   2.069   6.677 -0.4749 -0.0878  0.1370
 7724TIP3    H144663   2.475   1.982   6.654 -1.0693  0.1473 -1.7689
 7724TIP3    H244664   2.520   2.124   6.681 -0.1485 -0.5885  0.8298
 7725TIP3   OH244665   0.310   4.151   4.505 -0.0354 -0.5199 -0.1827
 7725TIP3    H144666   0.251   4.226   4.509 -1.4593 -1.6274  0.4925
 7725TIP3    H244667   0.337   4.136   4.596  1.7343  0.2692 -0.5334
 7726TIP3   OH244668   4.908   4.735   4.304  0.5128  0.2279 -0.2882
 7726TIP3    H144669   4.929   4.653   4.348 -2.3062 -1.5187 -1.9797
 7726TIP3    H244670   4.829   4.767   4.348 -0.5074  0.1002 -1.9595
 7727TIP3   OH244671   5.661   3.950   1.148 -0.0678  0.1863  0.5232
 7727TIP3    H144672   5.668   3.881   1.081  1.5531  0.4484  0.3870
 7727TIP3    H244673   5.647   4.030   1.098 -1.7429  0.0225  0.6723
 7728TIP3   OH244674   3.862   0.991  16.711 -0.3699  0.0982  0.2022
 7728TIP3    H144675   3.916   1.052  16.761 -0.5972  0.3412  0.1549
 7728TIP3    H244676   3.870   1.019  16.620  0.3303 -0.5649  0.0472
 7729TIP3   OH244677   2.977   3.457  14.518 -0.2884 -0.2118 -0.0546
 7729TIP3    H144678   2.974   3.523  14.587 -0.1104 -0.9245  0.6466
 7729TIP3    H244679   3.022   3.383  14.557  2.7088  0.4513 -1.9010
 7730TIP3   OH244680   4.276   3.517   0.043 -0.4867  0.2223 -0.1468
 7730TIP3    H144681   4.328   3.447   0.002  0.3902  0.9044 -0.2352
 7730TIP3    H244682   4.239   3.566  -0.031 -3.2356 -1.6124 -0.1250
 7731TIP3   OH244683   2.838   6.612  10.835  0.0858  0.4789  0.4752
 7731TIP3    H144684   2.906   6.613  10.768  0.2504 -1.7456  0.5263
 7731TIP3    H244685   2.757   6.594  10.788 -0.2714  1.6514  0.5948
 7732TIP3   OH244686   5.296   2.904  11.265 -0.1367 -0.2053  0.0590
 7732TIP3    H144687   5.261   2.957  11.192  0.4247  0.8086  0.5011
 7732TIP3    H244688   5.222   2.852  11.295 -0.6965  0.2996 -0.4299
 7733TIP3   OH244689   0.445   1.317  12.298 -0.3828 -0.1554 -0.1997
 7733TIP3    H144690   0.526   1.270  12.315 -1.0393 -1.9203 -1.6078
 7733TIP3    H244691   0.463   1.369  12.219  0.2789  1.8970  1.2371
 7734TIP3   OH244692   4.918   4.842   6.394 -0.5336  0.7040  0.1007
 7734TIP3    H144693   4.865   4.896   6.452 -1.3162  1.5382 -1.3225
 7734TIP3    H244694   4.870   4.841   6.311  1.1543  0.6190 -0.9297
 7735TIP3   OH244695   3.106   2.468   2.825  0.1023 -0.1370 -0.0810
 7735TIP3    H144696   3.155   2.386   2.833 -0.0019 -0.1502  0.4885
 7735TIP3    H244697   3.174   2.536   2.826  0.2200 -0.2298 -1.0041
 7736TIP3   OH244698   5.013   5.449  13.728 -0.0057 -0.3781 -0.3827
 7736TIP3    H144699   5.004   5.382  13.796 -0.4327  0.6228  0.5672
 7736TIP3    H244700   5.077   5.412  13.667  0.2618 -1.3664  0.4681
 7737TIP3   OH244701   3.725   6.419   6.728  0.4679  0.7979 -0.1299
 7737TIP3    H144702   3.770   6.499   6.701  0.2497  0.7145 -0.7366
 7737TIP3    H244703   3.632   6.437   6.712  0.1627  1.2621  1.8296
 7738TIP3   OH244704   4.567   1.013  16.230  0.0234  0.0420 -0.4642
 7738TIP3    H144705   4.659   1.039  16.218  0.3416  0.1673  1.7362
 7738TIP3    H244706   4.570   0.947  16.300 -1.6946  1.3614  0.9419
 7739TIP3   OH244707   0.994   4.911  15.324  0.0221  0.1404  0.1758
 7739TIP3    H144708   1.050   4.973  15.276 -0.6599  1.0979  0.5753
 7739TIP3    H244709   0.980   4.839  15.263  0.2060  0.7473 -0.6010
 7740TIP3   OH244710   3.729   4.790  13.050  0.3730 -0.0302  0.3242
 7740TIP3    H144711   3.721   4.737  13.129 -1.4337  0.9276  0.8387
 7740TIP3    H244712   3.668   4.750  12.988  0.6548  0.1179 -0.0525
 7741TIP3   OH244713   2.154   6.822   1.301  0.2533 -0.1593 -0.5153
 7741TIP3    H144714   2.073   6.813   1.352  1.3262  0.3497  1.3745
 7741TIP3    H244715   2.220   6.777   1.353  1.7335  1.7812 -0.6019
 7742TIP3   OH244716   1.172   3.106  10.764  0.0832 -0.1496  0.1498
 7742TIP3    H144717   1.100   3.057  10.802  1.4653 -1.3946  1.2870
 7742TIP3    H244718   1.133   3.188  10.734 -1.4903 -0.1064  2.1675
 7743TIP3   OH244719   5.152   0.926   2.223  0.3260  0.2653 -0.0412
 7743TIP3    H144720   5.057   0.922   2.213 -0.0881 -0.9440  3.1750
 7743TIP3    H244721   5.179   0.836   2.242  2.4317  0.2665 -2.4901
 7744TIP3   OH244722   3.110   0.689   5.939 -0.4341  0.0976 -0.1159
 7744TIP3    H144723   3.183   0.729   5.892 -0.9921 -0.0276 -1.1200
 7744TIP3    H244724   3.117   0.724   6.028 -0.9270  2.5365 -0.9542
 7745TIP3   OH244725   5.452   3.103   4.282  0.5355 -0.4106  0.3850
 7745TIP3    H144726   5.530   3.056   4.313 -0.1245 -1.5760  0.3036
 7745TIP3    H244727   5.385   3.036   4.273  0.3235  0.0544 -2.3802
 7746TIP3   OH244728   3.921   1.863  14.353  0.6435 -0.3903 -0.2437
 7746TIP3    H144729   3.856   1.872  14.422 -0.3796 -2.0273 -0.9329
 7746TIP3    H244730   3.930   1.951  14.317  0.8957  0.4102  1.6659
 7747TIP3   OH244731   3.351   0.414  15.454  0.6720 -0.5108 -0.3131
 7747TIP3    H144732   3.290   0.353  15.495  0.3130  0.0871  0.0623
 7747TIP3    H244733   3.387   0.366  15.380  0.9508 -1.4299  0.4054
 7748TIP3   OH244734   5.212   0.159  14.809 -0.4676  0.4385 -0.0494
 7748TIP3    H144735   5.293   0.119  14.839 -0.5329 -1.4370 -2.1226
 7748TIP3    H244736   5.234   0.252  14.797  0.3875  0.6360  2.5060
 7749TIP3   OH244737   0.075   2.301   0.436  0.1831 -0.4551 -0.6600
 7749TIP3    H144738   0.013   2.318   0.364  1.6296 -1.2721 -2.1678
 7749TIP3    H244739   0.125   2.382   0.443  0.3458 -0.5342 -0.8935
 7750TIP3   OH244740   2.408   2.413  16.607  0.3397  0.3595 -0.1433
 7750TIP3    H144741   2.321   2.394  16.644  0.2244  0.4723 -0.3574
 7750TIP3    H244742   2.398   2.497  16.564  0.4743  0.2213 -0.4433
 7751TIP3   OH244743   4.526   5.569   4.131 -0.3965 -0.0517  0.0306
 7751TIP3    H144744   4.591   5.556   4.200  0.7614  0.4670 -0.9501
 7751TIP3    H244745   4.472   5.489   4.135  0.2830 -0.4900  0.8435
 7752TIP3   OH244746   4.421   6.672  16.118 -0.0313 -0.3813  0.1364
 7752TIP3    H144747   4.430   6.765  16.136  1.0692 -0.5566  0.5451
 7752TIP3    H244748   4.455   6.662  16.029 -1.2136 -0.2288 -0.3486
 7753TIP3   OH244749   6.015   0.401   0.158  0.2493  0.1813  0.5018
 7753TIP3    H144750   6.063   0.476   0.192  0.3489 -0.4110  1.7085
 7753TIP3    H244751   5.999   0.422   0.066  1.0869  1.2565  0.5910
 7754TIP3   OH244752   0.461   1.218   5.470  0.2861  0.1815  0.1649
 7754TIP3    H144753   0.556   1.223   5.483  0.1308 -0.5230  1.8218
 7754TIP3    H244754   0.423   1.253   5.551 -0.8234 -1.8897  0.6323
 7755TIP3   OH244755   0.992   3.690  13.680 -0.5958 -0.3522  0.1492
 7755TIP3    H144756   1.076   3.646  13.694  0.5098  1.2474 -1.0317
 7755TIP3    H244757   0.953   3.643  13.606  0.9182  0.9749 -1.5960
 7756TIP3   OH244758   1.629   1.913   1.812  0.4047  0.7414  0.4211
 7756TIP3    H144759   1.624   1.855   1.887 -1.2231  0.5312  0.1880
 7756TIP3    H244760   1.700   1.878   1.758  0.7281  0.1403  1.2326
 7757TIP3   OH244761   4.898   5.069  16.443  0.1651 -0.0281  0.1578
 7757TIP3    H144762   4.977   5.029  16.405  1.1386 -1.1199  3.0880
 7757TIP3    H244763   4.827   5.040  16.385  1.4397 -2.2306 -0.4495
 7758TIP3   OH244764   2.683   2.472  16.768 -0.3493  0.2722 -0.2257
 7758TIP3    H144765   2.618   2.427  16.822  0.4505 -0.7279 -0.0784
 7758TIP3    H244766   2.661   2.565  16.777 -1.0659  0.0279  0.7060
 7759TIP3   OH244767   5.150   1.450   5.741 -0.0708 -0.1730  0.2550
 7759TIP3    H144768   5.069   1.400   5.754 -0.5911 -0.5205 -3.2345
 7759TIP3    H244769   5.124   1.541   5.758 -0.0485 -0.6198  3.1194
 7760TIP3   OH244770   2.644   0.281  16.175  0.3547 -0.3538 -0.0627
 7760TIP3    H144771   2.725   0.248  16.136  1.6805  0.0501  2.1859
 7760TIP3    H244772   2.672   0.327  16.254 -2.1191 -0.5831  1.0408
 7761TIP3   OH244773   0.262   1.801   4.872  0.7680  0.3286 -0.1711
 7761TIP3    H144774   0.239   1.740   4.801 -0.5094  0.0508  0.4430
 7761TIP3    H244775   0.355   1.819   4.859  0.6358  0.0306 -1.7180
 7762TIP3   OH244776   6.207   0.203  12.354  0.0274  0.2696 -0.2645
 7762TIP3    H144777   6.270   0.140  12.388 -1.1458 -0.6515  0.2856
 7762TIP3    H244778   6.260   0.273  12.317  1.4106 -1.5705 -1.9443
 7763TIP3   OH244779   0.161   4.742  13.988 -0.1675 -0.1434 -0.1821
 7763TIP3    H144780   0.227   4.697  13.934 -1.0851 -3.0927  0.9597
 7763TIP3    H244781   0.094   4.769  13.925  0.5982  0.0149 -0.9585
 7764TIP3   OH244782   5.825   2.650   3.091 -0.0136 -0.0758  0.3737
 7764TIP3    H144783   5.813   2.745   3.083 -0.2294 -0.1483 -0.2712
 7764TIP3    H244784   5.831   2.634   3.185  1.7640  0.7754  0.4427
 7765TIP3   OH244785   4.225   3.907   5.381  0.4871 -0.4396 -0.0853
 7765TIP3    H144786   4.167   3.872   5.313  0.9414 -0.8898 -0.2488
 7765TIP3    H244787   4.177   3.980   5.419  1.1048  1.2105 -2.3320
 7766TIP3   OH244788   4.229   2.296   5.819 -0.6590  0.2370 -0.2482
 7766TIP3    H144789   4.293   2.311   5.749  0.9919 -0.5282  1.0157
 7766TIP3    H244790   4.222   2.200   5.824  0.4536  0.2130  1.6136
 7767TIP3   OH244791   1.413   6.008  15.581 -0.0326  0.1635  0.4368
 7767TIP3    H144792   1.418   5.978  15.490 -1.5306  1.0021  0.0439
 7767TIP3    H244793   1.359   5.942  15.625  0.5301 -0.1383  0.6923
 7768TIP3   OH244794   5.247   0.117  15.466 -0.4844  0.1403  0.2022
 7768TIP3    H144795   5.309   0.184  15.436 -0.9291  0.0766 -0.8954
 7768TIP3    H244796   5.207   0.083  15.386 -0.5783 -1.1517  0.7682
 7769TIP3   OH244797   4.999   5.610  14.558  0.0476 -0.1383 -0.5218
 7769TIP3    H144798   4.917   5.561  14.555 -0.4970  0.7589 -0.8849
 7769TIP3    H244799   5.064   5.548  14.591 -0.9301 -0.6515  0.4638
 7770TIP3   OH244800   0.242   1.820   1.830  0.0235 -0.1688 -0.0070
 7770TIP3    H144801   0.186   1.760   1.880  0.2051  0.4859  0.9987
 7770TIP3    H244802   0.323   1.771   1.817  0.7908  0.4127  2.2285
 7771TIP3   OH244803   6.411   2.580   1.721  0.1569  0.0734 -0.1967
 7771TIP3    H144804   6.444   2.516   1.658  0.3113 -0.0129 -0.0300
 7771TIP3    H244805   6.443   2.549   1.806 -1.6851 -0.8822  0.1822
 7772TIP3   OH244806   0.931   4.577   3.775  0.2312  0.6219  0.4044
 7772TIP3    H144807   0.862   4.632   3.738 -0.9172 -1.4930 -0.7909
 7772TIP3    H244808   0.899   4.554   3.862 -0.0487  0.5780  0.2913
 7773TIP3   OH244809   2.930   4.646  14.143 -0.2778  0.3255  0.4786
 7773TIP3    H144810   2.988   4.711  14.182  0.0026 -0.2436  1.0292
 7773TIP3    H244811   2.960   4.562  14.179  0.1854 -0.2592 -1.2182
 7774TIP3   OH244812   4.193   1.417   2.711 -0.0835 -0.1304  0.1499
 7774TIP3    H144813   4.261   1.365   2.668  0.4905 -0.6777  1.6649
 7774TIP3    H244814   4.114   1.363   2.706 -0.3542  0.3552 -1.2964
 7775TIP3   OH244815   1.628   1.804   5.017 -0.3235 -0.3671  0.0968
 7775TIP3    H144816   1.546   1.840   4.984 -0.0871 -0.0197 -0.1140
 7775TIP3    H244817   1.668   1.762   4.941  0.4262  0.8086 -0.1770
 7776TIP3   OH244818   5.394   3.323   3.425 -0.9743 -0.1173 -0.6189
 7776TIP3    H144819   5.422   3.237   3.455 -1.0998 -0.8161 -2.3786
 7776TIP3    H244820   5.476   3.372   3.414 -0.9946  0.7309  2.2946
 7777TIP3   OH244821   6.531   5.838   4.270  0.4901  0.8429  0.0897
 7777TIP3    H144822   6.562   5.917   4.225  2.7792  0.6840  1.2124
 7777TIP3    H244823   6.482   5.871   4.345  0.4239  1.1760 -0.0972
 7778TIP3   OH244824   1.830   1.783  16.355  0.3967 -0.6156 -0.0464
 7778TIP3    H144825   1.852   1.862  16.405  0.1767  1.2434 -2.6654
 7778TIP3    H244826   1.890   1.784  16.281 -0.6477 -2.0545 -0.9621
 7779TIP3   OH244827   2.822   3.554  13.976 -0.3027  0.5772  0.6230
 7779TIP3    H144828   2.814   3.466  14.014 -0.6776  0.5454  0.4705
 7779TIP3    H244829   2.885   3.599  14.033 -0.1952  0.2481  0.7672
 7780TIP3   OH244830   2.486   2.357  16.941  0.0264  0.1301 -0.7408
 7780TIP3    H144831   2.410   2.410  16.967 -1.6550 -2.3445 -0.2640
 7780TIP3    H244832   2.449   2.287  16.887  2.2487 -0.2239 -1.9421
 7781TIP3   OH244833   0.449   6.329   2.853  0.1396  0.3255  0.3974
 7781TIP3    H144834   0.382   6.271   2.815 -0.6006 -0.6387  2.9538
 7781TIP3    H244835   0.514   6.270   2.890  0.1089  1.1482  1.8190
 7782TIP3   OH244836   1.309   3.440   0.815  0.1943  0.5014  0.3446
 7782TIP3    H144837   1.386   3.496   0.823  1.3455 -0.9007 -0.4454
 7782TIP3    H244838   1.321   3.373   0.882 -1.5717  1.5899  1.8222
 7783TIP3   OH244839   4.005   1.107   0.413 -0.0389  0.0431  0.3165
 7783TIP3    H144840   3.923   1.111   0.463 -0.3722 -0.8900 -0.1512
 7783TIP3    H244841   4.012   1.017   0.384  0.5505  0.3913 -0.6761
 7784TIP3   OH244842   4.922   3.828   0.619 -0.2777 -0.3185  0.5819
 7784TIP3    H144843   4.863   3.754   0.605 -0.8393  0.4492 -1.4389
 7784TIP3    H244844   4.999   3.790   0.662 -1.8282 -1.4876  2.4928
 7785TIP3   OH244845   1.474   0.417  11.512  0.5000 -0.2552  0.2728
 7785TIP3    H144846   1.563   0.380  11.515  0.6313 -0.1118 -1.2182
 7785TIP3    H244847   1.483   0.504  11.551  1.1298 -0.0625 -0.2698
 7786TIP3   OH244848   1.162   4.650   0.055 -0.3684  0.7099  0.0820
 7786TIP3    H144849   1.140   4.605  -0.026 -0.4791  0.1398  0.4189
 7786TIP3    H244850   1.086   4.706   0.073 -1.3699 -0.8250  0.9426
 7787TIP3   OH244851   0.381   1.337   5.698 -0.0888 -0.2976 -0.4029
 7787TIP3    H144852   0.353   1.426   5.678  0.7546  0.2833  0.8354
 7787TIP3    H244853   0.371   1.330   5.793 -0.9849 -1.8440 -0.5664
 7788TIP3   OH244854   6.691   3.096   0.655 -0.0967 -0.4649 -0.3085
 7788TIP3    H144855   6.698   3.192   0.658 -3.5127 -0.0981 -0.3380
 7788TIP3    H244856   6.681   3.076   0.562 -2.3985 -0.4630 -0.1098
 7789TIP3   OH244857   2.228   1.055  12.266  0.4932  0.0453  0.2202
 7789TIP3    H144858   2.181   0.975  12.287  1.0755 -0.3316  0.1253
 7789TIP3    H244859   2.320   1.034  12.282  0.8509  0.1205 -1.4799
 7790TIP3   OH244860   4.617   5.379  12.996  0.1243 -0.7040 -0.2942
 7790TIP3    H144861   4.645   5.469  12.979 -2.0023  0.2560  0.9001
 7790TIP3    H244862   4.567   5.355  12.919  1.4575 -1.2545 -1.0239
 7791TIP3   OH244863   3.468   3.378  13.378  1.2030 -0.6811  0.1853
 7791TIP3    H144864   3.400   3.311  13.370 -0.6179  1.0568  0.1911
 7791TIP3    H244865   3.445   3.426  13.458  2.3620  0.0516  0.1005
 7792TIP3   OH244866   3.181   3.138   4.858  0.6287 -0.2833  0.2128
 7792TIP3    H144867   3.247   3.087   4.811  2.2315  2.6077 -0.9272
 7792TIP3    H244868   3.228   3.215   4.890 -1.7702  0.8768  1.2582
 7793TIP3   OH244869   5.379   5.579   4.962 -0.4969  0.4039 -0.1315
 7793TIP3    H144870   5.321   5.573   4.886  0.6047 -2.7667 -0.8729
 7793TIP3    H244871   5.436   5.653   4.944 -2.6028  2.0189 -0.5628
 7794TIP3   OH244872   3.131   5.063  11.585  0.2263  0.1568 -0.0543
 7794TIP3    H144873   3.089   5.110  11.657  1.8121  1.2955  0.1735
 7794TIP3    H244874   3.083   4.980  11.579 -1.6368  1.1262  0.5661
 7795TIP3   OH244875   6.107   6.599   1.643 -0.4091 -0.5651  0.3373
 7795TIP3    H144876   6.058   6.535   1.695 -2.0930  1.6785  1.6432
 7795TIP3    H244877   6.046   6.670   1.628  2.0515  1.8432  0.9686
 7796TIP3   OH244878   1.828   3.610  16.643 -0.1198 -0.0233 -0.2352
 7796TIP3    H144879   1.881   3.686  16.619  1.4791 -0.9236  0.2869
 7796TIP3    H244880   1.781   3.637  16.722  0.7531  0.3060  0.1850
 7797TIP3   OH244881   3.756   0.951   4.894  0.4869 -0.0023 -0.0090
 7797TIP3    H144882   3.690   1.001   4.846  1.4871  0.3418 -1.0650
 7797TIP3    H244883   3.707   0.878   4.933 -0.5881  0.5003 -0.3858
 7798TIP3   OH244884   0.113   1.776   5.692 -0.1731  0.2386  0.0268
 7798TIP3    H144885   0.132   1.779   5.785 -2.0044  0.0261  0.4533
 7798TIP3    H244886   0.187   1.820   5.650  0.9657 -0.1857  1.5174
 7799TIP3   OH244887   6.173   0.481   3.364 -0.4245  0.0858 -0.6226
 7799TIP3    H144888   6.132   0.396   3.377 -0.6272  0.3952  0.9317
 7799TIP3    H244889   6.101   0.544   3.366 -0.0111  0.5424  1.1837
 7800TIP3   OH244890   2.574   2.449   5.107 -0.4693  0.5308  0.5295
 7800TIP3    H144891   2.485   2.419   5.092 -1.4405  3.1582  0.5180
 7800TIP3    H244892   2.590   2.432   5.200 -0.8786 -0.1532  0.4799
 7801TIP3   OH244893   3.292   4.299   4.381 -0.2200 -0.1493 -0.0920
 7801TIP3    H144894   3.281   4.204   4.377 -1.5636 -0.0045 -0.4654
 7801TIP3    H244895   3.374   4.316   4.335  0.6639 -1.2051  0.9991
 7802TIP3   OH244896   3.016   4.833   3.683 -0.6205 -0.0845 -0.0127
 7802TIP3    H144897   2.997   4.756   3.628 -0.6915  0.7488 -1.1960
 7802TIP3    H244898   2.988   4.807   3.770 -0.0145 -1.6479 -0.2464
 7803TIP3   OH244899   6.052   1.457  11.739  0.4332  0.0501  0.2598
 7803TIP3    H144900   6.087   1.516  11.672  0.6390 -0.5632 -0.1768
 7803TIP3    H244901   5.977   1.414  11.696  1.5296 -1.5433 -0.1624
 7804TIP3   OH244902   6.297   3.428  14.970  0.4339 -1.0540  0.3603
 7804TIP3    H144903   6.321   3.363  14.905  0.0682  0.8046 -1.7520
 7804TIP3    H244904   6.370   3.490  14.972  0.1604 -0.7313  1.2637
 7805TIP3   OH244905   2.609   1.825  13.601  0.2733 -0.8047 -0.0828
 7805TIP3    H144906   2.541   1.881  13.566  1.1846 -0.9743 -2.2671
 7805TIP3    H244907   2.684   1.882  13.613  0.3165 -0.9832  0.5480
 7806TIP3   OH244908   3.726   2.685   1.511  0.0964 -0.1197  0.4721
 7806TIP3    H144909   3.715   2.756   1.574 -0.4998 -0.2032  0.4614
 7806TIP3    H244910   3.683   2.716   1.431 -0.1525 -0.4906  0.4626
 7807TIP3   OH244911   0.112   4.803   3.834  0.0180 -0.1526  0.0718
 7807TIP3    H144912   0.114   4.856   3.755 -2.3723 -0.0229  0.0273
 7807TIP3    H244913   0.160   4.723   3.810 -0.5393 -0.0608 -1.4993
 7808TIP3   OH244914   5.950   2.695  11.700  0.0157 -0.0075  0.1680
 7808TIP3    H144915   5.973   2.785  11.725  1.7579 -0.1887 -0.6462
 7808TIP3    H244916   5.949   2.646  11.782 -2.5600  1.0208  0.8490
 7809TIP3   OH244917   6.115   3.497   3.722  0.1626 -0.1141  0.3801
 7809TIP3    H144918   6.162   3.469   3.801  1.4797  0.7837 -0.0408
 7809TIP3    H244919   6.182   3.541   3.670 -1.3389  2.0005  0.1243
 7810TIP3   OH244920   2.709   5.335  15.243  0.1123 -1.0194 -0.0573
 7810TIP3    H144921   2.689   5.265  15.181  0.6709 -2.0234  0.8537
 7810TIP3    H244922   2.727   5.289  15.326  0.1414  0.2262  0.6520
 7811TIP3   OH244923   6.072   1.489   1.102  0.1769  0.2702 -0.2162
 7811TIP3    H144924   6.044   1.496   1.011  2.1011  0.3260 -0.8401
 7811TIP3    H244925   6.141   1.554   1.112  0.0905  0.1824  1.2520
 7812TIP3   OH244926   3.012   4.014  13.134 -0.5100  0.0386 -0.0340
 7812TIP3    H144927   3.025   3.958  13.210 -2.2393  0.1429  0.3803
 7812TIP3    H244928   3.068   3.976  13.066  0.8212 -0.2271  1.1789
 7813TIP3   OH244929   0.327   6.487  11.938 -0.1026 -0.0612  0.0607
 7813TIP3    H144930   0.311   6.486  12.032  1.2523  2.3186  0.3901
 7813TIP3    H244931   0.268   6.555  11.904  0.8243  0.4752 -0.5006
 7814TIP3   OH244932   2.691   5.430   6.639 -0.2756 -0.0586 -0.1207
 7814TIP3    H144933   2.773   5.383   6.654  0.8744  1.8808  0.0733
 7814TIP3    H244934   2.635   5.405   6.712  0.5252 -0.6243  0.3194
 7815TIP3   OH244935   2.686   4.565   6.490  0.5214  0.4029  0.4287
 7815TIP3    H144936   2.774   4.596   6.472  0.4266  0.4105 -0.0471
 7815TIP3    H244937   2.695   4.506   6.564  1.0732 -0.3589 -0.2338
 7816TIP3   OH244938   0.805   6.692  12.618  0.3063 -0.1258 -0.0097
 7816TIP3    H144939   0.797   6.783  12.590  5.1933  0.5214 -0.1584
 7816TIP3    H244940   0.731   6.678  12.677 -1.5809  3.3226 -1.2639
 7817TIP3   OH244941   6.646   0.079  14.249  0.0604 -0.1022  0.1212
 7817TIP3    H144942   6.664   0.173  14.259 -0.9352  0.4187 -2.1214
 7817TIP3    H244943   6.653   0.065  14.154 -0.6209 -2.1318  0.3457
 7818TIP3   OH244944   5.306   4.555  15.397 -0.0393  0.5827 -0.1942
 7818TIP3    H144945   5.330   4.470  15.360  0.6017  0.9448 -0.6444
 7818TIP3    H244946   5.220   4.574  15.361  0.1352  0.4541 -0.6890
 7819TIP3   OH244947   1.787   2.282  15.502  0.2497  0.0244 -0.4532
 7819TIP3    H144948   1.849   2.212  15.480  2.0365  0.5658  2.3301
 7819TIP3    H244949   1.842   2.361  15.509 -1.3997  1.3454 -1.5656
 7820TIP3   OH244950   5.189   2.357   4.351  0.0648 -0.2749  0.1030
 7820TIP3    H144951   5.281   2.352   4.328 -0.0163  1.9504 -0.9323
 7820TIP3    H244952   5.153   2.425   4.294 -2.6552 -2.3467 -0.8391
 7821TIP3   OH244953   0.831   5.138  16.209  0.4495  0.2811  0.4052
 7821TIP3    H144954   0.871   5.070  16.263  1.2662 -0.3717 -0.9502
 7821TIP3    H244955   0.898   5.158  16.143 -0.1977  1.6175  0.1147
 7822TIP3   OH244956   3.745   2.170   6.387  0.5917  0.1978 -0.0734
 7822TIP3    H144957   3.672   2.206   6.437  1.4701  0.7217  0.8722
 7822TIP3    H244958   3.821   2.181   6.444  1.4870  0.0316 -1.1934
 7823TIP3   OH244959   2.716   0.682  14.270  0.2861 -0.1132 -0.1495
 7823TIP3    H144960   2.803   0.663  14.234 -0.6242  0.4951 -2.9185
 7823TIP3    H244961   2.668   0.600  14.260 -0.0604  0.1413 -0.5808
 7824TIP3   OH244962   4.203   3.931  15.526 -0.5252 -0.0348  0.2068
 7824TIP3    H144963   4.205   4.024  15.548  0.8332  0.0643 -0.2911
 7824TIP3    H244964   4.284   3.915  15.478 -3.1294 -0.2626 -4.7251
 7825TIP3   OH244965   1.524   4.610   3.960  0.1923 -0.3131  0.1608
 7825TIP3    H144966   1.609   4.571   3.941  0.7266  0.1285  1.5149
 7825TIP3    H244967   1.544   4.697   3.995 -0.8529  0.1111 -0.2331
 7826TIP3   OH244968   3.957   6.784  11.984  0.3904 -0.6258  0.1277
 7826TIP3    H144969   3.885   6.844  12.001  0.6548 -0.3998  0.4532
 7826TIP3    H244970   3.922   6.722  11.920 -0.4764 -1.2211  1.1528
 7827TIP3   OH244971   4.201   4.484  15.471  0.5971  0.4265 -0.2000
 7827TIP3    H144972   4.219   4.563  15.522 -0.6035  1.2202 -0.9778
 7827TIP3    H244973   4.236   4.503  15.384  2.0057 -0.6565  0.0923
 7828TIP3   OH244974   0.921   6.250  15.181  0.1448  0.2185  0.2042
 7828TIP3    H144975   0.961   6.229  15.266 -2.4679 -2.0513  1.0276
 7828TIP3    H244976   0.933   6.171  15.129 -1.6049  0.1478 -0.1374
 7829TIP3   OH244977   1.259   6.184  14.308 -0.4596 -0.2034 -0.2972
 7829TIP3    H144978   1.218   6.173  14.395  0.1819 -0.8507 -0.0680
 7829TIP3    H244979   1.193   6.231  14.257 -0.8455  0.2036  0.5458
 7830TIP3   OH244980   6.342   5.552   0.978  0.7430  0.1743 -0.9056
 7830TIP3    H144981   6.436   5.566   0.981  0.3987  3.1314  0.1959
 7830TIP3    H244982   6.329   5.461   1.007  3.2009 -0.0776 -0.4355
 7831TIP3   OH244983   2.233   4.028  16.372  1.0096 -0.4865  0.7083
 7831TIP3    H144984   2.280   3.966  16.427 -1.0622 -0.9158  2.1275
 7831TIP3    H244985   2.162   4.061  16.428 -0.1863  0.3491 -1.1842
 7832TIP3   OH244986   0.313   2.958   5.724  0.1810  0.1081 -0.1712
 7832TIP3    H144987   0.394   2.927   5.765 -0.0126 -0.9209 -0.5209
 7832TIP3    H244988   0.313   2.915   5.638 -0.9183 -0.2203 -0.0164
 7833TIP3   OH244989   3.649   0.729  16.291 -0.3766 -0.1038  1.0708
 7833TIP3    H144990   3.729   0.778  16.273  0.8023 -1.5548  2.0933
 7833TIP3    H244991   3.619   0.699  16.204 -0.8024  1.8413  0.4961
 7834TIP3   OH244992   3.724   2.732   6.496 -0.6193 -0.1392 -0.5053
 7834TIP3    H144993   3.735   2.674   6.421 -2.1557 -0.3605 -0.5794
 7834TIP3    H244994   3.750   2.679   6.571 -0.8713 -0.5287 -0.6900
 7835TIP3   OH244995   3.234   5.222   3.094 -0.2258 -0.3454  0.1412
 7835TIP3    H144996   3.319   5.179   3.093 -0.0859 -0.0746  0.2642
 7835TIP3    H244997   3.185   5.179   3.164 -0.2309 -0.5781 -0.0060
 7836TIP3   OH244998   1.073   2.601  10.327  0.1386 -0.2792 -0.7203
 7836TIP3    H144999   1.098   2.516  10.364 -1.3514 -0.4864 -0.1242
 7836TIP3    H245000   1.048   2.581  10.236 -0.2138 -0.4881 -0.5807
 7837TIP3   OH245001   6.314   2.178   5.170 -0.2097  0.1797 -0.0188
 7837TIP3    H145002   6.398   2.136   5.190  0.2986  1.0553 -0.2697
 7837TIP3    H245003   6.296   2.154   5.079  0.3082  0.8640 -0.3099
 7838TIP3   OH245004   6.273   3.238   4.660 -0.1387 -0.2326 -0.5044
 7838TIP3    H145005   6.190   3.281   4.641 -0.4827 -1.2449 -1.3585
 7838TIP3    H245006   6.310   3.288   4.733 -1.5029  0.2235 -0.1017
 7839TIP3   OH245007   5.652   1.764   5.803  0.2276 -0.0800  0.4321
 7839TIP3    H145008   5.720   1.718   5.851 -0.2461 -1.0500  0.2017
 7839TIP3    H245009   5.685   1.853   5.793 -0.1994  0.5913  3.7182
 7840TIP3   OH245010   0.770   0.049  13.264 -0.1062  0.4615  0.5156
 7840TIP3    H145011   0.727   0.063  13.348  0.6862 -0.4831  1.1112
 7840TIP3    H245012   0.700   0.056  13.199 -1.1603 -0.9185  1.4443
 7841TIP3   OH245013   1.776   5.388   4.502 -0.1262 -0.6209  0.1960
 7841TIP3    H145014   1.831   5.426   4.434 -0.1308 -1.8699 -0.5307
 7841TIP3    H245015   1.818   5.413   4.584 -1.4474  3.0389 -0.0569
 7842TIP3   OH245016   5.810   6.197  16.763  0.0084  0.4884  0.0421
 7842TIP3    H145017   5.867   6.201  16.685  0.2360 -1.3114  0.0876
 7842TIP3    H245018   5.828   6.279  16.809  2.8172 -0.0826  0.1979
 7843TIP3   OH245019   6.546   0.476  14.225  0.0389  0.1102  0.3291
 7843TIP3    H145020   6.458   0.452  14.256 -1.6005  2.2796 -2.1991
 7843TIP3    H245021   6.579   0.537  14.291 -0.7112 -0.0714  0.8837
 7844TIP3   OH245022   4.863   4.502   4.651 -0.5080  0.4715  0.2370
 7844TIP3    H145023   4.948   4.501   4.606  0.3659  0.3177  1.7970
 7844TIP3    H245024   4.800   4.473   4.585  0.8680 -0.8744 -0.5447
 7845TIP3   OH245025   2.645   2.836  13.845 -0.1354 -0.3929 -0.0323
 7845TIP3    H145026   2.722   2.867  13.797 -1.6112  0.9204 -1.6404
 7845TIP3    H245027   2.579   2.903  13.832 -2.2064 -2.3551 -0.3520
 7846TIP3   OH245028   5.563   6.644   4.773 -0.1082  0.1617  0.0518
 7846TIP3    H145029   5.601   6.638   4.860 -0.1635 -0.1766  0.0552
 7846TIP3    H245030   5.491   6.581   4.774  0.3335 -0.3580 -0.4665
 7847TIP3   OH245031   2.995   0.479  16.228 -0.2119  0.0182  0.3977
 7847TIP3    H145032   2.967   0.454  16.140 -0.1273 -0.2086  0.4349
 7847TIP3    H245033   2.954   0.414  16.286 -1.2829  0.8885  0.6459
 7848TIP3   OH245034   0.688   2.263   6.774  0.2948 -0.7368 -0.1782
 7848TIP3    H145035   0.625   2.313   6.826 -1.5278 -2.7438 -0.2671
 7848TIP3    H245036   0.768   2.314   6.776  0.0221 -0.1503  3.7131
 7849TIP3   OH245037   1.096   1.941  15.206  0.2660  0.1067 -0.0249
 7849TIP3    H145038   1.192   1.935  15.201  0.2476  0.3068 -0.7007
 7849TIP3    H245039   1.078   2.035  15.203  0.1079  0.1616  1.5886
 7850TIP3   OH245040   3.990   2.463  11.585 -0.4888 -0.0561  0.6363
 7850TIP3    H145041   3.924   2.469  11.654 -0.5517  1.6781  0.4670
 7850TIP3    H245042   4.073   2.472  11.631 -0.3344 -1.9090  0.8074
 7851TIP3   OH245043   1.021   6.063  11.228 -0.0414 -0.1568  0.4127
 7851TIP3    H145044   1.066   5.986  11.264  0.6481 -0.5607 -1.2390
 7851TIP3    H245045   1.034   6.131  11.295 -0.2294 -1.3000  1.6726
 7852TIP3   OH245046   0.367   0.353   0.855  0.4986  0.0204  0.1749
 7852TIP3    H145047   0.322   0.306   0.785  1.2000  1.7646 -1.5157
 7852TIP3    H245048   0.369   0.444   0.826  1.4039  0.6948  2.1711
 7853TIP3   OH245049   5.440   5.179   4.384 -0.0980  0.0991  0.4558
 7853TIP3    H145050   5.383   5.131   4.324  0.7954 -3.9210  2.4699
 7853TIP3    H245051   5.520   5.195   4.333 -0.6848  0.1589 -0.4792
 7854TIP3   OH245052   3.291   1.985  15.739 -0.1462  0.1307  0.3103
 7854TIP3    H145053   3.292   1.969  15.833  1.0033 -0.7558  0.1689
 7854TIP3    H245054   3.201   1.964  15.712  0.0989 -1.8320  0.8751
 7855TIP3   OH245055   4.327   0.639   1.765 -0.0581  0.4777  0.1964
 7855TIP3    H145056   4.363   0.562   1.810 -0.1140 -0.0550 -0.6507
 7855TIP3    H245057   4.233   0.621   1.760 -0.1204  0.7683  0.3089
 7856TIP3   OH245058   0.110   6.024  12.442 -0.1515  0.5389 -0.6055
 7856TIP3    H145059   0.045   5.979  12.496 -0.3794  0.3273 -1.0482
 7856TIP3    H245060   0.113   6.113  12.476  0.1172  0.2581  0.1165
 7857TIP3   OH245061   0.614   3.559   3.316 -0.2922  0.3840 -0.3187
 7857TIP3    H145062   0.534   3.576   3.367  0.9437  3.1591  0.9018
 7857TIP3    H245063   0.621   3.634   3.257  0.1870 -1.0365 -2.1555
 7858TIP3   OH245064   5.384   3.455  16.195 -0.1854  0.4587 -0.2268
 7858TIP3    H145065   5.352   3.432  16.107 -0.7430 -0.4283  0.2006
 7858TIP3    H245066   5.306   3.462  16.249  0.2020  0.1973  0.3843
 7859TIP3   OH245067   1.987   2.816   3.073 -0.6391 -0.7772 -0.4346
 7859TIP3    H145068   1.927   2.746   3.047 -0.6817 -0.8674 -0.0941
 7859TIP3    H245069   2.074   2.777   3.066 -0.6275 -0.6904 -0.7909
 7860TIP3   OH245070   1.064   0.250   2.607  0.4043  0.3219 -0.3161
 7860TIP3    H145071   1.010   0.325   2.631 -1.8276 -1.2274 -0.2239
 7860TIP3    H245072   1.078   0.260   2.513  0.8827  1.2819 -0.1613
 7861TIP3   OH245073   4.030   6.553   2.621  0.2511  0.0766 -0.2150
 7861TIP3    H145074   3.982   6.612   2.679  0.8261  0.1977  0.1426
 7861TIP3    H245075   3.973   6.477   2.613  0.4138 -0.2037  1.0048
 7862TIP3   OH245076   4.149   5.917   0.382  0.2258 -0.2404 -0.0424
 7862TIP3    H145077   4.054   5.928   0.386  0.2404  1.3446 -2.2075
 7862TIP3    H245078   4.180   5.942   0.469 -1.3061 -0.8250  0.7146
 7863TIP3   OH245079   2.927   5.900   3.733  0.2673 -0.5342 -0.5776
 7863TIP3    H145080   2.983   5.867   3.663  0.1049  0.1909 -1.0676
 7863TIP3    H245081   2.901   5.988   3.704 -2.2335 -1.3313 -1.0123
 7864TIP3   OH245082   5.777   5.848  15.720 -1.1308  0.6280  0.2823
 7864TIP3    H145083   5.805   5.932  15.684 -2.1849  0.6924 -0.4590
 7864TIP3    H245084   5.764   5.793  15.643 -1.2476  0.0508  0.7112
 7865TIP3   OH245085   1.196   4.628  11.221  0.2134 -0.1493  0.1487
 7865TIP3    H145086   1.207   4.600  11.312  0.4391 -1.1015 -0.1669
 7865TIP3    H245087   1.278   4.672  11.200 -0.8789  2.6945  1.2869
 7866TIP3   OH245088   1.376   4.506   4.285  0.1113  0.3584 -0.3908
 7866TIP3    H145089   1.281   4.496   4.286  0.2063 -0.7614 -0.5607
 7866TIP3    H245090   1.393   4.582   4.340 -0.8949  0.7340 -0.5790
 7867TIP3   OH245091   1.981   0.183  11.653  0.0791 -0.8618  0.2721
 7867TIP3    H145092   1.969   0.119  11.723 -1.3075 -0.2203  0.6496
 7867TIP3    H245093   2.010   0.132  11.578 -1.8443 -2.0879  0.3109
 7868TIP3   OH245094   6.155   6.279  11.147 -0.1568  0.4908 -0.8343
 7868TIP3    H145095   6.238   6.322  11.124 -0.3538  2.3463  1.5165
 7868TIP3    H245096   6.093   6.311  11.083  0.6216  0.2766 -1.7134
 7869TIP3   OH245097   2.130   4.857   3.514 -0.0492  0.1013  0.1552
 7869TIP3    H145098   2.217   4.878   3.547 -0.7167 -0.1171  2.2414
 7869TIP3    H245099   2.074   4.857   3.592 -1.3871 -2.5090 -0.6705
 7870TIP3   OH245100   5.725   3.554   5.659  0.5663 -1.0630  0.4052
 7870TIP3    H145101   5.638   3.515   5.671 -0.7155  1.5164  0.0417
 7870TIP3    H245102   5.759   3.564   5.748 -0.4783 -0.0878  0.7187
 7871TIP3   OH245103   6.010   3.614   5.920 -0.4039 -0.6266  0.2808
 7871TIP3    H145104   6.018   3.592   6.013  1.2215 -0.2113  0.2653
 7871TIP3    H245105   5.947   3.685   5.918 -0.5092 -0.6838  1.0651
 7872TIP3   OH245106   2.656   4.929   0.714 -0.1243 -0.0808 -0.7249
 7872TIP3    H145107   2.681   5.022   0.716 -0.4561 -0.0056  1.3224
 7872TIP3    H245108   2.730   4.886   0.671  1.8186  0.6651  1.6431
 7873TIP3   OH245109   4.625   2.959  11.395 -0.4275  0.7487  0.3190
 7873TIP3    H145110   4.569   2.920  11.462  0.2638  0.0890  0.5220
 7873TIP3    H245111   4.569   3.025  11.353 -1.4807 -0.1500  0.2521
 7874TIP3   OH245112   1.915   5.574  10.473 -0.1899 -0.2024  0.3376
 7874TIP3    H145113   2.011   5.580  10.473 -0.1093  0.5238 -2.9017
 7874TIP3    H245114   1.890   5.607  10.387 -3.3105 -1.3985  0.6818
 7875TIP3   OH245115   4.450   4.944  11.849  0.0310 -0.4763  0.4025
 7875TIP3    H145116   4.453   4.971  11.758  0.8450 -0.3341  0.4604
 7875TIP3    H245117   4.365   4.973  11.881  0.0662  0.1867 -0.0944
 7876TIP3   OH245118   3.318   5.502  11.457  0.6088  0.6872  0.2920
 7876TIP3    H145119   3.352   5.571  11.400 -1.8824  2.9898  1.3698
 7876TIP3    H245120   3.264   5.448  11.399 -0.4860  1.9674  0.0490
 7877TIP3   OH245121   5.490   3.329  13.701  0.1722  0.1304  0.1223
 7877TIP3    H145122   5.570   3.358  13.745  0.6580 -1.1219  0.0935
 7877TIP3    H245123   5.493   3.234  13.706 -0.4793  0.0121 -1.3837
 7878TIP3   OH245124   3.372   0.705   5.802  0.2329 -0.8097  0.2700
 7878TIP3    H145125   3.424   0.626   5.787 -1.8613 -2.0911 -0.8463
 7878TIP3    H245126   3.381   0.756   5.721 -0.1867 -1.0215  0.0848
 7879TIP3   OH245127   5.582   6.483  12.463  0.0475  0.4286 -0.3533
 7879TIP3    H145128   5.626   6.517  12.385  1.6237 -1.1776 -0.2399
 7879TIP3    H245129   5.618   6.395  12.474 -2.1745 -0.4327  0.6323
 7880TIP3   OH245130   4.220   5.955   4.528 -0.1953  0.3583 -0.2086
 7880TIP3    H145131   4.251   5.941   4.439  0.5150  0.9897 -0.0754
 7880TIP3    H245132   4.136   5.910   4.532  0.3976 -0.8377 -0.7894
 7881TIP3   OH245133   0.491   3.646  12.432  0.1540  0.7427  0.6834
 7881TIP3    H145134   0.485   3.551  12.439 -0.6885  0.7425  0.0365
 7881TIP3    H245135   0.536   3.661  12.349  1.5272  0.9076  1.4175
 7882TIP3   OH245136   4.828   3.784  12.264  0.0178 -0.1342 -0.1811
 7882TIP3    H145137   4.858   3.703  12.304  0.2787  0.2449  0.4124
 7882TIP3    H245138   4.744   3.802  12.305  0.1868  0.1463  0.0477
 7883TIP3   OH245139   5.766   0.615   4.389  0.3152  0.1261  0.1717
 7883TIP3    H145140   5.743   0.534   4.344 -0.0545  0.9718 -1.2252
 7883TIP3    H245141   5.686   0.668   4.385  0.0073 -0.0351  2.5386
 7884TIP3   OH245142   2.846   0.154   2.341 -0.5271 -0.0692  0.4446
 7884TIP3    H145143   2.923   0.184   2.389  0.9093  0.5411 -2.0702
 7884TIP3    H245144   2.872   0.069   2.305 -1.1851 -0.0611 -0.0698
 7885TIP3   OH245145   0.378   1.418  16.979 -0.3348 -0.3624 -0.1306
 7885TIP3    H145146   0.401   1.332  16.944  0.7011 -0.7348  1.3536
 7885TIP3    H245147   0.356   1.471  16.902  2.3053 -0.9791 -1.4079
 7886TIP3   OH245148   4.843   5.522  14.834 -0.4127 -0.3312  0.5752
 7886TIP3    H145149   4.769   5.540  14.775 -0.6824 -1.4154  0.5590
 7886TIP3    H245150   4.834   5.429  14.855  1.3886 -0.6713 -0.0280
 7887TIP3   OH245151   6.071   0.821   5.979 -0.4557  0.7165 -0.6019
 7887TIP3    H145152   6.100   0.908   6.008  2.2706 -0.3344  0.1702
 7887TIP3    H245153   6.111   0.761   6.043 -0.9478 -1.1897 -2.0193
 7888TIP3   OH245154   4.944   4.712   3.101 -0.5389  0.2732 -0.2369
 7888TIP3    H145155   4.881   4.781   3.079 -1.1373 -0.1153  0.2155
 7888TIP3    H245156   4.909   4.633   3.060  0.6629  0.4097 -1.5954
 7889TIP3   OH245157   1.774   0.732   2.218 -0.3318  0.1566 -0.1455
 7889TIP3    H145158   1.817   0.718   2.303  2.2943  0.6881 -1.3013
 7889TIP3    H245159   1.747   0.824   2.220 -2.7253 -0.4640  1.0466
 7890TIP3   OH245160   4.714   1.210  13.960  0.4009 -0.5294 -0.2414
 7890TIP3    H145161   4.636   1.203  14.015 -0.0084 -0.4400 -0.7973
 7890TIP3    H245162   4.787   1.195  14.019 -0.0938 -5.4220 -0.4373
 7891TIP3   OH245163   6.089   4.908   3.009  0.4489 -0.0278  0.0790
 7891TIP3    H145164   6.007   4.958   3.004 -0.8032 -1.9995 -0.3396
 7891TIP3    H245165   6.125   4.914   2.921  0.4317  0.3153  0.0919
 7892TIP3   OH245166   0.437   6.017  12.712  0.4855 -0.1605  0.0996
 7892TIP3    H145167   0.374   6.017  12.784  1.9674  1.6107  1.4927
 7892TIP3    H245168   0.522   6.021  12.754  1.5112 -1.0920 -1.7513
 7893TIP3   OH245169   4.936   0.126  11.581 -0.1063  0.0249 -0.8008
 7893TIP3    H145170   4.888   0.137  11.663 -1.4734  1.5546 -1.7295
 7893TIP3    H245171   4.880   0.068  11.528 -0.9726  1.7441 -1.8600
 7894TIP3   OH245172   3.181   0.262  16.234 -0.2059 -0.6969 -0.5249
 7894TIP3    H145173   3.200   0.196  16.168 -2.3258  2.0489 -4.2723
 7894TIP3    H245174   3.088   0.248  16.255 -0.0513 -0.3600  0.4193
 7895TIP3   OH245175   4.805   2.132   1.025  0.2676 -0.1446  0.2900
 7895TIP3    H145176   4.764   2.218   1.031  1.9409  0.6157  1.5971
 7895TIP3    H245177   4.806   2.112   0.931 -1.3035  0.6574  0.0803
 7896TIP3   OH245178   5.827   0.210   4.017 -0.1386  0.4427  0.1694
 7896TIP3    H145179   5.819   0.115   4.025 -0.3920  0.5577  1.5450
 7896TIP3    H245180   5.884   0.223   3.941 -1.2951 -0.7626 -0.9578
 7897TIP3   OH245181   6.744   2.273   3.885  0.4102  0.2423 -0.0764
 7897TIP3    H145182   6.776   2.287   3.796 -0.1487  1.0252 -0.1658
 7897TIP3    H245183   6.809   2.216   3.925  0.6396 -0.1701 -1.0026
 7898TIP3   OH245184   5.649   3.194   2.950  0.1783 -0.6642  0.5640
 7898TIP3    H145185   5.631   3.226   2.861  2.8747  1.4606  0.6572
 7898TIP3    H245186   5.692   3.110   2.938 -1.0507 -1.2469  0.0012
 7899TIP3   OH245187   2.034   3.547  12.122 -0.3011 -0.1729 -0.4897
 7899TIP3    H145188   1.975   3.597  12.066 -0.2336  0.5625  0.0895
 7899TIP3    H245189   1.980   3.517  12.195 -0.0354  0.2476 -0.1142
 7900TIP3   OH245190   1.209   2.829   3.357  0.4849  0.2397  0.5598
 7900TIP3    H145191   1.246   2.859   3.274  0.2425 -0.6136  0.1343
 7900TIP3    H245192   1.196   2.735   3.345 -0.9346  0.3449  1.0272
 7901TIP3   OH245193   0.270   5.700  15.189  0.1338 -0.2234 -0.2855
 7901TIP3    H145194   0.256   5.737  15.276 -1.1112  0.2105 -0.6433
 7901TIP3    H245195   0.268   5.605  15.203 -0.3689 -0.1577  0.1100
 7902TIP3   OH245196   6.798   2.275  14.355 -0.0073 -0.5698  0.2007
 7902TIP3    H145197   6.737   2.229  14.413 -0.7923 -1.3650 -1.2107
 7902TIP3    H245198   6.755   2.359  14.337  0.1597 -0.3912  0.6167
 7903TIP3   OH245199   4.685   4.706   1.960  0.4530  0.2730 -0.8121
 7903TIP3    H145200   4.654   4.728   1.872 -0.4251 -0.1916 -0.6281
 7903TIP3    H245201   4.663   4.614   1.970  2.0892 -0.1349 -0.7365
 7904TIP3   OH245202   2.502   2.034   0.585  0.0514  0.0382 -0.1517
 7904TIP3    H145203   2.577   1.983   0.616  0.9698 -0.0909 -2.3327
 7904TIP3    H245204   2.438   2.029   0.655  0.3506 -3.5561  0.0805
 7905TIP3   OH245205   4.782   4.067   5.369  0.6197 -0.2027 -0.5504
 7905TIP3    H145206   4.833   4.109   5.300  0.8120 -0.0838 -0.3360
 7905TIP3    H245207   4.711   4.023   5.323 -0.0914  1.0682 -0.7297
 7906TIP3   OH245208   4.554   0.546   4.353 -0.7021  0.3258  0.0942
 7906TIP3    H145209   4.617   0.534   4.424 -1.9096 -0.5066  1.0846
 7906TIP3    H245210   4.470   0.557   4.398 -1.6999 -1.4728 -1.1986
 7907TIP3   OH245211   0.905   1.322   1.680 -0.0396 -0.2636  0.0718
 7907TIP3    H145212   0.906   1.313   1.775 -1.8981  1.1101  0.2779
 7907TIP3    H245213   0.953   1.245   1.648  2.3457  0.2249  2.1270
 7908TIP3   OH245214   0.575   4.602  17.116  0.3142 -0.2361 -0.3468
 7908TIP3    H145215   0.580   4.695  17.095  1.7197  0.2426  1.7017
 7908TIP3    H245216   0.488   4.590  17.153  1.4117  1.3463  3.2639
 7909TIP3   OH245217   4.006   6.534  11.386 -0.2017 -1.2054 -0.0456
 7909TIP3    H145218   4.101   6.544  11.373 -0.5924  0.2646 -2.1659
 7909TIP3    H245219   3.981   6.464  11.326 -0.9087  0.6156 -1.9676
 7910TIP3   OH245220   6.377   6.457  15.220 -0.1376 -0.1636 -0.3765
 7910TIP3    H145221   6.361   6.370  15.257 -0.8955  0.3125  0.4615
 7910TIP3    H245222   6.472   6.468  15.224 -0.0673 -0.8268 -0.1772
 7911TIP3   OH245223   1.775   5.898   0.982 -0.1029  0.6937  0.3366
 7911TIP3    H145224   1.822   5.824   0.945 -1.3726 -0.5868  1.1724
 7911TIP3    H245225   1.735   5.941   0.906  0.6812  0.5712 -0.1564
 7912TIP3   OH245226   5.078   3.848  14.700 -0.2479  0.2561 -0.2615
 7912TIP3    H145227   5.161   3.891  14.681  0.7317 -1.3051  0.3313
 7912TIP3    H245228   5.095   3.755  14.686 -2.1683 -0.0147 -1.0305
 7913TIP3   OH245229   0.128   0.518   0.550 -0.5653  0.5530 -0.1803
 7913TIP3    H145230   0.109   0.430   0.518 -0.4315  0.1857  0.7155
 7913TIP3    H245231   0.198   0.549   0.492 -0.9471  0.2645 -0.8082
 7914TIP3   OH245232   3.680   0.046   5.552  0.2939  0.0853 -0.0289
 7914TIP3    H145233   3.772   0.036   5.578  0.3597 -3.4066 -1.2014
 7914TIP3    H245234   3.631   0.011   5.625 -0.2075  1.9511  0.5956
 7915TIP3   OH245235   1.731   4.342  11.138 -0.4315  0.1012  0.4755
 7915TIP3    H145236   1.756   4.340  11.046 -0.4789  0.7479  0.4421
 7915TIP3    H245237   1.716   4.435  11.156  0.3541  0.0725  1.3430
 7916TIP3   OH245238   4.344   3.853  11.998  0.4656 -0.4472 -0.0953
 7916TIP3    H145239   4.323   3.762  11.978  0.2015 -0.1055 -1.4839
 7916TIP3    H245240   4.431   3.867  11.960  0.1856  0.0765 -0.5658
 7917TIP3   OH245241   5.075   5.197   2.000  0.2330 -0.3289 -0.1586
 7917TIP3    H145242   5.016   5.246   2.057 -1.7654 -1.2099 -1.3479
 7917TIP3    H245243   5.041   5.211   1.912  1.5508 -1.2291 -0.8474
 7918TIP3   OH245244   5.712   1.629   3.776 -0.2652  0.2711  0.3062
 7918TIP3    H145245   5.764   1.587   3.707  1.8606  1.8467  0.8446
 7918TIP3    H245246   5.730   1.577   3.855 -1.0698 -0.3155  0.1149
 7919TIP3   OH245247   4.303   3.224  14.898 -0.1023 -0.7521  0.6930
 7919TIP3    H145248   4.355   3.190  14.825 -2.8969 -3.2840 -0.2940
 7919TIP3    H245249   4.304   3.154  14.963 -1.0916 -0.2802  1.2404
 7920TIP3   OH245250   5.570   5.834  10.485 -0.1832  0.1137  0.4425
 7920TIP3    H145251   5.493   5.819  10.431  0.3388 -0.3658 -0.1746
 7920TIP3    H245252   5.604   5.747  10.503  1.9107  0.3722 -1.7742
 7921TIP3   OH245253   6.510   6.462  16.506 -0.3425 -0.1000 -0.4170
 7921TIP3    H145254   6.549   6.459  16.419 -0.2658  2.0765 -0.5071
 7921TIP3    H245255   6.584   6.450  16.565 -0.2392 -0.5577 -0.6351
 7922TIP3   OH245256   2.811   6.086   4.401  0.0870 -0.2041 -0.3038
 7922TIP3    H145257   2.735   6.096   4.458 -0.0796 -0.7105 -0.4356
 7922TIP3    H245258   2.886   6.089   4.460 -0.1167 -1.4659  0.0310
 7923TIP3   OH245259   2.882   3.374  16.604 -0.2091  0.5722 -0.0653
 7923TIP3    H145260   2.836   3.453  16.575  0.8890  1.8815  1.5775
 7923TIP3    H245261   2.975   3.395  16.596  0.1252 -0.8981 -0.4249
 7924TIP3   OH245262   0.058   4.257   4.025  0.5048  0.2243 -0.1011
 7924TIP3    H145263   0.017   4.325   4.078 -1.2530 -0.9790  0.1671
 7924TIP3    H245264   0.087   4.192   4.088  0.6976 -0.0381 -0.4575
 7925TIP3   OH245265   4.449   5.025  15.211  0.1503 -0.4353 -0.5391
 7925TIP3    H145266   4.487   5.080  15.143  0.2477  0.2193  0.0408
 7925TIP3    H245267   4.505   4.947  15.213  1.5586  0.5725  0.4036
 7926TIP3   OH245268   1.127   1.425  14.980  0.0151  0.0631  0.4099
 7926TIP3    H145269   1.118   1.333  15.004  0.4030 -0.1997 -0.4202
 7926TIP3    H245270   1.041   1.463  14.998  0.3364 -0.0415  2.4255
 7927TIP3   OH245271   6.093   5.507  15.924  0.9104  0.1147 -0.1065
 7927TIP3    H145272   6.152   5.545  15.988  0.0962  1.7993 -0.2974
 7927TIP3    H245273   6.033   5.578  15.901 -0.5292 -1.2235 -0.7049
 7928TIP3   OH245274   0.039   4.753  11.244  0.5975  0.5758  0.4024
 7928TIP3    H145275   0.012   4.672  11.286 -2.0371  1.3316  0.3640
 7928TIP3    H245276   0.052   4.730  11.152 -0.5121  0.2457  0.3182
 7929TIP3   OH245277   5.065   6.378   3.018  0.2440 -0.0955  0.3732
 7929TIP3    H145278   4.970   6.373   3.004  0.2249  1.7954 -0.5164
 7929TIP3    H245279   5.075   6.433   3.096  0.5993 -1.3766  1.2452
 7930TIP3   OH245280   2.503   4.648   2.740  0.1169  0.3929  0.2922
 7930TIP3    H145281   2.572   4.588   2.713  0.1364  0.8413 -0.7147
 7930TIP3    H245282   2.521   4.666   2.832  0.5616 -0.5245  0.3961
 7931TIP3   OH245283   6.053   3.741  14.650  0.3242 -0.0083 -0.1322
 7931TIP3    H145284   6.056   3.819  14.595  3.9280  0.0084 -0.1174
 7931TIP3    H245285   6.010   3.771  14.731 -1.7677  0.8817 -1.4783
 7932TIP3   OH245286   2.936   3.603   4.962  0.4131 -0.4928 -0.1586
 7932TIP3    H145287   2.877   3.611   4.887 -0.1520 -0.8954  0.2352
 7932TIP3    H245288   2.927   3.512   4.990  0.4886 -0.3004  0.5031
 7933TIP3   OH245289   2.190   5.494  14.148 -0.1039  0.5997  0.1512
 7933TIP3    H145290   2.156   5.582  14.164 -1.1030  0.3326 -0.4104
 7933TIP3    H245291   2.116   5.446  14.110  0.3403 -0.5699  0.7057
 7934TIP3   OH245292   1.769   0.286  10.450 -0.1535 -1.0042 -0.0380
 7934TIP3    H145293   1.857   0.249  10.460 -0.0330 -0.3291  1.7627
 7934TIP3    H245294   1.712   0.209  10.439  0.4659 -1.5297  0.3571
 7935TIP3   OH245295   4.581   3.934  13.156 -0.9296 -0.6138 -0.5343
 7935TIP3    H145296   4.586   3.940  13.061 -1.1445 -1.1874 -0.5857
 7935TIP3    H245297   4.529   3.855  13.173  0.7638 -1.6602  0.0775
 7936TIP3   OH245298   6.038   4.618   0.672 -0.5672  0.8957  0.4783
 7936TIP3    H145299   6.046   4.642   0.764 -0.7759 -0.0589  0.7553
 7936TIP3    H245300   6.092   4.540   0.663 -0.5640  0.9714 -0.2072
 7937TIP3   OH245301   4.392   5.359   1.161  0.1688  0.0873  0.0258
 7937TIP3    H145302   4.337   5.353   1.239 -0.3575 -0.1718 -0.3545
 7937TIP3    H245303   4.401   5.453   1.145 -0.0315  0.1350  0.1824
 7938TIP3   OH245304   1.708   6.523  15.802  0.2492 -0.4118 -0.8457
 7938TIP3    H145305   1.771   6.453  15.785  1.4641  0.0376  1.3804
 7938TIP3    H245306   1.651   6.523  15.725  2.5100 -1.3348 -2.6542
 7939TIP3   OH245307   2.167   5.422   1.088  0.3762 -0.3876  0.2830
 7939TIP3    H145308   2.164   5.380   1.174  1.4880 -0.8549  0.1177
 7939TIP3    H245309   2.217   5.502   1.102 -0.6594  0.2666  0.3414
 7940TIP3   OH245310   4.871   1.024  11.960 -0.0259  0.1748 -0.3259
 7940TIP3    H145311   4.954   0.996  11.923 -0.1333 -1.6596  0.7257
 7940TIP3    H245312   4.840   1.093  11.901  0.7871 -1.1730 -2.3981
 7941TIP3   OH245313   4.905   5.052  13.533  0.0976 -0.1192  0.4322
 7941TIP3    H145314   4.974   5.112  13.562 -0.6916  1.1933 -0.2711
 7941TIP3    H245315   4.862   5.099  13.462 -1.7796 -0.7027  1.1216
 7942TIP3   OH245316   1.157   0.289   5.486 -0.0730 -0.0524  0.1850
 7942TIP3    H145317   1.134   0.202   5.518  0.2740  0.7429  2.8037
 7942TIP3    H245318   1.248   0.282   5.458  0.5187 -0.1400  2.0695
 7943TIP3   OH245319   6.449   0.812   1.866 -0.1712 -0.1113  0.0147
 7943TIP3    H145320   6.411   0.888   1.822 -0.7302  0.5447  1.5947
 7943TIP3    H245321   6.474   0.843   1.952 -0.0590 -1.6353  0.5691
 7944TIP3   OH245322   0.730   1.361  14.118  0.0474  0.3963  0.6743
 7944TIP3    H145323   0.639   1.366  14.149 -0.0771 -0.9187  0.5620
 7944TIP3    H245324   0.724   1.320  14.032  0.8190 -0.4446  1.0127
 7945TIP3   OH245325   0.832   3.056   3.898  0.3842 -0.3468  0.5804
 7945TIP3    H145326   0.787   3.106   3.966 -1.0955 -1.0326  0.1648
 7945TIP3    H245327   0.865   2.978   3.943 -0.9134 -0.9839  0.4972
 7946TIP3   OH245328   4.871   3.535  14.221 -0.2516 -0.3988  0.0064
 7946TIP3    H145329   4.929   3.592  14.171  1.3749 -1.4429  0.6214
 7946TIP3    H245330   4.800   3.593  14.251  0.7970  1.0599 -0.2339
 7947TIP3   OH245331   5.713   1.085   4.224  0.0499  0.2540 -0.6194
 7947TIP3    H145332   5.676   1.139   4.154 -0.1183  1.5756  0.4417
 7947TIP3    H245333   5.693   0.995   4.198 -1.6503  0.7974 -1.3582
 7948TIP3   OH245334   3.939   4.046  15.391  0.8057 -0.0222 -0.3369
 7948TIP3    H145335   4.025   4.008  15.405  0.8100  0.2313  0.3818
 7948TIP3    H245336   3.899   4.048  15.479 -0.0862 -0.5121 -0.7105
 7949TIP3   OH245337   2.175   5.868  10.316  0.5430  0.0007  0.3002
 7949TIP3    H145338   2.205   5.954  10.347 -1.3070  1.2716 -1.1421
 7949TIP3    H245339   2.218   5.856  10.231  0.6509 -0.4117  0.4126
 7950TIP3   OH245340   0.443   1.649  16.199 -0.2605 -0.1271 -0.0861
 7950TIP3    H145341   0.403   1.720  16.149  1.1851  0.2164 -0.8316
 7950TIP3    H245342   0.536   1.674  16.204 -0.3200 -0.0941  2.8412
 7951TIP3   OH245343   2.815   2.509  11.039  0.3193 -0.4931  0.0965
 7951TIP3    H145344   2.772   2.590  11.009 -0.8278 -0.9408  0.4579
 7951TIP3    H245345   2.875   2.486  10.969 -2.2114 -1.4713 -1.9098
 7952TIP3   OH245346   1.514   4.460   0.079 -0.2233 -0.3346 -0.2836
 7952TIP3    H145347   1.554   4.490  -0.002 -1.2842 -0.1172 -0.7381
 7952TIP3    H245348   1.489   4.540   0.125  2.1472 -0.3586  1.2246
 7953TIP3   OH245349   5.686   5.742  14.071  0.4662 -0.1922 -0.0520
 7953TIP3    H145350   5.729   5.784  13.997 -1.5092  0.9926 -0.5893
 7953TIP3    H245351   5.698   5.648  14.056 -0.8274 -0.0453 -2.5330
 7954TIP3   OH245352   0.249   0.625  16.818 -0.0270  0.4743  0.6728
 7954TIP3    H145353   0.343   0.630  16.830 -0.1411  0.7144  1.5257
 7954TIP3    H245354   0.238   0.590  16.730  0.8537  0.7035  0.4634
 7955TIP3   OH245355   0.691   4.701   3.656  0.1843  0.1687 -0.0631
 7955TIP3    H145356   0.702   4.790   3.690 -0.5987 -0.4184  1.8846
 7955TIP3    H245357   0.749   4.697   3.580 -0.7119  2.7367 -1.0048
 7956TIP3   OH245358   4.389   4.831   5.451 -0.1618  0.2745  0.0914
 7956TIP3    H145359   4.391   4.924   5.429 -0.9220  0.3968  0.5309
 7956TIP3    H245360   4.314   4.796   5.402  0.5307 -0.2609 -0.6314
 7957TIP3   OH245361   2.285   1.338   1.321  0.0974  0.4045 -0.5014
 7957TIP3    H145362   2.212   1.298   1.274  0.7542  1.4603 -2.5384
 7957TIP3    H245363   2.363   1.296   1.283  0.8537  3.6744 -3.0401
 7958TIP3   OH245364   5.025   0.799   3.514  0.5592 -0.0677  0.5304
 7958TIP3    H145365   5.057   0.777   3.601 -1.2468 -2.3048  0.7267
 7958TIP3    H245366   4.963   0.871   3.528 -1.2975 -1.7502  1.4911
 7959TIP3   OH245367   2.368   0.746  11.509  0.6334  0.0579 -0.0599
 7959TIP3    H145368   2.370   0.668  11.453 -1.1641 -0.8526  1.0650
 7959TIP3    H245369   2.276   0.757  11.533  1.3136  0.3911  2.6980
 7960TIP3   OH245370   0.092   6.606  10.371  0.7076 -0.0603  0.1954
 7960TIP3    H145371   0.077   6.525  10.419  1.7741 -0.0590  0.5480
 7960TIP3    H245372   0.061   6.588  10.282 -2.2886  0.2618  1.0600
 7961TIP3   OH245373   0.100   3.197  11.479 -0.1471 -0.1828 -0.1587
 7961TIP3    H145374   0.095   3.242  11.394  0.2374  1.8919  0.8644
 7961TIP3    H245375   0.184   3.225  11.516 -0.6997 -0.3671  1.2857
 7962TIP3   OH245376   6.719   1.045  15.491  0.0092 -0.4947  0.5817
 7962TIP3    H145377   6.784   1.042  15.560 -0.4119 -0.1578  0.9980
 7962TIP3    H245378   6.758   1.102  15.424 -0.4409  0.8882  1.4539
 7963TIP3   OH245379   4.726   1.530   0.342 -0.0012  0.0380 -0.4653
 7963TIP3    H145380   4.738   1.466   0.412 -0.4216 -0.2695 -0.6772
 7963TIP3    H245381   4.815   1.560   0.323 -0.0320  1.6096  1.5701
 7964TIP3   OH245382   5.225   1.431   4.781 -0.2463 -0.2247  0.3096
 7964TIP3    H145383   5.219   1.335   4.782  0.4815 -0.3212 -1.2732
 7964TIP3    H245384   5.234   1.453   4.688 -2.7223  1.5546  0.4055
 7965TIP3   OH245385   3.781   0.526   0.176  0.0523 -0.2274  0.2716
 7965TIP3    H145386   3.787   0.520   0.272  0.4523 -1.2532  0.1907
 7965TIP3    H245387   3.825   0.447   0.144  2.6581  1.5496 -0.8527
 7966TIP3   OH245388   1.351   2.097  16.610  0.3467 -0.8769 -0.1940
 7966TIP3    H145389   1.323   2.113  16.520 -0.1943  2.2992  0.4185
 7966TIP3    H245390   1.285   2.139  16.664  1.6493 -1.0557  1.6291
 7967TIP3   OH245391   4.048   3.206  15.185  0.9976 -0.0437 -0.2309
 7967TIP3    H145392   4.025   3.271  15.119  2.1784  1.3362  0.6445
 7967TIP3    H245393   3.980   3.213  15.252  0.8772 -0.0386 -0.3535
 7968TIP3   OH245394   1.145   2.169  15.883 -0.0717  0.0170 -0.1536
 7968TIP3    H145395   1.081   2.193  15.817  1.3312 -0.3714 -1.7248
 7968TIP3    H245396   1.116   2.214  15.963 -1.2554  1.3113 -1.2719
 7969TIP3   OH245397   3.790   2.405  11.779  0.1108  0.0073 -0.1162
 7969TIP3    H145398   3.704   2.394  11.740 -1.8086 -0.4932  3.8144
 7969TIP3    H245399   3.802   2.327  11.834  2.2866  0.9260  0.8492
 7970TIP3   OH245400   4.201   3.187   2.251  0.4791 -0.2453  0.5756
 7970TIP3    H145401   4.198   3.232   2.167  0.6724 -0.8459  0.2386
 7970TIP3    H245402   4.284   3.213   2.290  0.6107 -0.3490  0.3626
 7971TIP3   OH245403   3.262   0.045  12.413 -0.2709  0.2104 -0.3006
 7971TIP3    H145404   3.266  -0.036  12.463 -0.9428  0.0715 -0.4582
 7971TIP3    H245405   3.315   0.107  12.463  0.5381 -0.4149 -0.3651
 7972TIP3   OH245406   3.568   4.623  11.350 -0.3051  0.4121  0.2791
 7972TIP3    H145407   3.581   4.612  11.444  2.7660 -2.2232 -0.2760
 7972TIP3    H245408   3.495   4.566  11.328  1.4665 -2.2026  0.6643
 7973TIP3   OH245409   6.259   5.106  17.184  0.2767  0.0178 -0.1133
 7973TIP3    H145410   6.279   5.088  17.092  1.1222  0.4043 -0.0168
 7973TIP3    H245411   6.196   5.038  17.208 -0.3920  0.2442 -1.1241
 7974TIP3   OH245412   0.890   2.415   3.134  0.3300 -0.0729 -0.2704
 7974TIP3    H145413   0.952   2.344   3.150  0.7662  0.3947  0.1610
 7974TIP3    H245414   0.871   2.410   3.040 -0.0468 -1.0741 -0.1591
 7975TIP3   OH245415   5.761   0.480  11.052 -0.1745 -0.2689  0.5440
 7975TIP3    H145416   5.755   0.415  10.981  0.9811 -0.2789  0.4308
 7975TIP3    H245417   5.734   0.562  11.011  0.7009 -0.2314  0.0091
 7976TIP3   OH245418   6.798   0.041   4.466  0.4474 -0.1043 -0.4888
 7976TIP3    H145419   6.822   0.031   4.558 -0.8579 -0.2303 -0.1547
 7976TIP3    H245420   6.808  -0.047   4.430 -2.7102 -0.9594  0.4550
 7977TIP3   OH245421   3.664   1.868   1.907  0.4199 -0.1175  0.7169
 7977TIP3    H145422   3.677   1.811   1.831  0.2584  0.1843  0.4645
 7977TIP3    H245423   3.749   1.910   1.921 -0.4137  2.6548 -1.5714
 7978TIP3   OH245424   5.859   0.837  12.162  0.0741 -0.3401  0.2202
 7978TIP3    H145425   5.811   0.867  12.085  1.3865  0.4045 -0.3559
 7978TIP3    H245426   5.792   0.813  12.225 -1.0285  0.3059 -0.6757
 7979TIP3   OH245427   1.412   6.246  15.230  0.1633 -0.1168  0.2011
 7979TIP3    H145428   1.338   6.255  15.170 -0.5073  0.3069  1.0699
 7979TIP3    H245429   1.483   6.213  15.176 -1.0326 -1.8477 -0.4054
 7980TIP3   OH245430   0.363   3.797   5.186 -0.1930 -0.0023  0.2601
 7980TIP3    H145431   0.353   3.729   5.253 -0.0307  0.0687  0.3553
 7980TIP3    H245432   0.349   3.751   5.103  0.3847 -0.2435  0.2978
 7981TIP3   OH245433   6.378   6.631   2.314  0.1343  0.3990 -0.8295
 7981TIP3    H145434   6.462   6.608   2.274 -0.3188 -1.2789 -0.8849
 7981TIP3    H245435   6.325   6.665   2.241  0.5005  0.7530 -0.9360
 7982TIP3   OH245436   0.962   0.544  14.375  0.1887  0.2895  0.2680
 7982TIP3    H145437   0.867   0.551  14.379  0.1551  0.2306 -0.3693
 7982TIP3    H245438   0.991   0.565  14.464 -0.4790 -0.8224  0.7677
 7983TIP3   OH245439   3.052   0.632  11.639 -0.4433  0.0268 -1.0679
 7983TIP3    H145440   3.130   0.664  11.593 -0.6069 -1.0599 -2.1372
 7983TIP3    H245441   3.085   0.563  11.697 -0.2489  1.3331  0.4659
 7984TIP3   OH245442   2.404   6.377   5.534 -0.0439  0.2010  0.3930
 7984TIP3    H145443   2.405   6.293   5.488 -3.1050  0.6723 -0.7247
 7984TIP3    H245444   2.467   6.431   5.486 -0.1365 -0.5764 -0.6409
 7985TIP3   OH245445   5.669   2.342   3.830  0.1600 -0.3425 -0.5322
 7985TIP3    H145446   5.619   2.339   3.748 -0.2021  2.5150 -0.5407
 7985TIP3    H245447   5.606   2.376   3.895  0.9474 -0.7883  0.4922
 7986TIP3   OH245448   4.914   4.232  10.959  0.2073 -0.7932  0.6745
 7986TIP3    H145449   4.972   4.307  10.951 -0.4875 -0.2337  0.8210
 7986TIP3    H245450   4.935   4.177  10.883  0.1374 -0.0524  0.1154
 7987TIP3   OH245451   5.067   5.433  14.212 -0.3299  0.0510  0.4889
 7987TIP3    H145452   5.082   5.339  14.202 -2.0029 -0.2504  0.6895
 7987TIP3    H245453   5.155   5.471  14.209  0.2708 -1.3724 -1.0089
 7988TIP3   OH245454   6.101   2.179   0.602 -0.2739  0.4798  0.0028
 7988TIP3    H145455   6.072   2.089   0.589 -0.5548  0.8313 -2.1080
 7988TIP3    H245456   6.073   2.225   0.523  1.2782  2.0629  0.3169
 7989TIP3   OH245457   4.468   4.225   5.177 -0.3105  0.0341 -0.6696
 7989TIP3    H145458   4.559   4.233   5.149 -0.1238 -0.2758 -0.1616
 7989TIP3    H245459   4.460   4.285   5.250  0.1084 -1.5903  0.7667
 7990TIP3   OH245460   3.807   6.212   3.283  0.2970 -0.3133  0.1333
 7990TIP3    H145461   3.725   6.233   3.237  1.9223  0.7895 -2.5380
 7990TIP3    H245462   3.846   6.298   3.301  0.5070 -0.8011  2.1854
 7991TIP3   OH245463   1.603   1.456   1.433 -0.5407 -0.0882 -0.7571
 7991TIP3    H145464   1.529   1.397   1.423 -1.1357  0.0255  2.0252
 7991TIP3    H245465   1.565   1.534   1.474  1.0034  0.1186  0.3786
 7992TIP3   OH245466   0.110   1.323   0.467 -0.4029  0.0586 -0.0384
 7992TIP3    H145467   0.040   1.259   0.475 -0.6008  0.5112  3.4029
 7992TIP3    H245468   0.189   1.277   0.494 -0.1204  0.6480  0.1599
 7993TIP3   OH245469   2.202   4.591   0.044 -0.4581 -0.2132  0.8828
 7993TIP3    H145470   2.163   4.504   0.045 -0.0404 -0.6409 -3.0816
 7993TIP3    H245471   2.283   4.581   0.095  0.1962 -2.5718 -0.4473
 7994TIP3   OH245472   6.215   5.272  16.866  0.4782  0.2567  0.4312
 7994TIP3    H145473   6.301   5.252  16.902  0.5975 -0.2018 -0.1060
 7994TIP3    H245474   6.231   5.298  16.776  0.0841  0.4935  0.4241
 7995TIP3   OH245475   3.976   2.994  16.379 -0.2450 -0.1268  0.0415
 7995TIP3    H145476   3.902   2.941  16.407 -0.1693  0.9028  2.4664
 7995TIP3    H245477   4.053   2.950  16.417  0.1094  0.1723 -0.3219
 7996TIP3   OH245478   6.249   0.234   3.140  0.2372  0.7983 -0.1438
 7996TIP3    H145479   6.342   0.237   3.161  0.5957  2.2901 -1.7019
 7996TIP3    H245480   6.245   0.182   3.060 -0.6019 -1.2456  1.1364
 7997TIP3   OH245481   2.870   5.521   2.194  0.5070  0.1780  0.7243
 7997TIP3    H145482   2.800   5.579   2.222  0.6610 -0.1239  1.7993
 7997TIP3    H245483   2.847   5.435   2.231  0.1599 -0.5290 -1.0257
 7998TIP3   OH245484   2.009   5.384  16.113 -0.1387 -0.2430 -0.0051
 7998TIP3    H145485   2.069   5.350  16.179  0.0433  0.1852  0.0510
 7998TIP3    H245486   2.061   5.446  16.062 -1.2378  2.4520  1.8959
 7999TIP3   OH245487   1.119   5.297  12.599  0.4449 -0.0381 -0.1298
 7999TIP3    H145488   1.147   5.234  12.532  0.1410 -1.4781  1.0423
 7999TIP3    H245489   1.076   5.243  12.666  1.2888  1.2490  1.5336
 8000TIP3   OH245490   2.655   2.908  12.050 -0.1127 -0.0955 -0.1809
 8000TIP3    H145491   2.646   2.843  12.120 -0.4046 -0.7801 -0.8342
 8000TIP3    H245492   2.739   2.949  12.066 -0.3179 -0.0158  0.7623
 8001TIP3   OH245493   6.313   1.895   0.265  0.2156 -0.0885  0.2547
 8001TIP3    H145494   6.384   1.956   0.245 -0.1368  0.1071 -0.4410
 8001TIP3    H245495   6.348   1.840   0.335  0.8600  0.3425  0.2832
 8002TIP3   OH245496   0.316   3.715   1.742  0.0738  0.1259 -0.1967
 8002TIP3    H145497   0.307   3.695   1.648  1.1337 -0.1447 -0.2472
 8002TIP3    H245498   0.331   3.630   1.783  0.9213  0.3818  0.0486
 8003TIP3   OH245499   6.713   5.598  12.671  0.0934  0.6447  0.0940
 8003TIP3    H145500   6.634   5.590  12.617 -0.0237 -1.3764  0.4911
 8003TIP3    H245501   6.784   5.571  12.613  0.3262  1.1449  0.1438
 8004TIP3   OH245502   2.724   2.398  11.517 -0.4962 -0.2248 -0.0002
 8004TIP3    H145503   2.718   2.491  11.496 -3.4335 -0.5487 -1.0391
 8004TIP3    H245504   2.674   2.388  11.598 -0.2222 -0.9027  0.0952
 8005TIP3   OH245505   2.709   1.584   5.995  0.3413 -1.1816 -0.0477
 8005TIP3    H145506   2.795   1.547   6.019  0.5861 -1.3766 -1.1896
 8005TIP3    H245507   2.711   1.590   5.900 -0.6356 -0.4690 -0.0344
 8006TIP3   OH245508   3.392   6.708  16.897 -0.8031  0.0078 -0.5493
 8006TIP3    H145509   3.472   6.760  16.896 -0.3017 -0.7333 -0.2119
 8006TIP3    H245510   3.395   6.657  16.816 -2.5744  2.3274 -2.1994
 8007TIP3   OH245511   6.173   2.437   0.671 -0.0644 -0.1123 -0.1549
 8007TIP3    H145512   6.183   2.348   0.638  0.0916 -0.4857  0.8377
 8007TIP3    H245513   6.117   2.428   0.749  0.5790  0.5325  0.4042
 8008TIP3   OH245514   5.626   4.808  11.572  0.0116 -0.3648  0.2830
 8008TIP3    H145515   5.606   4.896  11.604 -1.7528 -0.4961 -0.3554
 8008TIP3    H245516   5.603   4.750  11.644  0.9277 -0.3409  0.6088
 8009TIP3   OH245517   4.583   6.224  16.885  0.1637  0.2748  0.2034
 8009TIP3    H145518   4.575   6.167  16.961  0.9393  0.7835  0.6819
 8009TIP3    H245519   4.493   6.235  16.854 -0.0714 -0.5805  0.5639
 8010TIP3   OH245520   0.408   5.396   4.374 -0.6137 -0.2053 -0.3678
 8010TIP3    H145521   0.357   5.327   4.416  0.3286 -0.8172 -0.2072
 8010TIP3    H245522   0.489   5.353   4.347 -1.6817 -0.2362 -4.1161
 8011TIP3   OH245523   1.528   4.605  16.814 -0.2485 -0.1471 -0.0431
 8011TIP3    H145524   1.560   4.528  16.767  1.8752  1.1104 -0.8297
 8011TIP3    H245525   1.483   4.657  16.747  1.2845  0.8321 -0.3769
 8012TIP3   OH245526   3.291   1.856  12.903  0.3807 -0.0476  0.4339
 8012TIP3    H145527   3.221   1.917  12.882 -0.9493 -0.9501  1.9609
 8012TIP3    H245528   3.350   1.905  12.959 -1.1244 -0.3012  2.3593
 8013TIP3   OH245529   2.559   2.430  12.695 -0.6241 -0.6999  0.3393
 8013TIP3    H145530   2.473   2.390  12.702 -1.0323  0.3692  1.7962
 8013TIP3    H245531   2.542   2.521  12.671  0.1695 -0.7517 -0.5006
 8014TIP3   OH245532   2.239   3.843  11.245  0.6165 -0.1587 -0.3713
 8014TIP3    H145533   2.238   3.758  11.289  0.0818 -0.8942 -1.7235
 8014TIP3    H245534   2.158   3.843  11.193  0.8654  0.9622 -0.7738
 8015TIP3   OH245535   0.234   3.558  12.877 -0.2077 -0.0072 -0.3029
 8015TIP3    H145536   0.191   3.591  12.798 -1.5223  2.8114  1.4039
 8015TIP3    H245537   0.321   3.597  12.875 -0.7026  1.1811  0.2205
 8016TIP3   OH245538   3.463   0.353   1.344  0.8386  0.5305  0.1314
 8016TIP3    H145539   3.373   0.337   1.316  0.4223  0.9820  1.1561
 8016TIP3    H245540   3.483   0.440   1.309 -0.4734  2.1077  2.9557
 8017TIP3   OH245541   0.237   3.500  14.525 -0.0246  0.1100 -0.0635
 8017TIP3    H145542   0.227   3.590  14.557  1.5759  0.9281 -1.6592
 8017TIP3    H245543   0.277   3.510  14.438 -1.1580 -2.1096 -0.9073
 8018TIP3   OH245544   1.920   5.556   0.584  0.3936 -0.3687  0.2770
 8018TIP3    H145545   1.845   5.513   0.541 -0.5325  0.1973  1.2972
 8018TIP3    H245546   1.979   5.484   0.607  0.4431 -0.7758 -1.0030
 8019TIP3   OH245547   2.151   6.648   5.628 -0.8290  0.4801 -0.7366
 8019TIP3    H145548   2.079   6.694   5.672 -2.7780 -2.2935 -0.7471
 8019TIP3    H245549   2.131   6.658   5.535  1.5704  3.6946 -1.0758
 8020TIP3   OH245550   1.139   6.670  12.918  0.0849 -0.6341  0.2219
 8020TIP3    H145551   1.122   6.653  12.825  0.1778 -1.5343  0.3561
 8020TIP3    H245552   1.059   6.710  12.950  0.3662  0.4858 -0.4358
 8021TIP3   OH245553   6.522   5.401  15.519  0.4350  0.5528 -0.5811
 8021TIP3    H145554   6.516   5.307  15.536 -0.3771  0.7658  0.4393
 8021TIP3    H245555   6.459   5.416  15.448 -0.8923  0.5944  0.5591
 8022TIP3   OH245556   3.230   4.239  12.802 -0.3553 -0.0402  0.2073
 8022TIP3    H145557   3.203   4.157  12.759  1.0039 -1.2365  1.5217
 8022TIP3    H245558   3.148   4.284  12.821 -1.1963 -1.4663  0.1471
 8023TIP3   OH245559   2.543   5.112  13.781  0.1543 -1.1799  0.4422
 8023TIP3    H145560   2.532   5.179  13.714 -0.1001 -0.3302  1.3097
 8023TIP3    H245561   2.485   5.041  13.753  0.0477 -0.8341 -0.2325
 8024TIP3   OH245562   0.408   5.533  16.372 -0.0151  0.0302 -0.0532
 8024TIP3    H145563   0.390   5.618  16.333 -0.3602  0.8067  1.7161
 8024TIP3    H245564   0.499   5.538  16.400  0.5384 -0.8836 -1.5786
 8025TIP3   OH245565   1.354   1.013   4.634  0.6292 -0.2005  0.4810
 8025TIP3    H145566   1.342   1.104   4.662  2.6296 -0.3328  2.0236
 8025TIP3    H245567   1.345   1.016   4.539 -0.4560  1.3907  0.5875
 8026TIP3   OH245568   4.342   0.112   3.879 -0.0496 -0.1932  0.3439
 8026TIP3    H145569   4.326   0.183   3.817 -1.5587  0.7177  1.7038
 8026TIP3    H245570   4.327   0.151   3.965  0.8469 -1.7228  1.2361
 8027TIP3   OH245571   2.745   2.140  14.797 -0.1679 -0.0131 -0.0313
 8027TIP3    H145572   2.674   2.142  14.733 -0.1404  2.8922 -0.1205
 8027TIP3    H245573   2.701   2.123  14.880 -0.6378 -0.5209 -0.3705
 8028TIP3   OH245574   0.044   6.251  12.608  0.2190  0.3556  0.2908
 8028TIP3    H145575  -0.034   6.306  12.620 -0.8484 -0.4027 -2.2850
 8028TIP3    H245576   0.069   6.224  12.696 -1.3132  2.1419  1.3330
 8029TIP3   OH245577   0.632   6.692  16.528 -0.1348 -0.4916  0.3570
 8029TIP3    H145578   0.589   6.761  16.477 -0.6007 -1.5918 -0.7838
 8029TIP3    H245579   0.590   6.698  16.614  0.8864  1.5953  0.7872
 8030TIP3   OH245580   4.948   3.539  16.572 -0.7334 -0.1400  0.0396
 8030TIP3    H145581   4.963   3.631  16.551  0.1543 -0.2423  0.1678
 8030TIP3    H245582   5.012   3.492  16.519 -0.3182 -0.5902  0.9084
 8031TIP3   OH245583   0.580   4.893  12.586 -0.0680 -0.0536  0.2747
 8031TIP3    H145584   0.614   4.818  12.635  0.1456  0.0545  0.2904
 8031TIP3    H245585   0.509   4.857  12.533 -0.1186 -0.2232  0.4593
 8032TIP3   OH245586   3.817   0.372  15.760  0.3409 -0.0377  0.0939
 8032TIP3    H145587   3.758   0.442  15.732  0.7775 -0.0169 -0.8162
 8032TIP3    H245588   3.773   0.292  15.730  0.3242 -0.0833  0.2418
 8033TIP3   OH245589   0.523   5.700  15.335 -0.0139 -0.0584 -0.4188
 8033TIP3    H145590   0.523   5.623  15.393  0.8013  0.9217  0.9377
 8033TIP3    H245591   0.460   5.760  15.375 -0.4180  0.1130 -1.2968
 8034TIP3   OH245592   5.219   4.195  11.382 -0.3699 -0.0564  0.6317
 8034TIP3    H145593   5.212   4.102  11.406 -0.1299 -0.1864  0.2012
 8034TIP3    H245594   5.135   4.216  11.341  0.4099 -0.7138 -1.4183
 8035TIP3   OH245595   2.424   3.335   3.677  0.0112 -0.3694 -0.5070
 8035TIP3    H145596   2.378   3.418   3.664  1.3170  0.2640 -1.3221
 8035TIP3    H245597   2.408   3.286   3.596 -0.2407 -0.6608 -0.2832
 8036TIP3   OH245598   3.939   2.546  14.141 -0.0578 -0.6180  0.1389
 8036TIP3    H145599   3.920   2.638  14.159 -2.4919 -1.0361  0.0887
 8036TIP3    H245600   3.916   2.534  14.049  0.4350 -1.2417  0.0917
 8037TIP3   OH245601   5.922   4.004   4.218 -0.0593 -0.4960 -0.0434
 8037TIP3    H145602   5.979   4.068   4.174 -0.3209  0.4542  0.9616
 8037TIP3    H245603   5.847   3.994   4.159 -0.2383  0.4894  0.0046
 8038TIP3   OH245604   1.362   5.703  14.018  0.4910  0.3479  0.2311
 8038TIP3    H145605   1.336   5.763  13.948  0.8508 -0.4274 -0.5848
 8038TIP3    H245606   1.403   5.629  13.973 -0.1273 -0.6136  1.1956
 8039TIP3   OH245607   0.772   1.866  13.569  0.2695 -0.6438 -0.2379
 8039TIP3    H145608   0.713   1.809  13.520  2.1767 -0.6781 -2.6798
 8039TIP3    H245609   0.728   1.951  13.570 -0.1397 -0.8285 -1.3950
 8040TIP3   OH245610   1.637   1.629   5.247  0.1955  0.6531 -0.0171
 8040TIP3    H145611   1.685   1.549   5.226 -0.0967  0.5420 -0.2710
 8040TIP3    H245612   1.636   1.678   5.165 -0.8041  0.2940 -0.2404
 8041TIP3   OH245613   1.744   6.497   0.862 -0.2073 -0.0746  0.1454
 8041TIP3    H145614   1.807   6.426   0.856 -0.2068 -0.0245 -0.5017
 8041TIP3    H245615   1.674   6.473   0.801 -1.4646 -0.7639  1.7851
 8042TIP3   OH245616   3.835   4.206   2.667 -0.2619 -0.0389 -0.5537
 8042TIP3    H145617   3.877   4.203   2.753 -0.2669 -0.8389 -0.5744
 8042TIP3    H245618   3.781   4.285   2.669  0.2368  0.2986 -0.0588
 8043TIP3   OH245619   2.200   6.314   0.700 -0.0197 -0.2930  0.3977
 8043TIP3    H145620   2.133   6.356   0.646  1.3420  1.4569 -0.0330
 8043TIP3    H245621   2.219   6.232   0.656 -0.4664  0.1179 -0.5943
 8044TIP3   OH245622   6.626   0.154   0.517 -0.3613  0.1811 -0.4180
 8044TIP3    H145623   6.562   0.090   0.485 -0.6143 -0.4537  1.2516
 8044TIP3    H245624   6.579   0.237   0.519 -1.2596 -0.3444  1.1087
 8045TIP3   OH245625   4.372   3.431   1.373  0.5510  0.0708  0.5312
 8045TIP3    H145626   4.400   3.502   1.316 -2.2920 -0.1132 -1.3468
 8045TIP3    H245627   4.365   3.470   1.460 -0.8119  2.1440 -0.4270
 8046TIP3   OH245628   2.504   3.717   3.375  0.2624  0.2614  0.0217
 8046TIP3    H145629   2.447   3.778   3.327 -0.2440  1.0948  1.6116
 8046TIP3    H245630   2.559   3.774   3.430 -0.6806 -0.6993  2.0576
 8047TIP3   OH245631   0.166   5.239   0.662  0.0532 -0.2021  0.3259
 8047TIP3    H145632   0.207   5.280   0.738  0.4211 -0.0683  0.0580
 8047TIP3    H245633   0.233   5.179   0.628  0.1440  0.2433 -0.2944
 8048TIP3   OH245634   0.149   2.336  10.931 -0.3648  0.1676 -0.1782
 8048TIP3    H145635   0.185   2.405  10.986 -0.1613  0.4524 -0.6580
 8048TIP3    H245636   0.226   2.295  10.891 -0.5373  0.4163 -0.7783
 8049TIP3   OH245637   3.355   5.763   3.113 -0.0096  0.6165 -0.1430
 8049TIP3    H145638   3.269   5.720   3.117 -0.8599  2.1385 -1.1040
 8049TIP3    H245639   3.397   5.740   3.196 -1.8746  0.8816  0.9361
 8050TIP3   OH245640   0.754   4.987   4.972  0.4094 -0.2757 -0.7737
 8050TIP3    H145641   0.793   5.071   4.946  0.9201 -0.0706  0.5803
 8050TIP3    H245642   0.811   4.921   4.932  0.5026  0.0147 -1.1284
 8051TIP3   OH245643   5.713   0.423   2.930  0.2256 -0.2192 -0.2406
 8051TIP3    H145644   5.706   0.413   2.835  0.6147 -0.3075 -0.2620
 8051TIP3    H245645   5.771   0.351   2.957  0.9742  0.4420 -0.0662
 8052TIP3   OH245646   2.750   4.023   1.805 -0.1784 -0.4187  0.5716
 8052TIP3    H145647   2.685   4.080   1.847 -0.4559 -1.1342  1.1435
 8052TIP3    H245648   2.701   3.979   1.736 -0.1429 -0.4695  0.5793
 8053TIP3   OH245649   4.206   2.569   4.201  0.1489 -0.1097  0.2590
 8053TIP3    H145650   4.214   2.540   4.111  0.2607 -0.6149  0.4312
 8053TIP3    H245651   4.288   2.542   4.242 -0.3324 -0.8224  0.7739
 8054TIP3   OH245652   6.135   3.840   4.326  0.0339 -0.0218  0.2644
 8054TIP3    H145653   6.092   3.889   4.256 -0.2094 -3.1312 -1.9846
 8054TIP3    H245654   6.206   3.898   4.355 -1.5452  2.5184 -0.5584
 8055TIP3   OH245655   4.820   2.438  16.359  0.3536 -0.1559 -0.0641
 8055TIP3    H145656   4.772   2.486  16.427  0.8604  0.5223 -0.1753
 8055TIP3    H245657   4.784   2.472  16.276  1.0418  0.3972 -0.1497
 8056TIP3   OH245658   6.602   4.187  14.711 -0.2466 -0.5820  0.4702
 8056TIP3    H145659   6.538   4.167  14.778 -0.6505 -3.3823 -0.6317
 8056TIP3    H245660   6.552   4.226  14.639 -0.1548  0.2952  0.8651
 8057TIP3   OH245661   0.520   1.993   2.391 -0.1738 -0.0987  0.0781
 8057TIP3    H145662   0.588   2.045   2.347 -0.9558 -1.2407 -2.6842
 8057TIP3    H245663   0.439   2.042   2.375 -0.3905 -0.2028  0.8439
 8058TIP3   OH245664   1.553   4.384  12.698 -0.8284 -0.1856  0.0057
 8058TIP3    H145665   1.567   4.390  12.792 -1.0041  3.5196 -0.0449
 8058TIP3    H245666   1.632   4.341  12.665 -0.0663 -0.2076  1.7249
 8059TIP3   OH245667   3.559   1.457   0.197 -0.3674  0.8349  0.3481
 8059TIP3    H145668   3.468   1.426   0.190 -0.8823  2.2667  0.2883
 8059TIP3    H245669   3.612   1.380   0.178 -1.4701 -1.1006  4.1080
 8060TIP3   OH245670   3.318   4.329   5.719  0.2638 -0.0824 -0.1771
 8060TIP3    H145671   3.305   4.272   5.643 -0.9165  0.2679 -0.2548
 8060TIP3    H245672   3.232   4.335   5.761  0.6075  0.7552  0.4597
 8061TIP3   OH245673   6.251   2.377  16.405  0.0294 -0.2234 -0.4273
 8061TIP3    H145674   6.196   2.449  16.376 -0.1616  0.1994  0.9214
 8061TIP3    H245675   6.226   2.362  16.496 -0.3000 -2.3383 -0.8076
 8062TIP3   OH245676   4.187   0.018   5.382 -0.0277  0.2083 -0.5242
 8062TIP3    H145677   4.180  -0.010   5.473  0.5068  0.5471 -0.3774
 8062TIP3    H245678   4.136   0.099   5.378  0.5710  0.6014 -0.3457
 8063TIP3   OH245679   0.732   4.984   3.469  0.1185 -0.4723 -0.0772
 8063TIP3    H145680   0.759   4.995   3.378  0.6965 -1.2404 -0.0034
 8063TIP3    H245681   0.638   5.002   3.468 -0.1255 -1.7066 -1.0560
 8064TIP3   OH245682   3.402   2.909  11.559 -0.1819  0.0331  0.1187
 8064TIP3    H145683   3.390   2.903  11.464  1.3320 -1.2727 -0.0356
 8064TIP3    H245684   3.399   2.818  11.589  0.7341  0.3171  1.1213
 8065TIP3   OH245685   1.896   4.455  11.984 -0.6638  0.2062 -0.0142
 8065TIP3    H145686   1.943   4.517  11.928 -0.2625 -1.6521 -1.8827
 8065TIP3    H245687   1.804   4.473  11.969 -0.5721  1.4694  0.8304
 8066TIP3   OH245688   3.555   6.103  12.703 -0.0374  0.7378  0.4546
 8066TIP3    H145689   3.631   6.045  12.690  0.9579  1.7224  1.5678
 8066TIP3    H245690   3.493   6.050  12.753 -0.6885 -0.5214 -1.5905
 8067TIP3   OH245691   1.321   1.461  15.573 -0.0605  0.1299  0.1619
 8067TIP3    H145692   1.304   1.541  15.524 -0.1568 -0.1367 -0.2486
 8067TIP3    H245693   1.286   1.391  15.518 -1.4007 -0.0744  1.2365
 8068TIP3   OH245694   5.339   0.462  11.792 -0.6113  0.3169  0.2638
 8068TIP3    H145695   5.354   0.555  11.779  0.6767  0.4022  1.9697
 8068TIP3    H245696   5.279   0.457  11.866 -0.3234 -0.2164  0.4695
 8069TIP3   OH245697   2.511   5.650   3.684  0.7555  0.0447  0.2077
 8069TIP3    H145698   2.473   5.635   3.598  0.9017  0.8281 -0.0015
 8069TIP3    H245699   2.541   5.741   3.682 -0.0729  0.3808  1.3868
 8070TIP3   OH245700   1.505   5.772  15.750  0.5155 -0.1860  0.1713
 8070TIP3    H145701   1.412   5.782  15.729  0.0765 -0.7770  1.6968
 8070TIP3    H245702   1.547   5.757  15.666 -1.3171 -3.8573 -0.3019
 8071TIP3   OH245703   5.493   3.174  15.400  0.0080  0.3514 -0.4854
 8071TIP3    H145704   5.423   3.223  15.443 -0.7401 -1.2555  0.1912
 8071TIP3    H245705   5.568   3.184  15.458 -0.6151 -0.6617  0.5325
 8072TIP3   OH245706   4.413   6.109  11.638  0.5141  0.0129 -0.1008
 8072TIP3    H145707   4.378   6.189  11.599 -3.1048 -0.3834  1.8252
 8072TIP3    H245708   4.461   6.140  11.716 -0.4295  0.3921  0.3520
 8073TIP3   OH245709   1.895   6.723   3.212 -0.2348 -0.0982  0.4903
 8073TIP3    H145710   1.906   6.812   3.177  2.1481 -0.8662 -0.9317
 8073TIP3    H245711   1.822   6.686   3.162  0.2323  0.3105 -0.5103
 8074TIP3   OH245712   0.644   5.472  12.024  0.6175 -0.1295  0.2403
 8074TIP3    H145713   0.670   5.390  11.984  1.2960 -0.8223  1.9979
 8074TIP3    H245714   0.726   5.521  12.033  0.2008  0.8228 -0.9174
 8075TIP3   OH245715   0.208   0.686   3.366 -0.2370 -0.1629  0.0878
 8075TIP3    H145716   0.201   0.713   3.274  0.5594 -0.7182 -0.1495
 8075TIP3    H245717   0.231   0.593   3.362 -4.3875 -1.4164  0.8684
 8076TIP3   OH245718   3.746   2.220   3.135  0.5692  0.5871  0.3108
 8076TIP3    H145719   3.744   2.276   3.212  0.3488  0.6785  0.2396
 8076TIP3    H245720   3.654   2.207   3.112  0.6550  1.8068 -0.8253
 8077TIP3   OH245721   3.346   1.818  16.454 -0.0794 -0.2640  0.5536
 8077TIP3    H145722   3.292   1.837  16.377 -0.3717 -0.1940  0.7702
 8077TIP3    H245723   3.282   1.805  16.525  0.2235  1.5319  1.1983
 8078TIP3   OH245724   2.015   4.963   2.822 -0.3220 -0.3234 -0.0801
 8078TIP3    H145725   2.042   4.886   2.872  0.1012 -0.1994 -0.1134
 8078TIP3    H245726   2.068   5.034   2.856 -1.6120  0.2398  0.8318
 8079TIP3   OH245727   6.044   5.072   4.077  0.4909 -0.1487 -0.1202
 8079TIP3    H145728   6.049   5.113   3.990  0.7441 -2.1801 -1.1286
 8079TIP3    H245729   5.958   5.028   4.077 -0.4500  1.5367  1.5204
 8080TIP3   OH245730   3.674   3.538  16.161 -0.2132  0.3905  0.2572
 8080TIP3    H145731   3.725   3.494  16.229 -2.8144 -2.6242  0.4810
 8080TIP3    H245732   3.612   3.593  16.209  0.0069  0.7419  0.1467
 8081TIP3   OH245733   3.309   3.872   2.419  0.5695  0.2773  0.9121
 8081TIP3    H145734   3.379   3.811   2.442  0.9823  1.1859  2.2072
 8081TIP3    H245735   3.307   3.872   2.323  0.4555 -1.8391  0.8633
 8082TIP3   OH245736   4.738   0.924   0.469 -0.1903 -0.0220  0.4366
 8082TIP3    H145737   4.832   0.928   0.482  0.0704 -1.7489 -0.5922
 8082TIP3    H245738   4.708   0.859   0.533 -0.9209  1.4650  1.6797
 8083TIP3   OH245739   0.425   5.573  15.935  0.3086 -0.0904  0.4367
 8083TIP3    H145740   0.417   5.553  15.842 -2.7001 -0.2446  0.6479
 8083TIP3    H245741   0.481   5.504  15.970  0.4505 -0.7453 -1.0191
 8084TIP3   OH245742   1.701   6.164  11.554 -0.2468 -0.0800  0.0714
 8084TIP3    H145743   1.743   6.101  11.494 -0.4982 -1.1824  1.0238
 8084TIP3    H245744   1.695   6.244  11.502  1.3674 -0.4064 -0.7151
 8085TIP3   OH245745   3.918   2.546   0.949 -0.3749  0.0981 -0.3364
 8085TIP3    H145746   3.901   2.626   0.900 -0.9502  1.5346  2.0142
 8085TIP3    H245747   3.840   2.535   1.004  0.0942 -1.5702  0.0465
 8086TIP3   OH245748   2.796   4.364   1.289 -0.6150  0.4815  0.3428
 8086TIP3    H145749   2.887   4.343   1.269 -0.6975  0.6571 -0.2359
 8086TIP3    H245750   2.801   4.447   1.337 -0.5598  1.4710 -1.2684
 8087TIP3   OH245751   5.320   3.201   4.703 -0.4897  0.4646  0.3214
 8087TIP3    H145752   5.359   3.247   4.629  1.1088 -2.1178 -0.5763
 8087TIP3    H245753   5.395   3.174   4.756 -1.5320  1.1750  2.2507
 8088TIP3   OH245754   4.942   1.614   5.535 -0.4588 -0.1120  0.2465
 8088TIP3    H145755   4.922   1.675   5.465  0.0786  1.3661  1.3194
 8088TIP3    H245756   4.857   1.578   5.561 -0.8649  0.6304 -0.0288
 8089TIP3   OH245757   1.875   2.981  14.131  0.1968  0.1014 -0.2782
 8089TIP3    H145758   1.873   3.045  14.203  0.7733  1.4005 -1.3737
 8089TIP3    H245759   1.785   2.976  14.100 -0.0004 -0.2481  0.3301
 8090TIP3   OH245760   1.614   1.073   4.526  0.2037  0.1323  0.1973
 8090TIP3    H145761   1.546   1.080   4.592  0.7940  0.1564  0.8180
 8090TIP3    H245762   1.569   1.043   4.447 -0.4231 -0.4025  0.7530
 8091TIP3   OH245763   0.953   0.718  15.524 -0.2991  0.3067 -0.0705
 8091TIP3    H145764   1.006   0.642  15.501 -0.0206  0.7354 -0.8967
 8091TIP3    H245765   0.885   0.684  15.582  1.0698 -0.1944  1.3056
 8092TIP3   OH245766   2.224   5.242   2.122 -0.4602  0.7013 -0.2247
 8092TIP3    H145767   2.312   5.258   2.088 -0.7872 -0.7088 -1.8678
 8092TIP3    H245768   2.234   5.168   2.182 -0.5669  0.3449 -0.6444
 8093TIP3   OH245769   3.249   1.467   1.344  0.7715  0.5878 -0.2680
 8093TIP3    H145770   3.324   1.526   1.343  2.4624 -1.4653 -1.7766
 8093TIP3    H245771   3.178   1.520   1.382  2.3588  3.2981 -0.8187
 8094TIP3   OH245772   0.264   4.871   2.160  0.0662  1.0298  0.3038
 8094TIP3    H145773   0.346   4.920   2.149  1.3002 -0.9286  0.2348
 8094TIP3    H245774   0.221   4.876   2.074  1.6502 -0.4456 -0.6483
 8095TIP3   OH245775   4.077   3.115  13.708  0.4168 -0.1580 -0.0748
 8095TIP3    H145776   4.068   3.020  13.706 -0.0820 -0.1292  0.4873
 8095TIP3    H245777   3.988   3.147  13.722  0.3336  0.4639 -1.7605
 8096TIP3   OH245778   0.147   1.617  13.849  0.4712  0.0112 -0.0480
 8096TIP3    H145779   0.233   1.658  13.858 -0.5091  2.1410  0.1400
 8096TIP3    H245780   0.093   1.660  13.915 -0.8075 -1.1623 -0.2864
 8097TIP3   OH245781   6.607   3.337  15.482  0.6160 -0.0317  0.2160
 8097TIP3    H145782   6.620   3.245  15.457  0.6651 -0.0389  0.2694
 8097TIP3    H245783   6.564   3.376  15.406 -2.1790 -0.7850  1.2879
 8098TIP3   OH245784   3.981   0.528  15.572  0.4033 -0.4242  0.3874
 8098TIP3    H145785   3.898   0.551  15.615 -0.4642 -0.4043 -1.2308
 8098TIP3    H245786   4.044   0.591  15.607 -0.8828  1.4028 -0.4217
 8099TIP3   OH245787   3.305   5.590  12.802 -0.3418  1.0527 -0.1556
 8099TIP3    H145788   3.385   5.604  12.853 -1.1601 -0.6685  1.7609
 8099TIP3    H245789   3.239   5.644  12.845 -0.4162  1.8872 -1.2697
 8100TIP3   OH245790   4.115   0.780  12.405  0.0398  0.0077 -0.7386
 8100TIP3    H145791   4.205   0.812  12.416  0.0298 -0.0875 -0.3609
 8100TIP3    H245792   4.113   0.696  12.452 -0.0021 -0.4357 -1.5174
 8101TIP3   OH245793   5.080   4.935  11.697 -0.2998  0.3204 -0.0639
 8101TIP3    H145794   5.076   4.840  11.709  0.8664  0.4723  1.8937
 8101TIP3    H245795   5.173   4.953  11.684 -0.5637  1.1727 -0.8492
 8102TIP3   OH245796   2.912   4.909  13.052  0.1229  1.0571  0.2283
 8102TIP3    H145797   2.897   5.003  13.036 -0.5914  1.2555  1.8260
 8102TIP3    H245798   2.921   4.902  13.147 -0.2758 -0.5607  0.1768
 8103TIP3   OH245799   5.084   1.969  12.632 -0.4398  0.1084  0.4590
 8103TIP3    H145800   5.142   2.045  12.623  0.4657 -0.4339  1.4154
 8103TIP3    H245801   4.998   2.007  12.649 -0.3004  0.9325 -0.5567
 8104TIP3   OH245802   6.281   4.883  12.241 -0.4270 -0.6043  0.1853
 8104TIP3    H145803   6.227   4.924  12.308  0.8180  1.1786  0.1615
 8104TIP3    H245804   6.352   4.945  12.226  1.7683 -2.9200  0.3548
 8105TIP3   OH245805   4.780   2.739  11.702  0.2939  0.2888 -0.1285
 8105TIP3    H145806   4.830   2.804  11.752  0.3222  0.9012 -0.9472
 8105TIP3    H245807   4.808   2.752  11.611 -0.5642 -0.0933 -0.4514
 8106TIP3   OH245808   6.321   6.426   1.693  0.3574  0.7304  0.3517
 8106TIP3    H145809   6.349   6.467   1.775 -2.2881 -1.0447  2.3059
 8106TIP3    H245810   6.254   6.485   1.659 -0.3445  0.2214  0.8375
 8107TIP3   OH245811   4.706   2.541   2.204  0.3485 -0.8390  0.3696
 8107TIP3    H145812   4.620   2.562   2.169 -0.0993  2.9420  3.1119
 8107TIP3    H245813   4.697   2.451   2.237 -2.2973 -0.8061 -0.0674
 8108TIP3   OH245814   3.058   2.838  16.772  0.0570 -0.7667 -0.0492
 8108TIP3    H145815   3.025   2.751  16.796 -0.7328 -0.3413  0.4461
 8108TIP3    H245816   2.989   2.898  16.801  1.4534  0.1849  1.4255
 8109TIP3   OH245817   0.939   1.236  12.447 -1.0962  0.0232 -0.4965
 8109TIP3    H145818   1.021   1.280  12.471  0.8855 -2.9394 -1.2960
 8109TIP3    H245819   0.892   1.226  12.530 -0.2391  0.9757  0.1285
 8110TIP3   OH245820   0.270   3.920   0.149 -0.0429  0.3034  0.3443
 8110TIP3    H145821   0.250   3.956   0.062  3.3950 -2.4075 -1.8887
 8110TIP3    H245822   0.333   3.982   0.186 -0.0816  0.5552 -0.0010
 8111TIP3   OH245823   5.149   2.629  13.423  0.4116  0.1410 -0.1739
 8111TIP3    H145824   5.118   2.678  13.346  0.8032  0.3961 -0.1723
 8111TIP3    H245825   5.101   2.666  13.496  2.1593  1.9753  0.1393
 8112TIP3   OH245826   2.953   1.201   1.137  0.1068  0.1269  0.0011
 8112TIP3    H145827   3.021   1.244   1.085 -0.4869  0.3676 -0.5784
 8112TIP3    H245828   2.999   1.130   1.183  0.4408 -0.8178 -1.7083
 8113TIP3   OH245829   2.537   2.025  15.587  0.0402 -0.0951  0.6090
 8113TIP3    H145830   2.520   2.118  15.595  1.0925  0.0676  1.1428
 8113TIP3    H245831   2.472   1.993  15.524 -0.0123  1.0793  0.0568
 8114TIP3   OH245832   5.371   4.617   1.301  0.3259 -0.1127  0.0660
 8114TIP3    H145833   5.440   4.611   1.367 -0.8165  0.2347  1.3572
 8114TIP3    H245834   5.306   4.552   1.329 -1.1002  1.4126  0.4637
 8115TIP3   OH245835   2.124   2.323   2.501 -0.2666  0.2989 -0.4067
 8115TIP3    H145836   2.075   2.258   2.551 -0.7988  0.3604 -0.8401
 8115TIP3    H245837   2.175   2.271   2.438  3.6236 -0.1820  2.7067
 8116TIP3   OH245838   6.157   0.259  10.375  0.6221 -0.3835 -0.0225
 8116TIP3    H145839   6.204   0.260  10.459 -0.1277  0.1518  0.4052
 8116TIP3    H245840   6.197   0.328  10.323 -0.6734  1.1524  0.9223
 8117TIP3   OH245841   6.461   1.236  13.895 -0.2009 -0.5263  0.1133
 8117TIP3    H145842   6.539   1.292  13.889 -1.6135  1.4797 -0.3725
 8117TIP3    H245843   6.455   1.194  13.809 -0.3405  0.2971 -0.2884
 8118TIP3   OH245844   6.006   6.708  12.146  0.3003  0.5527  0.1779
 8118TIP3    H145845   6.006   6.803  12.164  3.0143  0.6814  0.0079
 8118TIP3    H245846   5.985   6.701  12.053 -1.4799  0.8279  0.5289
 8119TIP3   OH245847   2.589   2.831   5.498  0.2342 -0.4463  0.7694
 8119TIP3    H145848   2.679   2.821   5.466  0.0588  1.1192 -0.3706
 8119TIP3    H245849   2.587   2.920   5.534 -1.0189 -0.1754  0.1111
 8120TIP3   OH245850   5.452   0.426   2.831  0.5168 -0.9552  0.2482
 8120TIP3    H145851   5.538   0.386   2.845  0.1051 -1.9537  0.0239
 8120TIP3    H245852   5.462   0.476   2.750  1.1695 -0.1938  0.7753
 8121TIP3   OH245853   6.037   6.566  13.785 -0.2747 -0.0805 -0.9041
 8121TIP3    H145854   6.073   6.560  13.697  0.7272 -0.2534 -0.4947
 8121TIP3    H245855   5.957   6.617  13.774  0.6967  1.3743 -1.6807
 8122TIP3   OH245856   3.302   0.198   5.664 -0.2796  0.7330  0.1293
 8122TIP3    H145857   3.240   0.134   5.698 -0.5161  1.2962  0.7884
 8122TIP3    H245858   3.271   0.217   5.576  0.1544 -0.5069 -0.3102
 8123TIP3   OH245859   0.023   1.954   5.995  0.0616 -0.0981  0.5794
 8123TIP3    H145860   0.096   1.894   6.012 -0.0782  0.1613  2.3039
 8123TIP3    H245861  -0.053   1.897   5.988  0.1764 -0.2406  0.4681
 8124TIP3   OH245862   0.319   5.833   3.010  0.1945 -0.1874  0.2978
 8124TIP3    H145863   0.247   5.890   3.040  0.8653  0.7588  0.1435
 8124TIP3    H245864   0.305   5.751   3.058 -1.7970 -0.5273 -0.7535
 8125TIP3   OH245865   5.406   2.434  13.457 -0.7135  0.3325 -0.1130
 8125TIP3    H145866   5.461   2.462  13.384  2.9388  3.4405  3.3470
 8125TIP3    H245867   5.347   2.508  13.472  0.6692  1.1398  1.7498
 8126TIP3   OH245868   4.611   4.598   1.296 -0.2870  0.1184  0.3075
 8126TIP3    H145869   4.696   4.608   1.253  0.4139 -0.1822  1.5568
 8126TIP3    H245870   4.572   4.521   1.255 -0.0890  0.4318 -0.4803
 8127TIP3   OH245871   6.353   1.725  11.077  0.2358  0.2510  0.1233
 8127TIP3    H145872   6.430   1.697  11.028  0.2787  2.1229 -0.9855
 8127TIP3    H245873   6.285   1.662  11.052  1.1444 -0.8715  0.4002
 8128TIP3   OH245874   1.148   3.965  12.541 -0.7374  0.0589 -0.2760
 8128TIP3    H145875   1.073   3.964  12.481 -1.3001 -0.0802  0.4241
 8128TIP3    H245876   1.111   3.947  12.627 -0.0420  0.9942  0.2374
 8129TIP3   OH245877   2.675   2.402   1.146  0.0196  0.1550  0.1428
 8129TIP3    H145878   2.699   2.491   1.170 -1.9329  0.8985 -0.4294
 8129TIP3    H245879   2.581   2.407   1.127  0.0102 -1.8717 -0.6026
 8130TIP3   OH245880   3.503   2.101  16.736 -0.4754 -0.2380  0.8302
 8130TIP3    H145881   3.550   2.094  16.819  0.7900  1.0145  0.2780
 8130TIP3    H245882   3.570   2.084  16.670 -0.5096  2.4724 -0.0136
 8131TIP3   OH245883   3.414   3.738   4.481  0.1976 -0.1560 -0.6219
 8131TIP3    H145884   3.319   3.744   4.470  0.1031 -0.8568 -0.2539
 8131TIP3    H245885   3.435   3.804   4.547 -0.0763 -0.1834 -0.5071
 8132TIP3   OH245886   3.441   4.728  12.436 -0.5602 -0.3962 -0.2168
 8132TIP3    H145887   3.507   4.691  12.378  0.0753  0.2212  0.0975
 8132TIP3    H245888   3.367   4.749  12.379 -0.4803 -1.0776 -0.5744
 8133TIP3   OH245889   1.658   1.776  13.826  0.7143 -0.2471  0.7038
 8133TIP3    H145890   1.565   1.799  13.830  0.1173 -1.7929 -1.8184
 8133TIP3    H245891   1.702   1.860  13.816 -0.5468  0.4322  0.5923
 8134TIP3   OH245892   2.231   0.225  15.015 -0.4732 -0.5102  0.0580
 8134TIP3    H145893   2.161   0.179  15.063 -0.8243 -1.1029 -0.9788
 8134TIP3    H245894   2.199   0.229  14.925  1.5030 -2.2274 -0.8064
 8135TIP3   OH245895   1.034   1.433  17.165  0.2050 -0.4401 -0.1296
 8135TIP3    H145896   1.060   1.477  17.247  1.0696  1.3173 -1.2796
 8135TIP3    H245897   0.965   1.373  17.192 -1.1988  1.7525  1.5814
 8136TIP3   OH245898   2.635   3.040  15.245 -0.6433  0.0675  0.4139
 8136TIP3    H145899   2.549   3.034  15.286 -0.4756 -2.0410  0.5498
 8136TIP3    H245900   2.696   3.010  15.313 -0.1071 -1.0683 -0.5298
 8137TIP3   OH245901   0.109   4.351   4.500 -0.3500 -0.4111  0.2716
 8137TIP3    H145902   0.089   4.434   4.544  0.4628  0.2447 -0.5626
 8137TIP3    H245903   0.023   4.315   4.477 -0.6925  0.9949 -0.7905
 8138TIP3   OH245904   1.325   1.575   2.828  0.3469 -0.4624  0.3563
 8138TIP3    H145905   1.416   1.590   2.854 -0.3126 -0.5705  2.9843
 8138TIP3    H245906   1.282   1.660   2.842 -0.2932 -0.8576  0.8500
 8139TIP3   OH245907   1.435   0.472   4.256 -0.5592  0.3195 -0.5211
 8139TIP3    H145908   1.525   0.476   4.288 -0.0569  1.0097 -1.9324
 8139TIP3    H245909   1.417   0.378   4.250  0.0736  0.1714 -0.2440
 8140TIP3   OH245910   2.050   3.258  11.175 -0.3481 -0.1337 -0.3782
 8140TIP3    H145911   2.058   3.168  11.144  0.7154 -0.2498  0.2066
 8140TIP3    H245912   2.102   3.310  11.114 -0.8590  0.0802 -0.6420
 8141TIP3   OH245913   1.541   4.882   6.624 -0.0705 -0.1395 -0.7186
 8141TIP3    H145914   1.579   4.794   6.619  0.0943 -0.1808  0.7888
 8141TIP3    H245915   1.608   4.940   6.588  0.2044 -0.5358 -0.8435
 8142TIP3   OH245916   5.287   1.061   3.593 -0.4608 -0.3430 -0.2537
 8142TIP3    H145917   5.322   1.010   3.519  1.5239 -0.5684  0.7776
 8142TIP3    H245918   5.292   1.152   3.562  1.7789 -0.2917  0.0579
 8143TIP3   OH245919   0.462   3.166   5.199  0.1927 -0.1607 -0.2396
 8143TIP3    H145920   0.428   3.140   5.285 -1.2557  0.1326 -0.6876
 8143TIP3    H245921   0.531   3.230   5.219  0.5899 -0.8714  0.7210
 8144TIP3   OH245922   2.603   2.450   1.717 -0.0456 -0.2371 -0.0203
 8144TIP3    H145923   2.658   2.372   1.720 -0.7203 -0.7045  1.1765
 8144TIP3    H245924   2.560   2.452   1.803 -3.3371 -0.9782 -1.5013
 8145TIP3   OH245925   5.149   6.812  15.772  0.2445  0.0390 -0.8298
 8145TIP3    H145926   5.228   6.861  15.796  0.9219 -0.3433 -2.1667
 8145TIP3    H245927   5.142   6.743  15.837  0.5397  0.5811 -0.2180
 8146TIP3   OH245928   6.619   6.662   1.555 -0.3873  0.1454 -0.0406
 8146TIP3    H145929   6.593   6.705   1.473  0.2810 -0.3140 -0.5016
 8146TIP3    H245930   6.566   6.705   1.622 -1.7121 -0.1989 -0.8438
 8147TIP3   OH245931   1.017   0.094  14.921 -0.0351  0.2279  0.4707
 8147TIP3    H145932   1.019   0.042  14.841 -1.8993  1.7226 -0.6481
 8147TIP3    H245933   1.108   0.123  14.934 -0.0742  2.3347 -2.8338
 8148TIP3   OH245934   1.803   6.119   1.931 -0.1749 -0.3197 -0.0072
 8148TIP3    H145935   1.818   6.154   2.019  0.7931  2.6181 -1.1941
 8148TIP3    H245936   1.824   6.193   1.873 -2.2500 -1.6614 -2.6469
 8149TIP3   OH245937   1.076   1.131   1.607 -0.0531 -0.3422  0.3223
 8149TIP3    H145938   1.163   1.126   1.647 -0.2294 -2.1742  0.5833
 8149TIP3    H245939   1.086   1.087   1.523 -0.2009  1.5686 -0.7509
 8150TIP3   OH245940   0.067   0.872  11.240  0.3099  0.0789  0.5846
 8150TIP3    H145941   0.018   0.878  11.157 -0.3694 -3.1066  0.6100
 8150TIP3    H245942   0.100   0.960  11.255 -0.0972  0.9364 -2.7433
 8151TIP3   OH245943   3.557   0.474  11.582 -0.2969 -0.7129  0.1725
 8151TIP3    H145944   3.564   0.519  11.498 -0.9825 -1.9154 -0.5560
 8151TIP3    H245945   3.523   0.540  11.643 -1.0856 -0.1854 -0.8182
 8152TIP3   OH245946   2.891   0.944   5.244 -0.5681 -0.0578  0.5888
 8152TIP3    H145947   2.878   0.901   5.328  2.0027 -1.3081  0.4542
 8152TIP3    H245948   2.817   0.917   5.190 -0.6889 -1.6992  1.5295
 8153TIP3   OH245949   6.771   5.766   2.028 -0.4469  0.2107  0.2792
 8153TIP3    H145950   6.860   5.760   1.995 -0.2908 -0.1065  0.7575
 8153TIP3    H245951   6.720   5.799   1.953  0.0668  0.4024  0.0114
 8154TIP3   OH245952   1.485   4.792   6.317  0.2346  0.1567 -0.3443
 8154TIP3    H145953   1.532   4.709   6.330 -1.5799 -0.7682  0.6708
 8154TIP3    H245954   1.512   4.820   6.230 -1.4744 -3.1747 -2.1455
 8155TIP3   OH245955   2.719   5.972  12.336  0.5290 -0.2986 -0.4059
 8155TIP3    H145956   2.737   6.003  12.425  0.5964 -1.3594 -0.0406
 8155TIP3    H245957   2.806   5.953  12.300  0.4597 -0.5026 -0.4627
 8156TIP3   OH245958   4.995   6.587  11.913 -0.0548 -0.3557 -0.3601
 8156TIP3    H145959   5.063   6.576  11.980  1.7769 -0.4332 -2.1379
 8156TIP3    H245960   4.930   6.520  11.933 -0.4097  0.6572  2.2692
 8157TIP3   OH245961   5.433   1.426   1.594  0.5033  0.0732 -0.7635
 8157TIP3    H145962   5.450   1.401   1.685 -0.5809 -0.9252 -0.8216
 8157TIP3    H245963   5.361   1.489   1.599  0.6411  0.2438 -0.9095
 8158TIP3   OH245964   6.570   2.921   3.156  0.1575 -0.7575  0.5500
 8158TIP3    H145965   6.593   2.971   3.234 -1.3215 -0.8845  1.1001
 8158TIP3    H245966   6.650   2.922   3.102  0.4968  1.2579  1.0188
 8159TIP3   OH245967   6.244   5.372   3.832  0.4390  0.4836 -0.8609
 8159TIP3    H145968   6.188   5.297   3.856  0.0422  1.4914  1.6576
 8159TIP3    H245969   6.186   5.448   3.836  1.0343  1.0848 -2.5581
 8160TIP3   OH245970   1.396   1.613   5.707 -0.2218 -0.4006  0.3961
 8160TIP3    H145971   1.411   1.583   5.618 -1.0787 -1.1396  0.4884
 8160TIP3    H245972   1.482   1.608   5.749  0.4556  1.1724 -0.7231
 8161TIP3   OH245973   2.315   0.375   5.027  0.1130  0.2529  0.3023
 8161TIP3    H145974   2.340   0.318   4.954  1.2897  0.1249  0.7793
 8161TIP3    H245975   2.308   0.462   4.988  0.4209  0.1290 -0.0369
 8162TIP3   OH245976   3.308   2.378   0.968 -0.1020  0.0913 -0.2577
 8162TIP3    H145977   3.363   2.429   0.908  0.5662 -0.0567  0.2235
 8162TIP3    H245978   3.300   2.292   0.925 -0.4252  0.2810 -0.5921
 8163TIP3   OH245979   3.909   0.060  11.118 -0.0305  0.1860 -0.2328
 8163TIP3    H145980   3.899   0.060  11.213 -2.2829 -0.0766 -0.4175
 8163TIP3    H245981   3.947  -0.025  11.098 -0.3266 -0.1013  0.3780
 8164TIP3   OH245982   2.008   2.872  13.226  0.4549 -0.3420 -0.0726
 8164TIP3    H145983   2.008   2.936  13.297 -0.4306 -0.7338  0.3070
 8164TIP3    H245984   2.019   2.787  13.270 -0.2556 -0.6029 -0.3780
 8165TIP3   OH245985   3.406   4.685  10.803  0.0983 -0.3457 -0.3607
 8165TIP3    H145986   3.432   4.731  10.723 -0.3970  0.1257 -0.2506
 8165TIP3    H245987   3.312   4.670  10.793  0.1656 -0.9189 -0.1828
 8166TIP3   OH245988   3.234   6.318  14.493 -0.2525  0.6742 -0.4003
 8166TIP3    H145989   3.149   6.358  14.512  0.3704  1.7275  0.2854
 8166TIP3    H245990   3.289   6.391  14.464  0.2240 -0.1141 -1.5424
 8167TIP3   OH245991   4.635   3.961  16.618  0.6297 -0.2867 -0.0941
 8167TIP3    H145992   4.656   3.875  16.656  0.7727 -0.3899 -0.3987
 8167TIP3    H245993   4.702   3.973  16.551  1.6184  0.8050  1.0478
 8168TIP3   OH245994   3.631   0.067  12.229  0.1064 -0.1160  0.7225
 8168TIP3    H145995   3.581   0.138  12.269 -0.9189 -0.8141  0.7142
 8168TIP3    H245996   3.667   0.105  12.148 -2.1017 -0.1430 -0.3315
 8169TIP3   OH245997   0.877   0.276  12.920 -0.5971 -0.3365 -0.0725
 8169TIP3    H145998   0.899   0.342  12.854 -1.0846 -1.4697 -1.4270
 8169TIP3    H245999   0.783   0.283  12.932 -0.4124  0.4019  1.1503
 8170TIP3   OH246000   2.599   0.555   1.945  0.0380 -0.2719 -0.4531
 8170TIP3    H146001   2.531   0.602   1.897 -0.5351 -0.3609  0.2472
 8170TIP3    H246002   2.554   0.521   2.023  0.1662 -2.7686 -1.3533
 8171TIP3   OH246003   5.953   6.732   5.280  0.4111 -0.2061 -0.4203
 8171TIP3    H146004   6.021   6.730   5.348  1.0267  1.1451 -0.9413
 8171TIP3    H246005   5.959   6.648   5.237  0.6349 -0.7306  0.6027
 8172TIP3   OH246006   1.309   3.556  12.179 -0.3451 -1.1494 -0.0963
 8172TIP3    H146007   1.370   3.483  12.165  1.4219 -0.0388  1.4897
 8172TIP3    H246008   1.224   3.513  12.192  0.2227 -2.7908 -1.3499
 8173TIP3   OH246009   0.003   5.696  16.021 -0.0723  0.3683  0.0519
 8173TIP3    H146010   0.091   5.719  15.993 -0.9389  0.7686 -2.6808
 8173TIP3    H246011  -0.048   5.694  15.940 -3.2396  2.9935  1.7131
 8174TIP3   OH246012   4.895   3.400  16.807  0.2218 -0.2523 -0.3708
 8174TIP3    H146013   4.949   3.401  16.729 -0.0647 -0.5302 -0.5719
 8174TIP3    H246014   4.877   3.493  16.825  1.5773 -0.0849  0.2706
 8175TIP3   OH246015   5.475   2.262  13.984  0.0417  0.6620 -0.5064
 8175TIP3    H146016   5.544   2.200  13.959 -0.4339  0.3122 -0.9878
 8175TIP3    H246017   5.462   2.316  13.907  0.1599  1.0877 -0.2289
 8176TIP3   OH246018   2.763   4.203   2.551 -0.6890 -0.2557 -1.0256
 8176TIP3    H146019   2.776   4.275   2.489 -1.3243  1.6877  0.9828
 8176TIP3    H246020   2.684   4.158   2.519 -1.0954  0.7972 -1.5502
 8177TIP3   OH246021   0.097   1.411  10.613  0.3957 -0.0855  0.0503
 8177TIP3    H146022   0.165   1.345  10.631  2.0334  1.9147  1.8082
 8177TIP3    H246023   0.023   1.384  10.666  0.7378 -0.9179  0.1288
 8178TIP3   OH246024   6.212   0.419  16.505 -0.1039 -0.1258  0.0134
 8178TIP3    H146025   6.276   0.365  16.459 -0.5502 -1.8059  1.2722
 8178TIP3    H246026   6.186   0.485  16.441  1.3384 -0.6809 -1.2011
 8179TIP3   OH246027   6.262   5.381   3.536  0.1209 -0.5974 -0.4174
 8179TIP3    H146028   6.252   5.409   3.627 -0.4706  0.6063 -0.8285
 8179TIP3    H246029   6.255   5.286   3.539 -0.0403 -0.5584  0.7788
 8180TIP3   OH246030   4.423   0.446  12.088  0.3798  0.0680 -0.0310
 8180TIP3    H146031   4.378   0.525  12.118 -0.6655  0.1362 -1.6847
 8180TIP3    H246032   4.467   0.472  12.008  0.1881 -0.9704 -0.4920
 8181TIP3   OH246033   6.167   5.757   2.234  0.3130  0.4092  0.3904
 8181TIP3    H146034   6.257   5.746   2.264  1.5639 -0.9743 -3.2526
 8181TIP3    H246035   6.175   5.802   2.150 -2.2913 -0.6273 -0.5308
 8182TIP3   OH246036   6.546   5.445   1.173  0.3164  0.0057  0.5424
 8182TIP3    H146037   6.497   5.436   1.255 -1.2069 -0.3419 -0.3561
 8182TIP3    H246038   6.587   5.359   1.160 -1.3939 -0.7504 -0.2039
 8183TIP3   OH246039   3.015   0.122   3.694 -0.8614  0.2255 -0.3966
 8183TIP3    H146040   3.040   0.150   3.782 -0.5926 -0.3506 -0.2881
 8183TIP3    H246041   2.933   0.170   3.677 -0.3546  1.1695 -0.2692
 8184TIP3   OH246042   5.378   5.129  11.426 -0.3608 -0.5507 -0.0252
 8184TIP3    H146043   5.352   5.215  11.458 -0.8243 -0.2830 -1.0954
 8184TIP3    H246044   5.454   5.146  11.370  0.0357 -0.9360  0.3892
 8185TIP3   OH246045   0.970   1.880   2.127  0.2217  0.3585 -0.0269
 8185TIP3    H146046   0.967   1.807   2.189  4.0512 -0.1670 -0.1558
 8185TIP3    H246047   1.009   1.952   2.176 -1.0131  1.4666 -0.6285
 8186TIP3   OH246048   4.936   2.422  11.642 -0.5260  0.5561 -0.5581
 8186TIP3    H146049   4.898   2.341  11.608 -1.9819  0.8632  0.2201
 8186TIP3    H246050   4.921   2.417  11.737 -1.0763  1.9291 -0.5466
 8187TIP3   OH246051   2.908   1.981  15.277 -0.4358 -0.1096  0.2352
 8187TIP3    H146052   2.888   2.060  15.328  0.0511  0.2889 -0.1851
 8187TIP3    H246053   2.836   1.921  15.297 -0.0490 -0.1155  1.7184
 8188TIP3   OH246054   2.330   1.472  15.786  0.2459 -0.2604 -0.0041
 8188TIP3    H146055   2.312   1.537  15.719 -0.1194 -0.2094  0.1383
 8188TIP3    H246056   2.339   1.523  15.867  0.8592 -0.3043 -0.0440
 8189TIP3   OH246057   4.536   4.135  12.145  0.2075 -0.0218 -0.4471
 8189TIP3    H146058   4.466   4.100  12.200  0.2966 -0.8824 -0.8787
 8189TIP3    H246059   4.610   4.146  12.205  1.4785 -4.2816 -0.9355
 8190TIP3   OH246060   3.279   1.796   1.501 -0.2946 -0.2284  0.0498
 8190TIP3    H146061   3.352   1.747   1.462  1.2917  0.4649  1.9582
 8190TIP3    H246062   3.203   1.741   1.488  0.8001 -1.5602 -0.9675
 8191TIP3   OH246063   0.799   1.609  11.306  0.2690 -0.5736 -0.0466
 8191TIP3    H146064   0.792   1.553  11.383 -0.2221 -0.5862 -0.1030
 8191TIP3    H246065   0.715   1.653  11.300 -0.3230 -1.8393 -1.5673
 8192TIP3   OH246066   2.738   6.800  17.186  0.3158 -0.5658 -0.2351
 8192TIP3    H146067   2.825   6.787  17.224 -0.2599 -0.5511  1.1671
 8192TIP3    H246068   2.743   6.759  17.100  1.4848 -1.2500  0.1288
 8193TIP3   OH246069   4.134   0.757   5.496 -0.5514 -0.3272  0.2770
 8193TIP3    H146070   4.121   0.789   5.407  0.2408  1.4733  0.7577
 8193TIP3    H246071   4.229   0.759   5.509 -0.7244  0.7011  1.5756
 8194TIP3   OH246072   6.543   5.092  10.753  0.1393 -0.2578  0.1159
 8194TIP3    H146073   6.486   5.158  10.794 -0.5763 -1.3140  0.8880
 8194TIP3    H246074   6.616   5.142  10.717 -0.4090  0.9607  0.6402
 8195TIP3   OH246075   4.413   0.342  13.445 -0.3340 -0.3335 -0.3544
 8195TIP3    H146076   4.380   0.366  13.358 -1.2507  1.1349  0.3756
 8195TIP3    H246077   4.465   0.417  13.472  0.4640 -1.0523  0.1141
 8196TIP3   OH246078   6.190   1.579   3.813 -0.0022 -0.1096 -0.1618
 8196TIP3    H146079   6.234   1.660   3.788  2.2955 -0.7216  1.4726
 8196TIP3    H246080   6.097   1.596   3.800  0.4480  2.5804 -0.3738
 8197TIP3   OH246081   5.426   0.542  17.149 -0.3217 -0.5313 -0.2759
 8197TIP3    H146082   5.480   0.539  17.069 -0.6872 -1.7715 -0.5097
 8197TIP3    H246083   5.392   0.453  17.157 -1.9666  0.1071  0.1300
 8198TIP3   OH246084   2.462   4.039  11.437 -0.2955 -0.3480  0.1718
 8198TIP3    H146085   2.490   4.119  11.483  0.0634 -0.5897  0.3817
 8198TIP3    H246086   2.369   4.032  11.455  0.1030 -1.2376  2.1097
 8199TIP3   OH246087   5.711   3.020  15.707 -0.3166 -0.5357  0.2715
 8199TIP3    H146088   5.706   2.956  15.635 -1.5404  0.0993 -0.2239
 8199TIP3    H246089   5.802   3.051  15.705 -0.4290 -0.2558 -1.2461
 8200TIP3   OH246090   6.767   0.680   5.176  0.5659 -0.1605  0.1907
 8200TIP3    H146091   6.724   0.683   5.262  0.0259  0.8031 -0.0972
 8200TIP3    H246092   6.699   0.704   5.114  0.9947 -0.6921 -0.5056
 8201TIP3   OH246093   2.005   4.252  12.154 -0.2899  0.0583  0.0816
 8201TIP3    H146094   1.975   4.319  12.092 -1.3349  0.4780  0.9957
 8201TIP3    H246095   2.025   4.176  12.099  0.3735  0.9201 -0.9178
 8202TIP3   OH246096   5.038   2.501   2.151  1.0943 -0.2139 -0.0262
 8202TIP3    H146097   5.090   2.421   2.155 -2.3545 -2.6857 -0.0515
 8202TIP3    H246098   4.965   2.485   2.211 -0.5186  2.3141 -1.1365
 8203TIP3   OH246099   6.153   3.082   0.915  0.2299  0.0251 -0.2632
 8203TIP3    H146100   6.212   3.149   0.949 -0.2638  1.1965 -1.6397
 8203TIP3    H246101   6.154   3.095   0.821 -1.0188 -0.9734 -0.4354
 8204TIP3   OH246102   6.154   6.359   3.802  0.1424 -0.1264  0.3756
 8204TIP3    H146103   6.240   6.400   3.790  0.4233 -0.4703  1.1552
 8204TIP3    H246104   6.111   6.369   3.717 -0.2784  2.8441  0.8207
 8205TIP3   OH246105   0.322   6.405   4.339  0.4688  0.5544 -0.7074
 8205TIP3    H146106   0.363   6.418   4.424 -0.2785 -0.6220 -0.1516
 8205TIP3    H246107   0.304   6.494   4.307 -0.1806  0.9981  0.8160
 8206TIP3   OH246108   5.474   5.181   0.418  0.1126 -0.3861 -0.3813
 8206TIP3    H146109   5.381   5.172   0.399  0.1732 -1.3287 -0.2321
 8206TIP3    H246110   5.477   5.224   0.503 -0.1938 -1.0021 -0.0546
 8207TIP3   OH246111   2.918   2.953   3.846  0.1384  0.0275 -0.4988
 8207TIP3    H146112   2.924   2.990   3.758  1.3373  2.4284  0.4769
 8207TIP3    H246113   2.972   2.874   3.844  2.2043  1.3691 -1.3660
 8208TIP3   OH246114   1.616   3.214  13.445  0.0228  0.4785 -0.6966
 8208TIP3    H146115   1.696   3.251  13.409 -0.3274  1.0797 -0.8603
 8208TIP3    H246116   1.595   3.141  13.386 -1.7022  2.7140 -3.0652
 8209TIP3   OH246117   1.989   3.572  14.105  0.6479 -0.2147 -0.6740
 8209TIP3    H146118   2.047   3.540  14.175 -0.3257 -0.9376 -0.1634
 8209TIP3    H246119   1.926   3.627  14.151 -0.5706 -1.4429 -0.7987
 8210TIP3   OH246120   0.557   0.601  15.122 -0.1465 -0.5628 -0.6194
 8210TIP3    H146121   0.551   0.675  15.183  3.0985 -0.2630 -0.4880
 8210TIP3    H246122   0.510   0.530  15.167  1.5278 -0.1613  2.0010
 8211TIP3   OH246123   3.861   2.300   3.835 -0.1209 -0.5960  0.3020
 8211TIP3    H146124   3.804   2.278   3.762  0.5206 -0.2128 -0.3277
 8211TIP3    H246125   3.947   2.266   3.809  0.6599  1.6280 -0.2120
 8212TIP3   OH246126   2.097   4.223   2.084 -0.0387 -0.4034  0.1354
 8212TIP3    H146127   2.126   4.305   2.124 -0.2735 -1.2725  2.2037
 8212TIP3    H246128   2.007   4.212   2.115 -0.6582 -0.5483 -1.6253
 8213TIP3   OH246129   0.180   5.121   4.793  0.1720 -0.4356  0.6861
 8213TIP3    H146130   0.207   5.035   4.824  0.2195 -0.4669  0.5555
 8213TIP3    H246131   0.132   5.159   4.867 -3.6343 -2.2403 -0.6262
 8214TIP3   OH246132   4.607   5.015  13.263 -0.3552 -0.4332 -0.0039
 8214TIP3    H146133   4.650   5.096  13.290 -0.5339 -0.4440  0.3125
 8214TIP3    H246134   4.599   5.023  13.168 -0.0462 -0.2399 -0.0154
 8215TIP3   OH246135   2.338   6.674  13.273 -0.1155 -0.3099 -0.1151
 8215TIP3    H146136   2.282   6.732  13.222 -0.8913  0.7802  1.8539
 8215TIP3    H246137   2.408   6.730  13.306  2.0846 -1.5920 -2.2930
 8216TIP3   OH246138   2.134   0.238  14.745  0.1484  0.0574 -0.3291
 8216TIP3    H146139   2.085   0.319  14.732 -0.1820 -0.2652 -1.1557
 8216TIP3    H246140   2.080   0.170  14.705  0.8289 -0.4457 -0.4209
 8217TIP3   OH246141   2.287   6.177  12.926 -0.2143  0.4210  0.1030
 8217TIP3    H146142   2.277   6.219  13.012 -1.2560  2.4093 -0.9147
 8217TIP3    H246143   2.380   6.159  12.918  0.0434  1.1839  1.2097
 8218TIP3   OH246144   4.604   0.941   2.559  0.3078 -0.9997  0.6275
 8218TIP3    H146145   4.606   0.909   2.469  1.4153  2.0115 -0.5323
 8218TIP3    H246146   4.550   1.020   2.556 -0.0380 -1.0832  2.7325
 8219TIP3   OH246147   4.040   4.006  11.576  0.7749 -0.1381 -0.4257
 8219TIP3    H146148   4.039   4.041  11.487 -3.5337  1.4102 -0.0189
 8219TIP3    H246149   4.053   4.083  11.632  0.0319 -0.5411  0.3279
 8220TIP3   OH246150   6.190   0.749   6.338  0.0426 -0.9463  0.4408
 8220TIP3    H146151   6.272   0.799   6.338  0.1241 -1.0194  2.1918
 8220TIP3    H246152   6.126   0.808   6.379 -0.3552 -1.5385  0.6857
 8221TIP3   OH246153   6.167   0.002   5.120 -0.1646 -0.0174  0.0537
 8221TIP3    H146154   6.127   0.033   5.039  0.1450 -1.1467 -0.5588
 8221TIP3    H246155   6.101  -0.056   5.159 -0.3595  0.6121  0.6776
 8222TIP3   OH246156   2.590   2.574  14.743 -0.7640 -0.3501 -0.0964
 8222TIP3    H146157   2.665   2.626  14.771 -1.4656  0.5794  0.1003
 8222TIP3    H246158   2.564   2.612  14.660 -2.2908  0.7110  0.8258
 8223TIP3   OH246159   0.844   1.235   0.027  0.0979  0.3067 -0.0894
 8223TIP3    H146160   0.911   1.172   0.052  1.2222  0.6785 -1.9563
 8223TIP3    H246161   0.786   1.186  -0.032 -0.4178  0.3972  0.3324
 8224TIP3   OH246162   5.234   0.581   5.081  0.0601 -0.3660 -0.7316
 8224TIP3    H146163   5.310   0.523   5.073  0.6997  0.4437 -0.6917
 8224TIP3    H246164   5.197   0.584   4.993  1.0968  0.5707 -1.1606
 8225TIP3   OH246165   0.730   4.758  13.472  0.8226  0.0728  0.8500
 8225TIP3    H146166   0.796   4.692  13.494  1.8309  0.9285  0.4920
 8225TIP3    H246167   0.711   4.801  13.555  1.8192  0.7844  0.7351
 8226TIP3   OH246168   4.155   2.703  13.367 -0.4824 -0.0214  0.0512
 8226TIP3    H146169   4.174   2.750  13.286 -0.0324 -0.0935  0.1142
 8226TIP3    H246170   4.234   2.713  13.420  0.0483 -1.7272 -0.3559
 8227TIP3   OH246171   1.143   4.159   5.174  0.0298  0.1491 -0.2594
 8227TIP3    H146172   1.156   4.225   5.242 -2.1963  1.6743 -1.1780
 8227TIP3    H246173   1.218   4.169   5.117  0.2881  1.1540  0.2214
 8228TIP3   OH246174   3.992   5.070  15.169  0.2903 -0.8144  0.1042
 8228TIP3    H146175   3.944   5.046  15.248 -0.5245 -1.5035 -0.5891
 8228TIP3    H246176   3.942   5.032  15.097  0.3007  0.8960 -0.8595
 8229TIP3   OH246177   6.545   2.469   1.035 -0.4707  0.5282 -0.2711
 8229TIP3    H146178   6.516   2.560   1.024  0.3733  1.3437  2.9876
 8229TIP3    H246179   6.640   2.475   1.040 -0.3157 -0.7444 -1.1684
 8230TIP3   OH246180   0.078   4.264   5.752  0.8081 -0.5098  0.3035
 8230TIP3    H146181  -0.015   4.266   5.778  0.2025  0.3182 -1.7281
 8230TIP3    H246182   0.108   4.353   5.767  0.4428 -0.0099 -1.6653
 8231TIP3   OH246183   1.993   5.665   0.155 -0.5908 -0.6913 -0.5028
 8231TIP3    H146184   2.070   5.620   0.191  1.2448  0.9958 -2.0804
 8231TIP3    H246185   1.926   5.655   0.223  0.9605 -2.2903  0.9142
 8232TIP3   OH246186   1.430   0.867  12.449  0.0314  0.0227  0.1242
 8232TIP3    H146187   1.345   0.909  12.452  0.0410  0.0096  0.8343
 8232TIP3    H246188   1.411   0.775  12.428 -0.1396 -0.0018  0.3808
 8233TIP3   OH246189   6.674   0.633   2.533 -0.9024 -0.3639 -0.4735
 8233TIP3    H146190   6.709   0.544   2.530 -0.6564 -0.3549  1.3053
 8233TIP3    H246191   6.745   0.685   2.571 -1.5600  0.3271 -0.1824
 8234TIP3   OH246192   1.661   3.791  16.852 -0.6736 -0.5188  0.2094
 8234TIP3    H146193   1.694   3.838  16.929 -1.4690  0.0612  0.1991
 8234TIP3    H246194   1.578   3.753  16.880 -1.4446  0.4944 -0.6307
 8235TIP3   OH246195   3.938   3.564  13.704  0.2541 -0.5217  0.5366
 8235TIP3    H146196   3.946   3.470  13.718  0.6850 -0.2902  1.9968
 8235TIP3    H246197   3.845   3.583  13.720  0.0134 -0.7975 -0.4882
 8236TIP3   OH246198   2.282   0.716  11.153  0.1889 -0.3733 -0.1723
 8236TIP3    H146199   2.370   0.745  11.129 -0.2511  1.3406  0.0940
 8236TIP3    H246200   2.229   0.734  11.075 -0.2569  0.3489  0.2849
 8237TIP3   OH246201   0.420   5.966   6.070  0.2445  0.6205 -0.2044
 8237TIP3    H146202   0.477   5.975   6.147 -0.2520  0.6526  0.1644
 8237TIP3    H246203   0.334   5.991   6.102 -0.0102  0.3999 -0.7193
 8238TIP3   OH246204   1.959   2.450   5.562 -0.3260 -0.7103 -0.3939
 8238TIP3    H146205   2.028   2.509   5.532  0.5198  0.1136  2.8014
 8238TIP3    H246206   2.003   2.368   5.581 -0.1929 -0.2933  1.3076
 8239TIP3   OH246207   2.069   0.483  13.038  1.2078 -0.2088 -0.0007
 8239TIP3    H146208   2.082   0.553  13.102  0.8696 -0.4456  0.3378
 8239TIP3    H246209   2.080   0.525  12.953 -0.6854  0.6575  0.1293
 8240TIP3   OH246210   5.646   0.633   0.583 -0.0547  0.0105  0.1610
 8240TIP3    H146211   5.605   0.575   0.519  0.8767  0.3193 -0.7536
 8240TIP3    H246212   5.601   0.717   0.572  1.1323  0.5256 -1.2722
 8241TIP3   OH246213   5.934   3.181   2.613  0.1736 -0.4096  0.2694
 8241TIP3    H146214   5.987   3.113   2.572  1.0824  1.4872 -1.9697
 8241TIP3    H246215   5.996   3.252   2.631 -1.1262  0.7847  0.2051
 8242TIP3   OH246216   2.432   5.317  11.407 -0.7280 -0.4889  0.5973
 8242TIP3    H146217   2.444   5.403  11.367  1.8103 -0.4592  1.2690
 8242TIP3    H246218   2.428   5.256  11.333 -1.5705  0.0874  0.1551
 8243TIP3   OH246219   2.439   4.154  15.074 -0.0151  0.2521 -0.2825
 8243TIP3    H146220   2.358   4.111  15.103 -0.7344  1.0306 -1.0987
 8243TIP3    H246221   2.467   4.204  15.151 -0.6755  0.5060 -0.1957
 8244TIP3   OH246222   0.567   0.407  11.405  0.6385 -0.6092 -0.2119
 8244TIP3    H146223   0.481   0.410  11.447  0.7528  1.1234 -0.0195
 8244TIP3    H246224   0.586   0.314  11.396 -0.4194 -1.0429  1.4943
 8245TIP3   OH246225   3.688   3.176  11.951 -0.0707 -0.3273 -0.3514
 8245TIP3    H146226   3.616   3.115  11.942 -0.8243  0.8180 -3.4011
 8245TIP3    H246227   3.668   3.226  12.029 -1.8855 -0.9292 -0.3869
 8246TIP3   OH246228   3.374   2.403  14.125  0.4784 -0.0725  0.1148
 8246TIP3    H146229   3.306   2.440  14.182  0.6110  0.7052 -0.2161
 8246TIP3    H246230   3.450   2.459  14.140  0.2971  0.6105 -1.3722
 8247TIP3   OH246231   3.749   0.892  15.701  0.8437 -0.0754 -0.4886
 8247TIP3    H146232   3.786   0.877  15.788  1.5226 -0.8133 -0.8838
 8247TIP3    H246233   3.661   0.926  15.717  1.1771  0.3710  0.4804
 8248TIP3   OH246234   1.676   4.987   3.006  0.2549 -0.4013  0.4161
 8248TIP3    H146235   1.659   5.056   2.942 -1.3171 -0.7163  0.4530
 8248TIP3    H246236   1.623   5.011   3.082  1.5396 -0.4123  1.3503
 8249TIP3   OH246237   1.399   6.072   4.545  0.3925 -0.1555 -0.7574
 8249TIP3    H146238   1.423   6.086   4.453  1.2963  0.4944 -0.4353
 8249TIP3    H246239   1.442   6.143   4.592  0.0766 -0.5827  0.1959
 8250TIP3   OH246240   5.415   4.465   2.491 -0.1394  0.6742  0.6446
 8250TIP3    H146241   5.472   4.499   2.422  1.5192  0.4688  1.8296
 8250TIP3    H246242   5.430   4.370   2.490 -1.6619  0.4067 -0.0031
 8251TIP3   OH246243   6.264   2.074   4.043 -0.2713  0.1611 -0.9954
 8251TIP3    H146244   6.333   2.024   3.999  0.4684 -0.6233  0.9478
 8251TIP3    H246245   6.218   2.010   4.096 -0.1172  1.3045  0.5888
 8252TIP3   OH246246   6.750   3.595  15.073 -0.2075 -0.2714 -0.2042
 8252TIP3    H146247   6.799   3.641  15.004  0.0040  0.5082  0.4477
 8252TIP3    H246248   6.790   3.509  15.078  0.8474  0.2233  0.0475
 8253TIP3   OH246249   5.703   1.087  13.221  0.6438 -0.1159 -1.0048
 8253TIP3    H146250   5.769   1.073  13.289  0.3972  0.0587 -0.7284
 8253TIP3    H246251   5.687   0.999  13.185 -0.6358 -0.5255  0.4751
 8254TIP3   OH246252   5.697   5.676  11.407 -0.1069  0.2053  0.9348
 8254TIP3    H146253   5.610   5.714  11.415 -0.3619  0.1368 -1.0015
 8254TIP3    H246254   5.755   5.750  11.390 -0.2351  0.0021 -0.4868
 8255TIP3   OH246255   3.953   2.291   5.830  0.0733 -0.2814 -0.4419
 8255TIP3    H146256   4.042   2.268   5.802 -0.8876 -3.4079 -1.2822
 8255TIP3    H246257   3.959   2.298   5.925  1.1074 -0.9769 -0.4397
 8256TIP3   OH246258   4.024   0.073   0.769 -0.1364  0.0821 -0.1458
 8256TIP3    H146259   4.076   0.145   0.806 -0.2942 -0.0012  0.2420
 8256TIP3    H246260   3.969   0.115   0.704  0.4565  0.1655 -0.6048
 8257TIP3   OH246261   6.684   2.726  11.431  0.1542 -0.4337 -0.1278
 8257TIP3    H146262   6.731   2.809  11.425  0.1807 -0.4902 -0.8320
 8257TIP3    H246263   6.604   2.740  11.379 -0.5905 -0.3584  0.9918
 8258TIP3   OH246264   6.561   6.583  13.296 -0.2825 -0.2773 -0.1492
 8258TIP3    H146265   6.556   6.497  13.338  0.0878 -0.7724 -1.0972
 8258TIP3    H246266   6.566   6.644  13.369  3.5177 -1.2821  0.6562
 8259TIP3   OH246267   5.899   6.718  16.898 -0.2002 -0.0666 -0.4447
 8259TIP3    H146268   5.811   6.702  16.933  0.4143 -1.0886  0.7189
 8259TIP3    H246269   5.949   6.641  16.924  1.5187  1.3072  0.5286
 8260TIP3   OH246270   6.203   5.029  14.635 -0.2413  0.0993 -0.7319
 8260TIP3    H146271   6.276   4.989  14.682  0.6069  0.8804 -1.3407
 8260TIP3    H246272   6.203   5.121  14.664 -0.8834  0.1409 -0.8481
 8261TIP3   OH246273   1.850   5.965  12.688 -0.3137 -0.2425  0.2484
 8261TIP3    H146274   1.935   6.004  12.670 -0.5676  0.2230  0.0394
 8261TIP3    H246275   1.815   6.017  12.760 -0.9826  0.4154 -0.5394
 8262TIP3   OH246276   3.736   5.790   1.552  0.5590  0.5837  0.3269
 8262TIP3    H146277   3.794   5.730   1.599 -0.4994  1.0688  2.3569
 8262TIP3    H246278   3.744   5.873   1.599 -0.8524  0.9855 -0.0933
 8263TIP3   OH246279   2.377   5.399  16.889 -0.1209 -0.0001 -0.0478
 8263TIP3    H146280   2.293   5.407  16.844 -0.2894  0.0978  0.2803
 8263TIP3    H246281   2.434   5.356  16.826 -0.5200 -0.3934 -0.1423
 8264TIP3   OH246282   4.120   0.562  11.901  0.6457  0.5038  0.0833
 8264TIP3    H146283   4.130   0.488  11.961 -0.3191  0.1669 -0.1537
 8264TIP3    H246284   4.117   0.639  11.957 -0.6073  0.1607  0.5105
 8265TIP3   OH246285   4.724   6.337  16.577 -0.4838 -0.6524 -0.1410
 8265TIP3    H146286   4.754   6.408  16.519 -0.5990  2.8393  3.5895
 8265TIP3    H246287   4.639   6.366  16.608  0.3761 -1.2293  3.1445
 8266TIP3   OH246288   0.400   3.297  15.372 -0.6254  0.0627  0.4927
 8266TIP3    H146289   0.445   3.241  15.435  0.6994  1.8666  1.2566
 8266TIP3    H246290   0.334   3.343  15.423 -1.6995 -0.7748 -0.1198
 8267TIP3   OH246291   1.311   3.053   0.571 -0.4965  0.1281 -0.2607
 8267TIP3    H146292   1.400   3.046   0.605 -0.0102  1.7045 -1.1135
 8267TIP3    H246293   1.293   2.968   0.532  0.1183 -0.6542  1.1048
 8268TIP3   OH246294   0.125   1.092  13.612  0.4362 -0.0063  0.3087
 8268TIP3    H146295   0.168   1.046  13.540 -1.8625 -0.6214 -0.7731
 8268TIP3    H246296   0.173   1.063  13.690  0.7296 -2.2311 -0.6079
 8269TIP3   OH246297   6.750   3.106  13.306 -0.0658  0.1248 -0.1876
 8269TIP3    H146298   6.769   3.197  13.330  2.4220 -0.4123  0.1684
 8269TIP3    H246299   6.667   3.087  13.350  0.3259  1.6388  1.3249
 8270TIP3   OH246300   3.216   6.051   1.463  0.6110 -0.4295 -0.2167
 8270TIP3    H146301   3.247   5.970   1.421  0.8263 -1.0140  1.0024
 8270TIP3    H246302   3.121   6.043   1.463  0.4079  0.8199 -2.9110
 8271TIP3   OH246303   6.112   0.265   6.481 -0.2520  0.1440 -0.2460
 8271TIP3    H146304   6.186   0.325   6.468 -0.5365  0.4015 -0.7273
 8271TIP3    H246305   6.149   0.190   6.526 -0.2145  1.4089  1.9657
 8272TIP3   OH246306   2.016   3.917  10.661  0.3996  0.3305 -0.4574
 8272TIP3    H146307   1.999   3.986  10.726 -3.4619 -0.0176 -0.8674
 8272TIP3    H246308   2.025   3.963  10.578  0.1806  0.4824 -0.3973
 8273TIP3   OH246309   2.402   5.607   1.699  0.3615 -0.6433 -0.1862
 8273TIP3    H146310   2.426   5.515   1.712  1.0193 -1.0857 -3.4839
 8273TIP3    H246311   2.324   5.620   1.752  0.8219 -2.7926  1.1467
 8274TIP3   OH246312   3.029   1.886  13.567 -0.0531 -0.0051 -0.0564
 8274TIP3    H146313   3.029   1.956  13.502  1.0873  0.1111  0.0498
 8274TIP3    H246314   2.964   1.913  13.632 -0.4142  0.4108 -0.5877
 8275TIP3   OH246315   4.930   0.706   1.354 -0.3640 -0.5501  0.1850
 8275TIP3    H146316   4.933   0.801   1.344 -0.3257 -0.2754  2.2837
 8275TIP3    H246317   5.011   0.674   1.315  0.4084  0.4746  0.8994
 8276TIP3   OH246318   4.197   4.918  11.437  0.4984 -0.2331  0.1769
 8276TIP3    H146319   4.158   4.833  11.452  0.7535 -0.5540 -0.9005
 8276TIP3    H246320   4.257   4.930  11.511  1.7388 -1.7625 -0.5222
 8277TIP3   OH246321   3.096   5.313   6.270  0.5398  0.1485  0.1473
 8277TIP3    H146322   3.042   5.371   6.217 -0.0489 -0.1701  0.3789
 8277TIP3    H246323   3.183   5.317   6.231  0.1200 -0.0860 -0.8423
 8278TIP3   OH246324   5.130   5.679  15.609 -0.0071 -0.3389  0.1304
 8278TIP3    H146325   5.188   5.704  15.681 -1.5713  0.3161  1.2128
 8278TIP3    H246326   5.189   5.663  15.535  1.4561  1.6524  0.7869
 8279TIP3   OH246327   2.453   0.585   3.777 -0.1551 -0.1837 -0.1893
 8279TIP3    H146328   2.396   0.525   3.825  0.2225 -0.3155  0.1018
 8279TIP3    H246329   2.398   0.622   3.709 -0.4347 -0.7316 -0.2605
 8280TIP3   OH246330   4.907   1.879   5.325 -0.7997 -0.2314  0.4159
 8280TIP3    H146331   4.976   1.824   5.288 -0.9506 -1.3385  1.6920
 8280TIP3    H246332   4.952   1.959   5.353 -0.2988 -0.3447 -0.0492
 8281TIP3   OH246333   3.319   3.798   0.195  0.4400 -0.2446 -0.0965
 8281TIP3    H146334   3.355   3.831   0.277  0.3327 -1.5598  0.5088
 8281TIP3    H246335   3.232   3.766   0.218  0.2198 -0.1961 -0.8293
 8282TIP3   OH246336   0.376   4.075  13.638  0.4041 -0.0647  0.4345
 8282TIP3    H146337   0.348   4.043  13.723 -0.9450  0.8232  0.3649
 8282TIP3    H246338   0.344   4.165  13.634  1.2757  0.2235 -0.6279
 8283TIP3   OH246339   5.681   5.329   1.503 -0.2094 -0.1840  0.0825
 8283TIP3    H146340   5.692   5.422   1.522 -0.4100 -0.0056 -0.6479
 8283TIP3    H246341   5.591   5.322   1.472 -0.1738 -0.6166  0.0746
 8284TIP3   OH246342   0.185   3.078   2.811 -0.0323 -0.2161  0.1902
 8284TIP3    H146343   0.158   3.166   2.838  0.4451  0.9671 -2.7422
 8284TIP3    H246344   0.221   3.038   2.890 -0.5285  2.1170  1.6935
 8285TIP3   OH246345   6.262   0.247   0.510  0.1320  0.1315 -0.1838
 8285TIP3    H146346   6.301   0.239   0.423  0.4149  1.2265 -0.1678
 8285TIP3    H246347   6.306   0.322   0.550 -0.6774  0.2343  0.5488
 8286TIP3   OH246348   4.874   5.153   1.759  0.2982 -0.2358  0.0981
 8286TIP3    H146349   4.781   5.161   1.783  0.4201 -0.6289  0.7058
 8286TIP3    H246350   4.873   5.137   1.665 -0.3391 -1.9757  0.3610
 8287TIP3   OH246351   6.643   2.073   3.363  0.2344 -0.1299  0.3166
 8287TIP3    H146352   6.656   1.978   3.357 -2.5315 -0.8779  3.2699
 8287TIP3    H246353   6.684   2.097   3.446 -0.1753  0.9902  0.2050
 8288TIP3   OH246354   6.793   4.996   0.776 -0.3079 -0.2260  0.1449
 8288TIP3    H146355   6.863   5.047   0.737 -1.2761  0.9932 -0.0691
 8288TIP3    H246356   6.749   5.057   0.835 -0.3985 -1.3306  1.2683
 8289TIP3   OH246357   5.903   3.624  11.348 -0.4406  0.6801  0.0700
 8289TIP3    H146358   5.814   3.605  11.376 -0.0558 -0.5126  0.5335
 8289TIP3    H246359   5.904   3.718  11.331 -1.5262  0.8675  0.9974
 8290TIP3   OH246360   5.604   1.498  14.921  0.0529 -0.3303 -0.0993
 8290TIP3    H146361   5.674   1.539  14.972 -2.3557  1.9427  1.6593
 8290TIP3    H246362   5.610   1.539  14.835 -1.1456  2.6196  1.0739
 8291TIP3   OH246363   1.236   2.493  14.834 -0.2776 -0.1517 -0.2752
 8291TIP3    H146364   1.168   2.442  14.791 -0.6229 -0.4888  0.6495
 8291TIP3    H246365   1.318   2.450  14.809 -0.5288 -0.8336  0.0321
 8292TIP3   OH246366   0.154   5.542  13.128 -0.2740  0.5503 -0.1496
 8292TIP3    H146367   0.125   5.493  13.205 -0.5543  1.2412  0.1902
 8292TIP3    H246368   0.095   5.515  13.058  0.5377 -0.7661 -0.3698
 8293TIP3   OH246369   5.049   1.209   5.231  0.7306  0.0978 -0.3188
 8293TIP3    H146370   5.047   1.114   5.233 -0.0201  0.1174  0.0949
 8293TIP3    H246371   5.037   1.231   5.138  0.4947 -0.1970 -0.3576
 8294TIP3   OH246372   4.901   5.728  11.273  0.2122 -0.2783 -0.4395
 8294TIP3    H146373   4.855   5.732  11.356  1.1568 -1.3201  0.1523
 8294TIP3    H246374   4.979   5.782  11.285  0.7829 -1.0991 -0.3481
 8295TIP3   OH246375   0.508   1.829   2.080 -0.6126  0.7594  0.1184
 8295TIP3    H146376   0.561   1.838   2.000  0.4285  2.4097  0.9474
 8295TIP3    H246377   0.520   1.912   2.126 -2.2510  0.3356  1.3734
 8296TIP3   OH246378   1.700   5.647  11.784  0.2684 -0.2341  0.0519
 8296TIP3    H146379   1.654   5.722  11.746 -0.1848  0.0026  1.0195
 8296TIP3    H246380   1.665   5.571  11.738  0.0795  0.0749 -0.3218
 8297TIP3   OH246381   2.345   4.885  14.194 -0.0196  0.0842  0.2035
 8297TIP3    H146382   2.393   4.968  14.199  1.3933 -0.6114 -1.1221
 8297TIP3    H246383   2.356   4.846  14.281 -0.8538  1.3117  0.9059
 8298TIP3   OH246384   5.176   5.596  12.005  0.4388 -0.6155  0.3517
 8298TIP3    H146385   5.209   5.599  11.915 -0.3474  1.2197  0.0697
 8298TIP3    H246386   5.107   5.663  12.007 -0.5265 -1.6022  1.9575
 8299TIP3   OH246387   0.523   3.031   1.330  0.2707  0.2301  0.4596
 8299TIP3    H146388   0.588   3.102   1.335  0.8874 -0.1632 -1.3625
 8299TIP3    H246389   0.468   3.054   1.256 -0.6465 -0.3205  0.9542
 8300TIP3   OH246390   6.321   5.028   3.604 -0.2390  0.3571 -0.1335
 8300TIP3    H146391   6.265   5.055   3.531  0.2504  1.8993  0.0249
 8300TIP3    H246392   6.274   4.955   3.644 -2.1557  1.5758 -0.0265
 8301TIP3   OH246393   5.679   6.771  14.951 -0.3799  0.0646  0.0134
 8301TIP3    H146394   5.620   6.758  15.025  0.9725 -0.8002  0.9906
 8301TIP3    H246395   5.759   6.724  14.976 -0.1242 -0.8458 -2.2824
 8302TIP3   OH246396   6.666   3.404   5.229  0.4707  1.0512 -0.0444
 8302TIP3    H146397   6.701   3.471   5.289  0.3335 -0.5035  1.8811
 8302TIP3    H246398   6.581   3.439   5.203  0.3907  1.6564  0.9466
 8303TIP3   OH246399   0.876   1.139  11.637 -0.3657 -0.3833  0.2134
 8303TIP3    H146400   0.853   1.230  11.657 -1.1053 -0.3845 -0.5530
 8303TIP3    H246401   0.931   1.112  11.710  0.7972  1.0230 -0.0792
 8304TIP3   OH246402   6.211   2.859   0.377 -0.0675 -0.6445 -0.7650
 8304TIP3    H146403   6.118   2.878   0.364 -0.0272 -0.0670 -0.2694
 8304TIP3    H246404   6.218   2.765   0.363 -1.6802 -1.7576  3.8598
 8305TIP3   OH246405   6.698   2.785  15.254 -0.2779 -0.0767 -0.5552
 8305TIP3    H146406   6.788   2.765  15.279 -0.7641 -0.0109  1.4812
 8305TIP3    H246407   6.688   2.749  15.166  1.9108  0.5219 -1.0973
 8306TIP3   OH246408   6.025   2.761   5.721 -0.3489 -0.1487 -0.2164
 8306TIP3    H146409   6.028   2.797   5.810 -1.4129 -2.2945  0.7719
 8306TIP3    H246410   5.991   2.832   5.667  0.9024  1.4070  0.9420
 8307TIP3   OH246411   4.856   1.482   3.282 -0.1968 -0.5835 -0.0821
 8307TIP3    H146412   4.918   1.425   3.328  0.5054 -0.5513 -0.9471
 8307TIP3    H246413   4.857   1.449   3.192  0.3153  0.8632 -0.6279
 8308TIP3   OH246414   4.207   0.828  16.911  0.0478  0.0267  0.0004
 8308TIP3    H146415   4.162   0.903  16.871 -1.4517 -0.6165  0.4055
 8308TIP3    H246416   4.251   0.865  16.987  1.2152  0.8900 -1.0584
 8309TIP3   OH246417   2.065   2.230   1.840  0.1679  0.1678 -0.0750
 8309TIP3    H146418   2.022   2.306   1.800  0.9023  0.0990 -1.0316
 8309TIP3    H246419   2.114   2.190   1.769 -0.8573 -1.7057  0.2178
 8310TIP3   OH246420   3.292   4.465   0.433  0.1427  0.3867 -0.3289
 8310TIP3    H146421   3.315   4.540   0.377 -2.7366  2.0709  0.5189
 8310TIP3    H246422   3.199   4.450   0.416 -0.6571  0.3791  3.2100
 8311TIP3   OH246423   1.317   2.862  16.563 -0.5104  0.1839 -0.8911
 8311TIP3    H146424   1.345   2.839  16.474 -0.8400  0.3417 -1.0379
 8311TIP3    H246425   1.376   2.933  16.589  0.1081 -0.3973 -0.6721
 8312TIP3   OH246426   1.863   6.112  15.202 -0.5370 -0.0239 -0.4839
 8312TIP3    H146427   1.923   6.178  15.166 -1.0669  0.1319 -1.1018
 8312TIP3    H246428   1.921   6.046  15.240 -0.0059  1.3060  1.1326
 8313TIP3   OH246429   4.415   2.192   3.807 -0.3467  0.1539  0.9613
 8313TIP3    H146430   4.420   2.287   3.802 -1.4432  0.1643 -0.5625
 8313TIP3    H246431   4.493   2.161   3.762  0.3541  0.3001  2.0289
 8314TIP3   OH246432   3.076   0.935   6.402 -0.0969  0.7460  0.2063
 8314TIP3    H146433   3.025   0.987   6.340 -0.0496  0.6553  0.0903
 8314TIP3    H246434   3.128   0.998   6.451  0.8674  0.7239 -0.7465
 8315TIP3   OH246435   4.546   0.320   2.999  0.0655  0.2372 -0.5061
 8315TIP3    H146436   4.548   0.225   2.999 -0.1589  0.1803  1.9575
 8315TIP3    H246437   4.455   0.342   2.979 -0.5213 -0.1719  1.5478
 8316TIP3   OH246438   4.361   0.307  13.954  0.3360  0.3740  0.2615
 8316TIP3    H146439   4.268   0.304  13.931  0.1783  1.2758  0.7480
 8316TIP3    H246440   4.406   0.310  13.869 -0.1492  1.4442  0.0313
 8317TIP3   OH246441   2.549   0.799   2.494 -0.4408 -0.3092  0.1000
 8317TIP3    H146442   2.568   0.849   2.573 -1.4875  1.3187 -0.6374
 8317TIP3    H246443   2.455   0.812   2.479 -0.3470 -0.9332 -1.1821
 8318TIP3   OH246444   2.802   1.488   2.869  0.0850  0.0588 -0.2927
 8318TIP3    H146445   2.741   1.423   2.904  1.0421 -0.9167 -0.3764
 8318TIP3    H246446   2.753   1.570   2.869 -1.5683 -0.8983 -1.3872
 8319TIP3   OH246447   4.188   0.572   4.283 -0.7285 -0.0541  0.1457
 8319TIP3    H146448   4.239   0.607   4.356 -1.4274  0.8085  0.2296
 8319TIP3    H246449   4.235   0.602   4.205 -2.0942  2.4330  0.1643
 8320TIP3   OH246450   3.774   5.867  11.448 -0.8389  0.5293 -0.6629
 8320TIP3    H146451   3.789   5.930  11.518 -2.4690 -0.2518  0.4737
 8320TIP3    H246452   3.732   5.917  11.378 -2.0006  0.7742  0.1802
 8321TIP3   OH246453   5.168   4.215   1.261  0.4309  0.0049 -0.4778
 8321TIP3    H146454   5.078   4.182   1.265  0.6255 -0.6591 -1.4279
 8321TIP3    H246455   5.222   4.137   1.256  1.1332  0.3668  0.8535
 8322TIP3   OH246456   3.230   5.145  12.472 -0.2207  0.1293  0.1729
 8322TIP3    H146457   3.239   5.109  12.560 -0.4639 -1.4230 -0.4010
 8322TIP3    H246458   3.316   5.181  12.452  0.6818 -1.9452  0.0533
 8323TIP3   OH246459   5.300   2.022   4.166  0.3494  0.0618  0.6558
 8323TIP3    H146460   5.337   2.094   4.217 -0.6808  1.2872 -0.2800
 8323TIP3    H246461   5.224   1.994   4.217 -0.2977  0.8518  0.1482
 8324TIP3   OH246462   4.802   0.516   5.653 -0.1760  0.3782  0.2398
 8324TIP3    H146463   4.794   0.584   5.720  0.5109 -0.2604  0.9880
 8324TIP3    H246464   4.885   0.536   5.608  0.9267 -0.9318  1.6079
 8325TIP3   OH246465   2.592   5.113  12.842  1.0484  0.5151 -0.4096
 8325TIP3    H146466   2.539   5.058  12.784  1.7981 -0.2527 -0.3896
 8325TIP3    H246467   2.536   5.129  12.918  0.2625  1.0641 -1.0857
 8326TIP3   OH246468   1.961   3.150  12.727  0.1007  0.3500  0.1394
 8326TIP3    H146469   1.968   3.112  12.814  0.4645  0.3763  0.1232
 8326TIP3    H246470   1.992   3.240  12.738 -1.1099  0.7759  0.2606
 8327TIP3   OH246471   4.276   0.494   3.951 -0.4677  0.6605 -0.2321
 8327TIP3    H146472   4.233   0.457   3.873  0.9321  0.4882 -0.9675
 8327TIP3    H246473   4.319   0.573   3.918  1.0212  0.0185  0.1085
 8328TIP3   OH246474   2.615   2.012   4.781  0.3481 -0.2533  0.2123
 8328TIP3    H146475   2.554   2.051   4.845  1.7536 -0.3425  1.6674
 8328TIP3    H246476   2.558   1.965   4.720 -1.0927  0.3097  1.0511
 8329TIP3   OH246477   5.779   3.026  11.613 -0.0852  0.6618 -0.0951
 8329TIP3    H146478   5.854   3.026  11.672 -0.4773 -1.1531  0.4588
 8329TIP3    H246479   5.813   3.061  11.530  0.8339  1.8269  0.7425
 8330TIP3   OH246480   1.022   0.825  11.340 -0.0127 -0.2133 -0.2501
 8330TIP3    H146481   0.982   0.759  11.284 -1.7630 -2.8448  3.6542
 8330TIP3    H246482   0.947   0.873  11.377  0.7468 -0.7505  2.1468
 8331TIP3   OH246483   2.075   3.756   0.393 -0.0989  0.0863 -0.0256
 8331TIP3    H146484   2.043   3.830   0.445 -1.3058 -0.3847 -0.0779
 8331TIP3    H246485   2.161   3.785   0.362 -0.3847  1.3172  0.2596
 8332TIP3   OH246486   4.435   0.946  10.931  0.2466  0.1268  0.3957
 8332TIP3    H146487   4.475   0.982  10.852 -4.2362  0.7974 -1.8717
 8332TIP3    H246488   4.413   0.856  10.908 -0.8831  0.2491  0.9412
 8333TIP3   OH246489   6.737   1.369  13.863  0.2877  0.4437 -0.0443
 8333TIP3    H146490   6.812   1.362  13.922 -0.1204  0.8801  0.5337
 8333TIP3    H246491   6.768   1.331  13.781  0.9253  0.0089  0.3876
 8334TIP3   OH246492   3.630   1.333   3.544 -0.0549 -0.0431 -0.0423
 8334TIP3    H146493   3.721   1.306   3.531  0.2780 -0.4066  2.5325
 8334TIP3    H246494   3.637   1.426   3.565 -0.3336 -0.0001 -0.1403
 8335TIP3   OH246495   6.725   4.226   1.921  0.3674  0.2771  0.0521
 8335TIP3    H146496   6.639   4.197   1.890  0.2483  0.1971  0.4516
 8335TIP3    H246497   6.781   4.221   1.844  1.1455 -3.9878  0.6547
 8336TIP3   OH246498   0.076   3.465  12.234 -0.4361 -0.7753 -0.7243
 8336TIP3    H146499   0.023   3.447  12.311  0.5288 -0.0458  0.1402
 8336TIP3    H246500   0.062   3.558  12.217  2.0947 -0.0219  0.7954
 8337TIP3   OH246501   6.102   2.301   3.965  0.0989 -0.6670  0.1299
 8337TIP3    H146502   6.031   2.311   3.901  1.4080 -0.8907 -1.4328
 8337TIP3    H246503   6.116   2.206   3.970  1.2481 -0.5730 -0.7429
 8338TIP3   OH246504   3.186   0.228   6.291  0.0612  0.2828 -0.4105
 8338TIP3    H146505   3.230   0.271   6.364  1.4961 -0.5762 -0.7307
 8338TIP3    H246506   3.134   0.297   6.250  2.6178  1.8978 -1.1742
 8339TIP3   OH246507   1.994   3.217  12.021 -0.1362  0.0803  0.0615
 8339TIP3    H146508   1.916   3.244  12.070  0.9819  0.9747  1.3929
 8339TIP3    H246509   1.991   3.270  11.941  0.3483  1.9126  1.2053
 8340TIP3   OH246510   6.236   0.945  16.324 -0.1175  0.1806 -0.4643
 8340TIP3    H146511   6.208   1.031  16.294  3.6631  1.5047 -0.6685
 8340TIP3    H246512   6.292   0.912  16.254  0.8193 -1.1530  0.8519
 8341TIP3   OH246513   5.045   2.101   0.543  0.1939  0.1991 -0.8228
 8341TIP3    H146514   5.131   2.142   0.547 -0.2398  1.2492 -1.7542
 8341TIP3    H246515   4.984   2.172   0.567 -0.4356 -0.4338 -0.5187
 8342TIP3   OH246516   0.212   4.856   5.839  0.2509 -0.0166  1.0795
 8342TIP3    H146517   0.183   4.778   5.791  0.7300 -0.1630  1.0192
 8342TIP3    H246518   0.146   4.922   5.819  0.7560  0.1162 -0.3102
 8343TIP3   OH246519   1.539   3.877   2.308  0.6856  0.0262 -0.6678
 8343TIP3    H146520   1.491   3.796   2.324  0.2492 -0.0035 -1.9992
 8343TIP3    H246521   1.506   3.938   2.374  1.6165 -1.0867  0.8829
 8344TIP3   OH246522   5.185   4.294  13.409  0.4945  0.1482  0.1033
 8344TIP3    H146523   5.175   4.216  13.353  0.5857  0.9733 -1.0912
 8344TIP3    H246524   5.162   4.263  13.497  1.6444 -1.5210 -0.1269
 8345TIP3   OH246525   6.509   6.243   5.231  0.2895  0.0690  0.4103
 8345TIP3    H146526   6.422   6.208   5.214  1.3451 -1.5871 -2.0832
 8345TIP3    H246527   6.503   6.280   5.319 -2.6940 -0.6703  0.6120
 8346TIP3   OH246528   1.970   6.602  11.360 -0.1296  0.4275 -0.0158
 8346TIP3    H146529   1.885   6.641  11.339 -0.5221 -1.1511 -1.5944
 8346TIP3    H246530   1.954   6.507  11.359  0.8740  0.0954  3.2204
 8347TIP3   OH246531   0.523   0.037   0.780  0.6964  0.0637 -0.0649
 8347TIP3    H146532   0.467   0.000   0.711  1.6715  2.6928 -2.4582
 8347TIP3    H246533   0.462   0.062   0.849 -0.9185  1.1254 -1.7721
 8348TIP3   OH246534   0.921   0.647  16.716 -0.1398 -0.2067 -0.1460
 8348TIP3    H146535   0.874   0.728  16.700 -0.5925 -0.0343  1.8481
 8348TIP3    H246536   0.886   0.586  16.651 -0.9842  0.7226 -0.5894
 8349TIP3   OH246537   1.002   3.231  15.231 -1.0106  0.4863  0.1020
 8349TIP3    H146538   1.059   3.265  15.299  0.1935  0.0661 -0.6711
 8349TIP3    H246539   0.924   3.200  15.278 -0.8306  1.4951  1.1174
 8350TIP3   OH246540   0.017   5.295  16.450  0.0979  0.0419 -0.1394
 8350TIP3    H146541  -0.031   5.243  16.514 -1.2502  0.6285 -0.6426
 8350TIP3    H246542   0.088   5.237  16.421 -0.5976 -1.0439  0.2546
 8351TIP3   OH246543   1.265   1.388   3.877 -0.0680  0.1060 -0.4907
 8351TIP3    H146544   1.222   1.390   3.962  0.1766 -1.1079 -0.3230
 8351TIP3    H246545   1.193   1.396   3.814 -0.2292  1.2365 -0.1911
 8352TIP3   OH246546   0.363   4.980   1.852  0.3866 -0.0254  0.2328
 8352TIP3    H146547   0.312   5.051   1.892 -0.0732 -0.1176 -0.1788
 8352TIP3    H246548   0.448   5.019   1.832  1.2224 -0.3777  2.7297
 8353TIP3   OH246549   2.589   2.502  16.301  0.4523 -0.3843 -0.3803
 8353TIP3    H146550   2.557   2.588  16.326 -0.2570 -0.8660  0.4147
 8353TIP3    H246551   2.630   2.467  16.380  1.7539 -0.3483 -1.0024
 8354TIP3   OH246552   1.917   6.498  14.392  0.3103  0.0479  0.1024
 8354TIP3    H146553   1.843   6.505  14.332  0.0429 -2.7001 -0.0210
 8354TIP3    H246554   1.986   6.456  14.341  0.2093 -1.9811  1.5244
 8355TIP3   OH246555   5.016   6.729   0.058 -0.1802 -0.0398  0.2454
 8355TIP3    H146556   5.008   6.636   0.078 -2.9630  0.2025  0.6743
 8355TIP3    H246557   4.980   6.739  -0.029  3.0758  0.2971 -1.2264
 8356TIP3   OH246558   4.872   1.320  16.593  0.3573  0.0207 -0.3641
 8356TIP3    H146559   4.844   1.365  16.513  0.4862 -1.6577 -1.3968
 8356TIP3    H246560   4.796   1.327  16.651  0.0096  0.6874 -0.8716
 8357TIP3   OH246561   3.330   4.222   0.253  0.0984  0.4092  0.0378
 8357TIP3    H146562   3.421   4.191   0.249 -0.1446 -0.1785 -2.5925
 8357TIP3    H246563   3.338   4.312   0.285  1.6963  0.5747 -0.7041
 8358TIP3   OH246564   0.312   5.286   6.247 -0.1730  0.5374  0.7149
 8358TIP3    H146565   0.324   5.191   6.252 -0.9795  0.2533 -1.5440
 8358TIP3    H246566   0.372   5.315   6.179 -0.3767  1.5455  0.9488
 8359TIP3   OH246567   2.733   0.349   2.645 -0.1606 -0.0488 -0.2557
 8359TIP3    H146568   2.820   0.360   2.683 -0.6863  0.8789  0.7246
 8359TIP3    H246569   2.726   0.256   2.626  0.5161 -0.3677  0.9910
 8360TIP3   OH246570   2.695   2.984  14.485  0.4330 -0.0540 -0.3450
 8360TIP3    H146571   2.642   2.910  14.514  0.1769  0.1164 -0.3840
 8360TIP3    H246572   2.723   2.959  14.397  0.6493 -0.2657 -0.2211
 8361TIP3   OH246573   2.228   2.828   3.357  0.5082 -0.3032 -0.0820
 8361TIP3    H146574   2.223   2.911   3.405  2.0097 -0.3214  0.1421
 8361TIP3    H246575   2.316   2.826   3.321  1.4548 -2.9544  2.0510
 8362TIP3   OH246576   1.514   1.895  14.642 -0.0795 -0.1714 -0.0004
 8362TIP3    H146577   1.592   1.934  14.602  1.0602 -0.0257  2.2211
 8362TIP3    H246578   1.534   1.801  14.646  0.0245 -0.1212  0.6642
 8363TIP3   OH246579   4.944   4.683  14.871  0.3985 -0.1042 -0.2845
 8363TIP3    H146580   5.018   4.678  14.810  0.0200 -3.3676 -0.6466
 8363TIP3    H246581   4.896   4.761  14.844  1.0342 -0.6101 -3.2415
 8364TIP3   OH246582   6.487   5.126  16.041  0.1384 -0.2979  0.0809
 8364TIP3    H146583   6.446   5.142  15.956  1.9089 -1.9084 -1.1614
 8364TIP3    H246584   6.580   5.117  16.021  0.6567 -0.2871  2.2754
 8365TIP3   OH246585   2.628   2.631   2.123  0.0863  0.2907 -0.1274
 8365TIP3    H146586   2.601   2.697   2.188  0.8740  0.6184 -0.1228
 8365TIP3    H246587   2.547   2.585   2.102  0.0579 -0.8927  2.2532
 8366TIP3   OH246588   4.895   6.477   5.252 -0.3935  0.2616 -0.3655
 8366TIP3    H146589   4.809   6.493   5.292 -0.1813  0.5929 -0.0345
 8366TIP3    H246590   4.954   6.534   5.300 -0.3999  1.9485 -2.2369
 8367TIP3   OH246591   6.211   3.370  17.059 -0.2624  0.1569  0.1496
 8367TIP3    H146592   6.187   3.412  17.141 -0.2839  0.0417  0.2025
 8367TIP3    H246593   6.297   3.333  17.076  0.7296  1.9938 -0.5474
 8368TIP3   OH246594   1.394   0.096   0.893 -0.4426  0.0701  0.1932
 8368TIP3    H146595   1.303   0.120   0.872 -0.3909  0.0305 -0.0783
 8368TIP3    H246596   1.388   0.055   0.980 -0.9066 -1.3002 -0.4492
 8369TIP3   OH246597   0.688   3.404   0.004  0.2829  1.2205  0.7362
 8369TIP3    H146598   0.681   3.482   0.059 -0.2163  0.3165  2.0049
 8369TIP3    H246599   0.729   3.435  -0.076  0.3109  2.7405  1.3028
 8370TIP3   OH246600   0.718   6.815   4.675 -0.7300 -1.2297 -0.1208
 8370TIP3    H146601   0.639   6.813   4.728 -0.4511 -1.9514  0.2720
 8370TIP3    H246602   0.693   6.776   4.591 -0.7521 -1.6111  0.0613
 8371TIP3   OH246603   5.130   4.459   3.727 -0.0252 -0.1613 -0.3348
 8371TIP3    H146604   5.120   4.461   3.822  0.8826  0.4188 -0.2445
 8371TIP3    H246605   5.221   4.485   3.711 -0.1324 -0.3541 -1.3585
 8372TIP3   OH246606   6.251   1.679   1.039 -0.4889  0.2675  0.2278
 8372TIP3    H146607   6.286   1.682   0.951  1.0255 -1.3912  0.7073
 8372TIP3    H246608   6.258   1.769   1.072 -0.1231  0.6882 -0.9698
 8373TIP3   OH246609   2.510   2.693   5.008 -0.1820 -0.0336  0.4506
 8373TIP3    H146610   2.432   2.700   4.952 -0.3941  1.5668  0.9089
 8373TIP3    H246611   2.533   2.600   5.004 -0.2079  0.0058 -2.2568
 8374TIP3   OH246612   0.279   3.389  16.609 -0.4041 -0.1469  0.4326
 8374TIP3    H146613   0.287   3.390  16.514  2.4075 -0.9534  0.5537
 8374TIP3    H246614   0.360   3.348  16.639 -0.9248  0.6441  3.2021
 8375TIP3   OH246615   3.957   6.430   0.028  0.0913 -0.2504  0.0448
 8375TIP3    H146616   3.921   6.518   0.023  0.6620  0.0575  1.1216
 8375TIP3    H246617   4.046   6.438  -0.005  0.6830 -0.0864  1.6175
 8376TIP3   OH246618   2.868   3.798  12.579 -0.1664  0.5575 -0.5652
 8376TIP3    H146619   2.801   3.733  12.559  1.0760 -0.6798 -0.8199
 8376TIP3    H246620   2.945   3.747  12.604  0.2249  1.9526  1.3361
 8377TIP3   OH246621   2.054   3.121  13.374  0.7340 -1.1177  0.1976
 8377TIP3    H146622   2.043   3.139  13.467  3.9955 -2.7994  1.0561
 8377TIP3    H246623   2.116   3.188  13.344 -0.6971 -0.2459 -0.9827
 8378TIP3   OH246624   3.618   6.188  13.046  0.5432  0.7778 -0.7484
 8378TIP3    H146625   3.687   6.153  13.103 -0.4334 -1.3294 -0.7757
 8378TIP3    H246626   3.640   6.281  13.036  3.3114  0.2117 -0.6744
 8379TIP3   OH246627   1.806   6.280  15.446 -0.5834  0.0753 -0.0706
 8379TIP3    H146628   1.803   6.227  15.366 -0.6041 -0.2985  0.1740
 8379TIP3    H246629   1.715   6.302  15.464 -0.8055 -1.5383  0.9551
 8380TIP3   OH246630   3.287   3.349  11.381  0.2148  0.3996 -0.7096
 8380TIP3    H146631   3.275   3.430  11.432 -0.3045  0.3201 -0.6974
 8380TIP3    H246632   3.377   3.353  11.351 -0.3157  1.9192 -2.2956
 8381TIP3   OH246633   2.084   3.779   1.951 -0.5124 -0.4658  0.4512
 8381TIP3    H146634   2.135   3.833   1.891 -0.2576  0.1735  1.2121
 8381TIP3    H246635   2.142   3.708   1.977 -1.0520 -1.4766 -1.0253
 8382TIP3   OH246636   4.284   2.325   4.660  0.4772  0.3193  0.0990
 8382TIP3    H146637   4.326   2.247   4.626  0.7788  0.6395 -0.2813
 8382TIP3    H246638   4.268   2.379   4.583  0.4131  0.6967  0.3705
 8383TIP3   OH246639   3.078   1.336   2.472  0.6699  0.0939 -0.1930
 8383TIP3    H146640   3.153   1.278   2.489 -0.2531 -0.9100  0.5371
 8383TIP3    H246641   3.037   1.348   2.557  0.7631  1.7608 -0.3490
 8384TIP3   OH246642   1.733   5.367  15.985  0.1438  0.8344 -0.9521
 8384TIP3    H146643   1.799   5.413  16.037 -1.3865  3.1476 -0.9375
 8384TIP3    H246644   1.718   5.423  15.909 -1.3521  0.0462 -1.2836
 8385TIP3   OH246645   5.446   3.950  15.066 -0.0075 -0.0492 -0.2538
 8385TIP3    H146646   5.420   4.041  15.082  1.2411  0.3282 -0.2554
 8385TIP3    H246647   5.376   3.898  15.105 -0.5124  0.9122  0.1562
 8386TIP3   OH246648   0.599   5.447   6.330 -0.5965  0.0507 -0.1640
 8386TIP3    H146649   0.572   5.419   6.243 -1.7350  0.1573  0.1420
 8386TIP3    H246650   0.632   5.368   6.372 -0.2632 -0.0485 -0.6070
 8387TIP3   OH246651   3.775   5.950   2.026 -0.2417 -0.5971 -0.6610
 8387TIP3    H146652   3.709   5.933   2.093  0.9634 -0.2162  0.6590
 8387TIP3    H246653   3.826   5.870   2.021  1.5432  0.3558  1.0885
 8388TIP3   OH246654   3.241   5.732  16.438 -0.2076 -0.0036 -0.5924
 8388TIP3    H146655   3.269   5.803  16.495 -1.0575 -2.2655  2.9351
 8388TIP3    H246656   3.322   5.683  16.420  0.0195  0.5776 -1.2329
 8389TIP3   OH246657   4.973   0.726   4.956 -0.0137 -0.4944  0.1037
 8389TIP3    H146658   4.891   0.676   4.961 -0.3082 -0.1586 -1.1087
 8389TIP3    H246659   5.008   0.705   4.869 -0.7526  2.3185 -0.9584
 8390TIP3   OH246660   0.564   3.593  15.931 -0.7616  0.4672 -0.2224
 8390TIP3    H146661   0.612   3.526  15.883  0.7557  1.5375 -0.2555
 8390TIP3    H246662   0.564   3.669  15.873 -2.8052  0.4150 -0.3550
 8391TIP3   OH246663   4.632   0.260   2.571 -0.3336 -0.0210  0.6895
 8391TIP3    H146664   4.626   0.248   2.476 -0.7714  0.3087  0.6700
 8391TIP3    H246665   4.569   0.199   2.607 -0.6196  0.2963  0.7320
 8392TIP3   OH246666   1.703   0.925   5.185 -0.0001 -0.3408  0.1295
 8392TIP3    H146667   1.775   0.961   5.133 -0.4351  1.2252  0.5677
 8392TIP3    H246668   1.627   0.978   5.162 -0.8501 -1.4684  0.2582
 8393TIP3   OH246669   0.142   0.178   3.492 -0.1081  0.4837 -0.2745
 8393TIP3    H146670   0.101   0.186   3.579  0.1543 -1.0940  0.0185
 8393TIP3    H246671   0.069   0.160   3.433 -0.1685  0.5558 -0.2225
 8394TIP3   OH246672   3.998   0.489  16.596 -0.2214  0.0062 -0.0469
 8394TIP3    H146673   3.916   0.531  16.570 -0.3634  0.1581  0.6243
 8394TIP3    H246674   4.039   0.551  16.657  0.2763 -0.1788 -0.1848
 8395TIP3   OH246675   3.674   1.344   6.008 -0.2031 -0.1159  0.0833
 8395TIP3    H146676   3.753   1.305   6.046 -0.4679 -1.4161 -0.6442
 8395TIP3    H246677   3.686   1.333   5.914 -0.9586  0.2594 -0.0580
 8396TIP3   OH246678   4.128   4.306   2.625 -0.1872 -0.2634 -0.1628
 8396TIP3    H146679   4.037   4.287   2.649  0.3943  1.1545  3.8764
 8396TIP3    H246680   4.167   4.220   2.611 -1.1337 -1.2719  2.7190
 8397TIP3   OH246681   2.163   2.035  12.694  0.3607  0.2722  0.2559
 8397TIP3    H146682   2.083   1.994  12.661 -0.0774  0.4264  1.1172
 8397TIP3    H246683   2.226   1.963  12.696  0.1488  0.0709 -0.0873
 8398TIP3   OH246684   3.906   6.121  13.167  0.4464  0.0034  0.0054
 8398TIP3    H146685   3.962   6.195  13.142  0.1156  0.2685  0.0349
 8398TIP3    H246686   3.910   6.119  13.263  0.3353  0.0783  0.0115
 8399TIP3   OH246687   6.234   0.513  10.296  0.7030 -0.1946  0.2801
 8399TIP3    H146688   6.253   0.579  10.229 -0.6646  0.6388  0.6840
 8399TIP3    H246689   6.321   0.486  10.327  1.3208  0.4325 -0.8281
 8400TIP3   OH246690   2.907   5.776   5.413  0.2970  0.1179  0.1625
 8400TIP3    H146691   2.897   5.742   5.502  0.8411 -0.5429 -0.0154
 8400TIP3    H246692   2.998   5.804   5.409 -0.0098  1.1328  0.1366
 8401TIP3   OH246693   0.748   2.520   1.246  0.0644  0.6890  0.5069
 8401TIP3    H146694   0.830   2.569   1.237 -0.2747  1.0160 -1.2596
 8401TIP3    H246695   0.775   2.431   1.266  0.7075  1.4677  3.6392
 8402TIP3   OH246696   1.790   4.022   5.178  1.1390 -0.0637 -0.2443
 8402TIP3    H146697   1.785   3.931   5.205  2.0749  0.0510  0.3511
 8402TIP3    H246698   1.751   4.023   5.090 -0.8835 -0.6265  0.6144
 8403TIP3   OH246699   5.289   2.586  12.408 -0.1337  0.2455 -0.1889
 8403TIP3    H146700   5.240   2.641  12.470 -2.4322 -0.4375 -1.2756
 8403TIP3    H246701   5.316   2.645  12.338 -1.0762  0.3297 -0.4945
 8404TIP3   OH246702   5.150   3.468  11.317 -0.8070 -0.4107  0.3318
 8404TIP3    H146703   5.192   3.388  11.284 -2.3375 -0.8739 -0.6202
 8404TIP3    H246704   5.200   3.539  11.277 -1.4776 -0.9540 -1.6291
 8405TIP3   OH246705   5.705   3.436  10.858 -0.3173 -0.0115 -0.1914
 8405TIP3    H146706   5.686   3.356  10.808  1.1194 -0.8236  0.5162
 8405TIP3    H246707   5.647   3.431  10.934  0.8222 -1.1925  0.6426
 8406TIP3   OH246708   0.915   6.148  15.852 -0.1372  0.0245  0.2755
 8406TIP3    H146709   0.876   6.062  15.832  0.8596 -0.3526 -0.0949
 8406TIP3    H246710   0.948   6.138  15.941  0.6429 -0.2303 -0.0365
 8407TIP3   OH246711   2.384   4.831   4.603 -0.0944 -0.2663 -0.6322
 8407TIP3    H146712   2.448   4.800   4.539 -1.2251  0.9349 -2.4711
 8407TIP3    H246713   2.436   4.861   4.677  1.4401  0.1806 -1.8419
 8408TIP3   OH246714   2.709   4.891  15.554 -0.3258 -0.1173  0.2831
 8408TIP3    H146715   2.692   4.939  15.634 -0.3158  1.0417 -0.3943
 8408TIP3    H246716   2.622   4.876  15.516 -0.2393  0.7852 -0.3017
 8409TIP3   OH246717   3.774   1.674   5.355 -0.1000 -0.3392 -0.2230
 8409TIP3    H146718   3.832   1.610   5.396  0.6726  0.8129  0.5314
 8409TIP3    H246719   3.764   1.743   5.420 -1.6406 -0.0891 -0.6787
 8410TIP3   OH246720   3.647   2.054  14.295 -0.1736  0.3983  0.0983
 8410TIP3    H146721   3.673   1.983  14.236 -0.1010  0.4727  0.0414
 8410TIP3    H246722   3.635   2.130  14.238 -0.8176  0.2894  0.0814
 8411TIP3   OH246723   4.395   3.175   0.401  0.4315 -0.1096 -0.8816
 8411TIP3    H146724   4.428   3.089   0.373 -0.1383 -0.1130 -1.5906
 8411TIP3    H246725   4.377   3.221   0.318 -1.0236  0.0043 -0.5320
 8412TIP3   OH246726   0.929   3.266   2.549 -0.2349 -0.2664 -0.0008
 8412TIP3    H146727   0.845   3.231   2.580  0.2685 -0.7404  0.8780
 8412TIP3    H246728   0.951   3.334   2.614 -0.8228  1.1768 -1.2529
 8413TIP3   OH246729   2.447   2.995  13.449  0.3346 -0.2032 -0.5951
 8413TIP3    H146730   2.466   2.979  13.541 -0.4650  0.2110 -0.3493
 8413TIP3    H246731   2.530   2.976  13.404  0.5500 -1.0567  0.1196
 8414TIP3   OH246732   5.312   5.155  14.347  0.1158 -0.2830 -0.3700
 8414TIP3    H146733   5.399   5.184  14.375 -0.3871  1.1147 -0.1359
 8414TIP3    H246734   5.325   5.115  14.262  1.0543 -0.4941 -0.1284
 8415TIP3   OH246735   4.073   6.674  11.060  0.7219 -1.2116  0.1960
 8415TIP3    H146736   4.046   6.673  10.968  3.5794  0.6311 -0.7990
 8415TIP3    H246737   4.160   6.635  11.061  0.4626 -1.8754  2.2754
 8416TIP3   OH246738   1.858   0.016   3.468 -0.1886  0.0506  0.1823
 8416TIP3    H146739   1.845  -0.061   3.412  0.7700 -1.2021  1.6029
 8416TIP3    H246740   1.872  -0.020   3.556  0.8702  1.8304  0.7936
 8417TIP3   OH246741   0.379   1.250  11.472  0.2160  0.4466 -0.2693
 8417TIP3    H146742   0.409   1.334  11.506 -1.2825  0.7220  0.4285
 8417TIP3    H246743   0.449   1.189  11.495  0.0844  0.9879  1.6809
 8418TIP3   OH246744   4.843   6.775  15.286 -0.3682 -0.2113 -0.0513
 8418TIP3    H146745   4.785   6.845  15.257 -0.2689  0.3215  0.9823
 8418TIP3    H246746   4.786   6.716  15.336  0.0173  0.5384  1.3381
 8419TIP3   OH246747   6.539   6.411  11.857 -0.1208  0.4773  0.5019
 8419TIP3    H146748   6.463   6.459  11.890  0.6365  0.6985  1.9834
 8419TIP3    H246749   6.605   6.478  11.844  0.0111  0.2090 -0.2503
 8420TIP3   OH246750   3.528   1.260  14.807 -0.2538  0.7865 -0.5464
 8420TIP3    H146751   3.500   1.223  14.891 -0.1994  1.3762 -0.2660
 8420TIP3    H246752   3.598   1.202  14.777 -0.1790  0.6540 -0.1176
 8421TIP3   OH246753   0.166   6.322  14.367 -0.5148  0.1625 -0.0722
 8421TIP3    H146754   0.185   6.245  14.420 -1.6923 -0.5847 -0.7011
 8421TIP3    H246755   0.076   6.345  14.389 -0.6276  0.5409 -0.8877
 8422TIP3   OH246756   5.103   2.935  11.636 -0.4043 -0.6083 -0.0214
 8422TIP3    H146757   5.109   2.863  11.574  0.6110 -1.6046  1.1805
 8422TIP3    H246758   5.071   2.894  11.717  1.1910  0.0499  1.0011
 8423TIP3   OH246759   5.221   0.560   2.842  0.3186  0.1890 -0.1006
 8423TIP3    H146760   5.271   0.612   2.779  0.4472  0.3012  0.0951
 8423TIP3    H246761   5.278   0.486   2.863 -0.1358 -0.4078 -0.9025
 8424TIP3   OH246762   2.342   1.475   5.695 -0.0513  0.1448 -0.5112
 8424TIP3    H146763   2.265   1.418   5.692 -0.0004 -0.0474  0.9262
 8424TIP3    H246764   2.334   1.521   5.778  0.6024  1.2721 -1.0472
 8425TIP3   OH246765   0.069   2.362  12.814  0.1682  0.1071 -0.2106
 8425TIP3    H146766   0.031   2.277  12.793 -0.9454  0.4147  0.4535
 8425TIP3    H246767   0.156   2.342  12.848  0.9148 -0.5730 -2.4008
 8426TIP3   OH246768   2.940   2.163  14.438 -0.0843  0.7138  0.1415
 8426TIP3    H146769   2.996   2.105  14.491 -0.7360 -2.2867 -2.1575
 8426TIP3    H246770   2.986   2.170  14.354 -1.7197  0.5918 -0.7955
 8427TIP3   OH246771   4.404   4.932   5.057  0.2306 -0.4274  0.4294
 8427TIP3    H146772   4.460   4.947   5.132  1.3271 -0.2792 -0.4013
 8427TIP3    H246773   4.391   4.837   5.055  1.7424 -0.6446 -0.2560
 8428TIP3   OH246774   4.914   5.692  14.309 -1.0409 -0.6451 -0.3320
 8428TIP3    H146775   4.932   5.611  14.262 -0.9060 -0.7782 -0.0507
 8428TIP3    H246776   4.944   5.676  14.398 -1.4480 -0.4514 -0.1554
 8429TIP3   OH246777   5.967   0.934   3.418 -0.1305  0.5558 -0.6060
 8429TIP3    H146778   5.972   0.971   3.506 -1.1736  0.6535 -0.5713
 8429TIP3    H246779   5.989   1.007   3.360  0.3819  0.5385 -0.4338
 8430TIP3   OH246780   4.855   0.043   1.322  0.0287  0.2587 -0.1867
 8430TIP3    H146781   4.848   0.127   1.366  0.6931 -0.3419  1.1339
 8430TIP3    H246782   4.868   0.065   1.230 -2.9267  1.5257 -0.3889
 8431TIP3   OH246783   4.081   2.132  17.170 -0.1089  0.4375 -0.0648
 8431TIP3    H146784   4.081   2.204  17.107  0.1497  0.0830 -0.4696
 8431TIP3    H246785   4.153   2.075  17.142 -0.0079  0.2637  0.5324
 8432TIP3   OH246786   6.301   1.049  13.375  0.0041  0.3682  0.1644
 8432TIP3    H146787   6.350   0.972  13.403  0.7366  1.4306  2.0667
 8432TIP3    H246788   6.210   1.019  13.370  0.2827 -0.6489  0.7757
 8433TIP3   OH246789   3.364   2.539  13.545 -0.0309  0.2665 -0.4627
 8433TIP3    H146790   3.399   2.557  13.633 -1.1843  0.4938 -0.0374
 8433TIP3    H246791   3.435   2.492  13.501 -0.1347 -1.6991  1.2761
 8434TIP3   OH246792   6.545   0.193  12.364 -0.6193 -0.1910 -0.0079
 8434TIP3    H146793   6.501   0.120  12.408 -0.1863 -0.4277  0.0391
 8434TIP3    H246794   6.566   0.159  12.277  1.6783 -0.9603  0.7730
 8435TIP3   OH246795   5.944   1.784  13.997  0.0495  0.6798  0.0135
 8435TIP3    H146796   5.906   1.715  14.051  0.6322  0.6304  0.3718
 8435TIP3    H246797   5.940   1.750  13.908  0.2202  0.2333  0.1727
 8436TIP3   OH246798   2.826   0.696   4.670 -0.6613  0.2976 -0.9440
 8436TIP3    H146799   2.743   0.664   4.703 -0.8637  0.9953 -0.7559
 8436TIP3    H246800   2.847   0.639   4.596 -0.8985 -0.3901 -0.4845
 8437TIP3   OH246801   4.344   2.715  14.732  0.1647 -0.3695 -0.2567
 8437TIP3    H146802   4.287   2.740  14.805 -0.6417 -0.3290 -0.8864
 8437TIP3    H246803   4.358   2.621  14.744 -0.2300 -0.4273 -0.2330
 8438TIP3   OH246804   1.240   5.617  12.543 -0.6456  0.6704  0.1687
 8438TIP3    H146805   1.253   5.533  12.587  1.5123  0.7048 -0.2936
 8438TIP3    H246806   1.238   5.595  12.450 -0.6923  1.0529  0.0801
 8439TIP3   OH246807   2.592   4.034  13.932 -0.8038 -0.2938 -0.2959
 8439TIP3    H146808   2.638   4.114  13.908  0.8499 -1.4504 -1.1547
 8439TIP3    H246809   2.522   4.027  13.867 -1.1550  0.5860 -0.0336
 8440TIP3   OH246810   3.670   1.759   0.619  0.2787 -0.4707 -0.5061
 8440TIP3    H146811   3.715   1.681   0.587  1.7713 -0.2420  0.8779
 8440TIP3    H246812   3.687   1.760   0.713 -0.2665  1.1639 -0.3835
 8441TIP3   OH246813   1.084   2.865  11.492 -0.0038  0.2336 -1.0842
 8441TIP3    H146814   1.130   2.901  11.417  0.7679 -1.2658 -1.3718
 8441TIP3    H246815   1.115   2.775  11.498  0.1429  0.3763  1.1759
 8442TIP3   OH246816   6.010   2.988   1.519  0.4510 -0.1264  0.0364
 8442TIP3    H146817   5.952   2.912   1.524  1.7693 -1.0902  2.4763
 8442TIP3    H246818   5.954   3.062   1.544 -0.3457 -0.5926 -0.3043
 8443TIP3   OH246819   6.374   5.197   0.272  0.1172  0.2858 -0.4644
 8443TIP3    H146820   6.334   5.175   0.188 -0.8397  1.7034 -0.4042
 8443TIP3    H246821   6.338   5.132   0.333 -0.8143  0.5117 -0.7502
 8444TIP3   OH246822   6.294   6.536  11.584  0.6242  0.6467 -0.4755
 8444TIP3    H146823   6.352   6.609  11.562  1.2547  0.3112  0.0422
 8444TIP3    H246824   6.320   6.466  11.524  1.1726  0.2990  0.1571
 8445TIP3   OH246825   2.614   3.584   2.924 -0.0252 -0.4199  0.2525
 8445TIP3    H146826   2.639   3.542   2.841 -2.6439 -4.4823  1.1974
 8445TIP3    H246827   2.541   3.641   2.901 -1.5553 -2.4475 -0.2560
 8446TIP3   OH246828   2.580   0.932  11.588 -0.6816  0.8028 -0.1772
 8446TIP3    H146829   2.571   0.935  11.683 -0.5363  1.5061 -0.1770
 8446TIP3    H246830   2.512   0.872  11.559  1.5441 -2.3293  0.6299
 8447TIP3   OH246831   3.880   1.069  11.495  0.0422 -0.0178  0.1489
 8447TIP3    H146832   3.873   1.127  11.419 -0.9481  0.6215  0.7059
 8447TIP3    H246833   3.888   0.981  11.457  3.4419  0.5603 -0.7609
 8448TIP3   OH246834   6.664   6.483  11.386  0.2512  1.0375  0.1104
 8448TIP3    H146835   6.615   6.400  11.390  0.1005  1.1774  1.7879
 8448TIP3    H246836   6.596   6.550  11.391  0.4430  1.2671 -0.3252
 8449TIP3   OH246837   4.817   6.703   4.044  0.0135 -0.4740  0.5599
 8449TIP3    H146838   4.854   6.617   4.062 -0.9868 -0.9198  0.5184
 8449TIP3    H246839   4.788   6.699   3.953 -0.5093 -0.2673  0.7143
 8450TIP3   OH246840   4.061   2.941  15.159  0.1684 -0.5013  0.1862
 8450TIP3    H146841   3.974   2.930  15.198 -0.2185 -0.4342 -0.6231
 8450TIP3    H246842   4.076   3.035  15.160  0.8693 -0.6123  1.6412
 8451TIP3   OH246843   0.464   0.675   0.941 -0.9453 -0.3255 -0.6423
 8451TIP3    H146844   0.520   0.737   0.894  0.0908 -0.5692  0.2356
 8451TIP3    H246845   0.412   0.633   0.872  0.2028 -0.3416 -1.5189
 8452TIP3   OH246846   0.794   3.937  13.549 -0.0910  0.1431  0.6674
 8452TIP3    H146847   0.709   3.907  13.582  0.4989 -0.7468  1.4154
 8452TIP3    H246848   0.846   3.857  13.540  0.6081  0.6584  0.0144
 8453TIP3   OH246849   3.162   4.951   2.925 -0.6259 -0.0739  0.2434
 8453TIP3    H146850   3.118   4.938   2.841 -0.8809  3.3638 -0.2894
 8453TIP3    H246851   3.255   4.940   2.904 -0.7723 -0.6950 -0.1262
 8454TIP3   OH246852   0.184   4.561   5.286  0.5526  0.3849  0.2742
 8454TIP3    H146853   0.135   4.610   5.352  1.6024  0.6489  0.8720
 8454TIP3    H246854   0.173   4.470   5.311 -1.1586  0.2916 -0.6686
 8455TIP3   OH246855   5.220   6.179  14.830 -0.2369  0.2441  0.4034
 8455TIP3    H146856   5.276   6.253  14.807  0.6404  0.0549  1.7636
 8455TIP3    H246857   5.217   6.181  14.926  0.8807 -2.2139  0.5541
 8456TIP3   OH246858   4.834   6.676  12.219  0.5034  0.3657  0.4666
 8456TIP3    H146859   4.757   6.733  12.216 -1.3267 -1.9036 -3.1469
 8456TIP3    H246860   4.908   6.735  12.206 -1.3801  2.1088 -4.7688
 8457TIP3   OH246861   6.586   1.051   1.671 -0.0612 -0.3099  0.2331
 8457TIP3    H146862   6.558   1.078   1.758 -1.9996  0.4515 -0.5601
 8457TIP3    H246863   6.532   1.103   1.611  2.0805  0.1236 -1.4710
 8458TIP3   OH246864   2.745   2.866  14.090 -0.3896 -0.2417 -0.0485
 8458TIP3    H146865   2.797   2.947  14.088  1.9821 -1.6339  1.4433
 8458TIP3    H246866   2.721   2.852  13.999 -1.7460  2.6219 -0.2630
 8459TIP3   OH246867   0.945   1.202  13.634 -0.2432  0.0369 -0.6383
 8459TIP3    H146868   1.006   1.261  13.590  0.3994 -1.0110 -1.1792
 8459TIP3    H246869   0.900   1.156  13.563  2.0145 -2.9194 -0.3050
 8460TIP3   OH246870   1.682   4.466  12.403 -0.0050 -0.1110 -0.1326
 8460TIP3    H146871   1.620   4.497  12.337 -0.0051 -0.3894 -0.2684
 8460TIP3    H246872   1.627   4.420  12.467 -0.2335  1.7230  1.0496
 8461TIP3   OH246873   6.658   2.208  15.606 -0.1976  0.2555  0.4689
 8461TIP3    H146874   6.616   2.221  15.521 -0.1650 -2.0518  0.0527
 8461TIP3    H246875   6.587   2.218  15.670 -1.3082 -2.6972 -0.1717
 8462TIP3   OH246876   2.781   0.579  14.754  0.0680 -0.4641 -0.6184
 8462TIP3    H146877   2.857   0.593  14.810  1.4847 -2.2703 -2.0008
 8462TIP3    H246878   2.726   0.519  14.804  0.9332 -1.4122 -0.7729
 8463TIP3   OH246879   5.009   5.398  16.908 -0.3570 -0.2190 -0.0189
 8463TIP3    H146880   5.020   5.304  16.923 -1.7188 -0.4632 -0.4525
 8463TIP3    H246881   4.940   5.424  16.970  0.6144  0.6935  0.7243
 8464TIP3   OH246882   0.293   4.441   1.569  0.1130 -0.4903  0.5032
 8464TIP3    H146883   0.346   4.492   1.508  0.1781 -1.3578 -0.1733
 8464TIP3    H246884   0.218   4.497   1.587  0.2606 -0.0842 -0.1079
 8465TIP3   OH246885   3.362   3.888  14.801 -0.2122 -0.3191 -0.2062
 8465TIP3    H146886   3.405   3.806  14.778  1.1461  0.5013 -0.7118
 8465TIP3    H246887   3.325   3.872  14.888 -1.3869 -1.9588 -0.9619
 8466TIP3   OH246888   1.918   6.218   5.899 -0.4822 -0.2923  0.3767
 8466TIP3    H146889   1.849   6.263   5.950 -2.2339 -1.0902 -1.1615
 8466TIP3    H246890   1.994   6.218   5.957 -3.0362 -3.6143  4.2707
 8467TIP3   OH246891   5.131   3.697   2.153 -0.0615  0.2754 -0.1605
 8467TIP3    H146892   5.202   3.649   2.197 -0.4736  0.5652  0.8620
 8467TIP3    H246893   5.173   3.737   2.077  0.9480  0.6534  0.5697
 8468TIP3   OH246894   2.747   2.148   3.856  0.1391 -0.0436  0.3716
 8468TIP3    H146895   2.779   2.108   3.775 -1.0642  2.2646 -1.3248
 8468TIP3    H246896   2.775   2.087   3.925  2.0339 -1.6113 -1.6436
 8469TIP3   OH246897   3.379   0.538  12.426 -1.2870  0.0292  0.4960
 8469TIP3    H146898   3.403   0.541  12.518 -3.2801  0.0008  1.0467
 8469TIP3    H246899   3.438   0.602  12.385 -0.9787  0.7043  1.9216
 8470TIP3   OH246900   2.928   2.692   0.336  0.5722 -0.1726 -0.4086
 8470TIP3    H146901   3.008   2.660   0.293  0.6721  0.8813 -1.0214
 8470TIP3    H246902   2.857   2.661   0.279  0.6346  0.1807 -0.6819
 8471TIP3   OH246903   1.948   0.521  17.063 -0.0839 -0.2633 -0.0760
 8471TIP3    H146904   1.942   0.543  16.970  0.0470 -0.3752 -0.1123
 8471TIP3    H246905   1.938   0.605  17.109  0.9951 -0.0356 -0.2304
 8472TIP3   OH246906   2.263   5.044   6.031  0.2372 -0.3199 -0.2108
 8472TIP3    H146907   2.306   5.100   5.966  0.3046  0.2151  0.2817
 8472TIP3    H246908   2.328   4.976   6.049  0.6415  0.1248  0.0606
 8473TIP3   OH246909   1.368   4.108   4.585 -0.0191  0.0348  0.1461
 8473TIP3    H146910   1.411   4.068   4.660 -0.1720  0.0359  0.2362
 8473TIP3    H246911   1.437   4.119   4.520  0.1788  0.3192  0.3999
 8474TIP3   OH246912   4.456   0.539  16.532  0.0850  0.2455  0.0790
 8474TIP3    H146913   4.408   0.615  16.563 -0.5912  0.4966 -1.5238
 8474TIP3    H246914   4.391   0.487  16.485  1.1625  0.1397 -1.3519
 8475TIP3   OH246915   2.888   0.875   2.088  0.1452 -0.1790  0.0596
 8475TIP3    H146916   2.983   0.883   2.096  0.1461 -0.4639  0.3944
 8475TIP3    H246917   2.854   0.931   2.158  0.0335  0.9324 -0.8739
 8476TIP3   OH246918   3.526   1.444   4.825 -0.2878  0.3322  1.0893
 8476TIP3    H146919   3.476   1.523   4.806 -0.3354 -0.4399 -2.7935
 8476TIP3    H246920   3.591   1.438   4.754  0.1520 -2.7389  1.5841
 8477TIP3   OH246921   0.090   5.586   5.481 -0.0104 -0.4376  0.5533
 8477TIP3    H146922   0.014   5.624   5.525  0.1332  0.3574  0.1444
 8477TIP3    H246923   0.165   5.616   5.532  0.0243 -1.5734  1.2082
 8478TIP3   OH246924   1.259   6.234   3.290  0.1926 -0.7020  0.4327
 8478TIP3    H146925   1.270   6.143   3.317 -1.7949 -1.5678 -1.4133
 8478TIP3    H246926   1.336   6.253   3.236 -1.1070 -2.6462 -2.3563
 8479TIP3   OH246927   4.751   5.023   2.555  0.0894 -0.3099 -0.0043
 8479TIP3    H146928   4.809   5.092   2.524  2.0565 -2.3014 -1.0554
 8479TIP3    H246929   4.772   5.014   2.648  1.6875 -1.1072 -0.4012
 8480TIP3   OH246930   2.265   3.737   6.105 -0.4799  0.3272 -0.2172
 8480TIP3    H146931   2.318   3.658   6.092 -2.3728 -0.7897 -1.7571
 8480TIP3    H246932   2.329   3.806   6.122  1.4292 -1.0478 -1.3474
 8481TIP3   OH246933   1.699   2.142   2.379  0.3828  0.1165 -0.3934
 8481TIP3    H146934   1.621   2.175   2.423  2.4488  2.5731  1.7699
 8481TIP3    H246935   1.727   2.215   2.323  1.5514 -0.4223 -0.5388
 8482TIP3   OH246936   2.378   5.796   6.494 -0.1472  0.0067  0.4535
 8482TIP3    H146937   2.351   5.742   6.420 -0.9497 -0.2931  0.9602
 8482TIP3    H246938   2.471   5.775   6.506 -0.2992 -0.7944  0.2621
 8483TIP3   OH246939   5.524   3.473  15.617 -0.8610 -0.1773 -0.6532
 8483TIP3    H146940   5.521   3.389  15.664 -1.7827 -0.2817 -0.8811
 8483TIP3    H246941   5.601   3.517  15.652 -0.8963 -0.7285  0.1561
 8484TIP3   OH246942   4.364   1.535   6.489 -0.1181  0.1396 -0.0286
 8484TIP3    H146943   4.399   1.559   6.575 -0.0633 -1.6562  0.4958
 8484TIP3    H246944   4.278   1.497   6.508  0.4895 -1.5970 -0.5761
 8485TIP3   OH246945   5.765   1.799  12.567 -0.1462  0.0076 -0.0498
 8485TIP3    H146946   5.794   1.771  12.480  1.4817 -0.3811  0.5922
 8485TIP3    H246947   5.823   1.754  12.628  0.0560  1.8064  1.1743
 8486TIP3   OH246948   2.397   1.408   0.831  0.3700 -0.2575 -0.3850
 8486TIP3    H146949   2.313   1.443   0.862  0.6173  1.0193 -1.0967
 8486TIP3    H246950   2.458   1.481   0.841  0.7738 -0.2354 -2.4666
 8487TIP3   OH246951   2.126   0.770  10.610 -0.0171  0.6735 -0.1195
 8487TIP3    H146952   2.185   0.843  10.629 -0.8453  1.3022  0.0656
 8487TIP3    H246953   2.043   0.811  10.587 -0.5798 -0.2223  0.2693
 8488TIP3   OH246954   6.062   5.481   2.839  0.0011 -0.1945  0.0261
 8488TIP3    H146955   6.128   5.518   2.898  0.0010 -0.1054 -0.0303
 8488TIP3    H246956   6.025   5.557   2.794 -0.6031 -0.1845  0.5326
 8489TIP3   OH246957   0.567   5.941  13.466 -0.1411  0.2136  0.2141
 8489TIP3    H146958   0.525   5.912  13.547 -0.4665  0.2518  0.0606
 8489TIP3    H246959   0.648   5.983  13.495  0.1341 -0.4699  0.4702
 8490TIP3   OH246960   0.308   6.426   3.269  0.8563 -0.0134 -0.0186
 8490TIP3    H146961   0.365   6.478   3.213  0.9138 -0.6831 -0.5985
 8490TIP3    H246962   0.333   6.335   3.251  1.1694 -0.2373  1.4081
 8491TIP3   OH246963   1.212   1.827   5.413  0.0829  0.1250  0.0043
 8491TIP3    H146964   1.239   1.844   5.503 -0.0016  1.9109 -0.2713
 8491TIP3    H246965   1.243   1.904   5.364 -1.4016  0.0261 -1.1586
 8492TIP3   OH246966   0.309   4.251  16.157 -0.7229 -0.4659  0.0766
 8492TIP3    H146967   0.319   4.294  16.242 -0.1519 -1.8519  0.7374
 8492TIP3    H246968   0.321   4.158  16.176 -0.1931 -0.7597 -1.5863
 8493TIP3   OH246969   0.596   2.754   5.481  0.3637  0.1263  0.3929
 8493TIP3    H146970   0.676   2.782   5.526  0.9857 -2.3496  0.9565
 8493TIP3    H246971   0.614   2.770   5.389  1.2309  0.2784  0.5769
 8494TIP3   OH246972   5.824   3.036   5.066  0.6476  0.2240  0.8844
 8494TIP3    H146973   5.833   3.131   5.058 -1.3564  0.5092  1.3213
 8494TIP3    H246974   5.882   3.000   4.999  1.6261  1.7343  0.8709
 8495TIP3   OH246975   0.150   2.671  16.269  0.5354  1.0567  0.0657
 8495TIP3    H146976   0.120   2.752  16.311 -0.7966  0.7051 -0.1503
 8495TIP3    H246977   0.105   2.670  16.184 -1.2936 -0.9807  0.9684
 8496TIP3   OH246978   3.149   5.399   4.153 -0.2988  0.2777  0.5795
 8496TIP3    H146979   3.196   5.443   4.224 -2.3500  0.7839  1.7024
 8496TIP3    H246980   3.129   5.312   4.188  0.2453 -0.1367 -0.1018
 8497TIP3   OH246981   5.903   5.789  15.494 -0.3393  0.2501  0.5263
 8497TIP3    H146982   5.862   5.764  15.411 -1.6347 -2.7074  1.8995
 8497TIP3    H246983   5.963   5.716  15.513  0.2271  1.0646  1.9902
 8498TIP3   OH246984   4.499   3.724  16.432  0.5068 -0.3276  0.5356
 8498TIP3    H146985   4.563   3.689  16.494  0.1569  0.4782  1.3851
 8498TIP3    H246986   4.420   3.736  16.484 -0.2413 -0.9846 -0.4209
 8499TIP3   OH246987   6.196   0.793  15.525  0.2055 -0.1228 -0.8891
 8499TIP3    H146988   6.242   0.780  15.442 -0.7477  0.0784 -1.4700
 8499TIP3    H246989   6.208   0.886  15.545  2.0807 -0.5579  0.2350
 8500TIP3   OH246990   1.994   1.960   0.612 -0.6895 -0.4915  0.5846
 8500TIP3    H146991   1.914   1.990   0.656  0.1244  0.6747  1.3370
 8500TIP3    H246992   2.064   2.011   0.653  0.0865  1.1530 -2.4406
 8501TIP3   OH246993   0.435   5.421  14.183  0.0344 -0.0191 -0.9160
 8501TIP3    H146994   0.474   5.345  14.140  1.9401  0.7273 -0.5700
 8501TIP3    H246995   0.444   5.403  14.276 -1.3326 -0.2428 -0.8057
 8502TIP3   OH246996   5.381   5.189   0.136 -0.3267  0.5642  0.4458
 8502TIP3    H146997   5.378   5.118   0.073  0.7862 -0.9667  1.9989
 8502TIP3    H246998   5.307   5.174   0.195  1.0965 -0.6624  2.0421
 8503TIP3   OH246999   4.822   6.437  12.921  0.5675  0.5595 -0.3191
 8503TIP3    H147000   4.834   6.452  13.014  0.4205 -0.3487 -0.1431
 8503TIP3    H247001   4.909   6.454  12.882  1.4722 -1.9831  0.3984
 8504TIP3   OH247002   4.050   2.319   6.709  0.1843 -0.0018  1.0179
 8504TIP3    H147003   4.001   2.253   6.661 -0.0604  0.7594  0.1767
 8504TIP3    H247004   4.129   2.333   6.656  0.1550  0.4902  1.0977
 8505TIP3   OH247005   4.484   3.612   3.470  0.1845  0.6519 -0.0785
 8505TIP3    H147006   4.434   3.610   3.551  0.3709  1.7317  0.0843
 8505TIP3    H247007   4.442   3.548   3.413  0.3504 -0.4741  1.0334
 8506TIP3   OH247008   3.252   2.773  15.020  0.4619 -0.1812  0.8274
 8506TIP3    H147009   3.243   2.841  15.087  1.3176  1.3043 -0.5283
 8506TIP3    H247010   3.308   2.811  14.953 -0.0477 -1.7791 -0.5809
 8507TIP3   OH247011   2.812   2.485   2.267 -0.5967 -0.1633  0.1357
 8507TIP3    H147012   2.747   2.521   2.207 -0.5363 -1.4286 -0.7185
 8507TIP3    H247013   2.825   2.395   2.237  1.8354  0.1750  0.0446
 8508TIP3   OH247014   4.466   4.892  11.059  0.4026 -0.2375 -0.3157
 8508TIP3    H147015   4.540   4.940  11.021  1.1565 -1.0127  0.1096
 8508TIP3    H247016   4.508   4.825  11.114 -0.6090 -1.1445 -0.6177
 8509TIP3   OH247017   0.961   3.880   0.798 -0.0143  0.5171 -0.0500
 8509TIP3    H147018   1.018   3.948   0.763 -0.7644  1.2276  0.0707
 8509TIP3    H247019   0.936   3.828   0.721 -0.6340  1.2981 -0.3886
 8510TIP3   OH247020   3.870   6.088   3.040 -0.0460  0.0500 -0.0098
 8510TIP3    H147021   3.854   6.105   3.133  1.4406  1.3337  0.0641
 8510TIP3    H247022   3.958   6.051   3.037  1.6022  3.5518 -1.0670
 8511TIP3   OH247023   6.731   5.106   4.597  0.0063  0.3572  0.0385
 8511TIP3    H147024   6.687   5.059   4.668  2.5556 -0.7715  0.9888
 8511TIP3    H247025   6.681   5.188   4.588 -1.0168  0.0750  2.4021
 8512TIP3   OH247026   0.643   3.122   3.682  0.1213  0.4307  0.2595
 8512TIP3    H147027   0.701   3.094   3.753  2.2949  1.6821 -0.9136
 8512TIP3    H247028   0.570   3.165   3.726  0.2392 -0.8319  1.7774
 8513TIP3   OH247029   2.911   3.510  15.072  0.1979 -0.1990 -0.1184
 8513TIP3    H147030   2.828   3.557  15.075  0.6138  0.4995  1.0107
 8513TIP3    H247031   2.957   3.547  14.997  0.1745  0.6135  0.2595
 8514TIP3   OH247032   4.876   0.262   1.127 -0.0243  0.5790 -0.1650
 8514TIP3    H147033   4.789   0.295   1.105  0.2128  0.8343 -0.7394
 8514TIP3    H247034   4.906   0.319   1.198  0.2083  1.3380 -0.8600
 8515TIP3   OH247035   0.429   5.368   4.829  0.2911 -0.2858  0.4215
 8515TIP3    H147036   0.405   5.408   4.745 -0.7236 -1.6967 -0.0050
 8515TIP3    H247037   0.407   5.276   4.818  0.8170 -0.6244  2.0118
 8516TIP3   OH247038   0.533   1.933  12.991  0.1868  0.3158  0.1152
 8516TIP3    H147039   0.500   1.848  12.964 -0.0424  0.1180  0.9878
 8516TIP3    H247040   0.629   1.923  12.992  0.2005  0.3213 -0.5673
 8517TIP3   OH247041   3.001   3.377  11.520 -0.1887 -0.3936  0.0764
 8517TIP3    H147042   3.019   3.286  11.545 -0.5446 -0.1285  1.3866
 8517TIP3    H247043   2.906   3.383  11.521 -0.2328 -0.4186 -1.6463
 8518TIP3   OH247044   4.779   3.066   2.182  0.1871  0.2806 -0.5836
 8518TIP3    H147045   4.739   2.980   2.194 -2.2495  1.5155  1.2746
 8518TIP3    H247046   4.834   3.078   2.259  2.6155 -0.5674 -2.1082
 8519TIP3   OH247047   3.509   3.653  14.256  0.0467 -0.1332 -0.2546
 8519TIP3    H147048   3.526   3.714  14.328 -1.3725  1.4199 -1.1561
 8519TIP3    H247049   3.435   3.692  14.209 -1.2285 -2.8026 -0.6269
 8520TIP3   OH247050   0.013   5.642  15.449  0.2851  0.1035 -0.1493
 8520TIP3    H147051   0.010   5.621  15.542  2.2632 -1.0935 -0.3025
 8520TIP3    H247052  -0.016   5.563  15.405  4.0723 -1.1874 -0.6198
 8521TIP3   OH247053   2.255   5.091   2.580  0.1757  0.0677 -0.0159
 8521TIP3    H147054   2.194   5.056   2.515  0.0254 -0.0963  0.2126
 8521TIP3    H247055   2.258   5.025   2.649 -0.6802  0.8258  0.7780
 8522TIP3   OH247056   4.175   2.207  16.780 -0.0266 -0.8501 -0.1558
 8522TIP3    H147057   4.221   2.123  16.783  0.3768 -0.7818 -2.3485
 8522TIP3    H247058   4.244   2.272  16.769 -0.4090 -0.3348  0.4576
 8523TIP3   OH247059   3.551   5.342   2.674  0.3132 -0.5682 -0.2312
 8523TIP3    H147060   3.501   5.391   2.740  2.1307  0.1425  0.6867
 8523TIP3    H247061   3.544   5.395   2.595  0.7817  0.2746  0.2771
 8524TIP3   OH247062   6.074   5.972  10.501  0.1024  0.6161  0.3153
 8524TIP3    H147063   6.122   6.050  10.475 -0.8774  1.2296  0.3094
 8524TIP3    H247064   5.984   5.988  10.473  0.2577 -1.4614 -1.7582
 8525TIP3   OH247065   5.321   0.414  14.768  0.6212 -0.2515 -0.3453
 8525TIP3    H147066   5.325   0.471  14.691 -0.0636  1.1591  0.6211
 8525TIP3    H247067   5.372   0.460  14.835 -1.0688 -0.0413  0.8766
 8526TIP3   OH247068   2.546   4.584  15.762  0.0171 -0.2873 -0.2370
 8526TIP3    H147069   2.534   4.578  15.668  0.1673  2.9832 -0.5573
 8526TIP3    H247070   2.462   4.559  15.799 -0.8806  0.9326 -1.3858
 8527TIP3   OH247071   0.009   2.559   3.863 -0.2990  0.3740 -0.4725
 8527TIP3    H147072   0.077   2.599   3.809 -0.3086 -1.4406 -1.9264
 8527TIP3    H247073   0.050   2.480   3.898 -0.8954  0.5652  0.7049
 8528TIP3   OH247074   4.074   2.122  14.252 -0.2524  0.3866 -0.3623
 8528TIP3    H147075   4.025   2.204  14.266 -1.7821  0.0677 -3.1035
 8528TIP3    H247076   4.166   2.147  14.263 -0.6219  2.7024 -1.7656
 8529TIP3   OH247077   1.103   0.296   0.276 -0.0722  0.4090 -0.0364
 8529TIP3    H147078   1.020   0.287   0.230 -1.6554 -1.9349  2.9345
 8529TIP3    H247079   1.123   0.208   0.306  2.5744  1.2451  0.9402
 8530TIP3   OH247080   2.431   4.735  14.905  0.2050 -0.3420  0.1252
 8530TIP3    H147081   2.416   4.749  14.999 -1.0408  0.4233 -0.1652
 8530TIP3    H247082   2.372   4.797  14.862 -1.1737 -2.4630 -1.1971
 8531TIP3   OH247083   2.801   5.650   5.082  0.1372 -0.6611  0.6353
 8531TIP3    H147084   2.773   5.716   5.018 -1.4333 -1.6104  0.2789
 8531TIP3    H247085   2.884   5.683   5.117 -1.7686  2.8173  2.3467
 8532TIP3   OH247086   1.064   3.673  12.668 -0.2763  0.3740 -0.1075
 8532TIP3    H147087   1.011   3.661  12.747 -0.1294 -1.3445 -0.2328
 8532TIP3    H247088   1.002   3.703  12.601 -0.8395 -0.2997  0.0991
 8533TIP3   OH247089   3.508   4.409  15.034 -0.2335 -0.0938  0.5780
 8533TIP3    H147090   3.503   4.495  15.076  0.6317  1.0049 -1.4096
 8533TIP3    H247091   3.591   4.373  15.062 -1.1923 -0.9476  2.5009
 8534TIP3   OH247092   6.510   5.527   3.510 -0.0053 -0.5204 -0.2512
 8534TIP3    H147093   6.435   5.492   3.462 -2.1250 -0.9921  3.0494
 8534TIP3    H247094   6.482   5.615   3.537 -0.1217 -1.2626  2.3025
 8535TIP3   OH247095   3.107   2.648  16.099 -0.3224  0.3742 -0.6153
 8535TIP3    H147096   3.018   2.632  16.131 -1.0183  2.5763 -1.2233
 8535TIP3    H247097   3.135   2.727  16.145  1.4723 -0.4411 -0.2323
 8536TIP3   OH247098   1.844   4.365   5.369  0.5666 -0.3145 -0.1988
 8536TIP3    H147099   1.807   4.361   5.457 -1.3082 -0.2347 -0.9467
 8536TIP3    H247100   1.807   4.444   5.331  2.4042  0.3747 -0.6499
 8537TIP3   OH247101   6.717   0.434  14.045  0.1868  0.1507 -0.0613
 8537TIP3    H147102   6.655   0.440  14.118 -0.7254 -0.1134 -0.7906
 8537TIP3    H247103   6.803   0.430  14.087 -0.3625 -0.8464  1.0465
 8538TIP3   OH247104   1.819   2.009  14.792  0.2119  0.7339  0.2518
 8538TIP3    H147105   1.748   2.027  14.854 -0.5152  1.2083 -0.6996
 8538TIP3    H247106   1.784   1.942  14.734  1.2465 -0.4406  0.9177
 8539TIP3   OH247107   3.645   3.594  16.448  0.1663  0.5367  0.0263
 8539TIP3    H147108   3.583   3.655  16.408  1.2661  1.6918  0.0238
 8539TIP3    H247109   3.673   3.639  16.528  2.5115  0.9874 -0.9792
 8540TIP3   OH247110   0.716   1.122  15.180  0.8093 -0.0276  0.4109
 8540TIP3    H147111   0.703   1.089  15.268  1.6210 -1.5855 -0.0270
 8540TIP3    H247112   0.704   1.046  15.123  2.2344  0.5092 -0.6707
 8541TIP3   OH247113   3.911   5.730  16.325 -0.9187 -0.0209  0.4242
 8541TIP3    H147114   3.951   5.815  16.307  2.0250 -1.3354  0.1186
 8541TIP3    H247115   3.984   5.674  16.352 -2.9537 -2.0841  2.1688
 8542TIP3   OH247116   1.378   2.858   5.881  0.4412  0.0891  0.0735
 8542TIP3    H147117   1.386   2.802   5.958 -0.8980 -2.4253 -1.4933
 8542TIP3    H247118   1.451   2.833   5.824 -0.1779 -0.1277 -0.6480
 8543TIP3   OH247119   4.757   0.536   4.977 -0.1127  0.1301  0.3170
 8543TIP3    H147120   4.777   0.483   5.054  0.8959 -1.6919 -1.1037
 8543TIP3    H247121   4.789   0.484   4.903  0.3988  2.4838 -1.2422
 8544TIP3   OH247122   5.263   5.713   0.135 -0.6659 -0.4570  0.0953
 8544TIP3    H147123   5.228   5.742   0.219 -1.6052  0.4036 -0.5534
 8544TIP3    H247124   5.329   5.778   0.112 -1.4783  0.1965 -0.5038
 8545TIP3   OH247125   2.437   6.211  13.801 -0.1663 -0.7499 -0.0044
 8545TIP3    H147126   2.412   6.123  13.774  3.4041 -1.7418 -0.6339
 8545TIP3    H247127   2.421   6.266  13.724 -1.1689 -1.0981 -0.0520
 8546TIP3   OH247128   4.500   0.398  16.738  0.8470  0.2311 -0.0086
 8546TIP3    H147129   4.441   0.451  16.791  1.3956 -0.9054  1.8146
 8546TIP3    H247130   4.533   0.459  16.671 -0.3466  1.5431  0.5434
 8547TIP3   OH247131   1.543   6.058   4.861  0.3450  0.5105 -0.3702
 8547TIP3    H147132   1.450   6.073   4.844  0.2360  0.9626  0.5758
 8547TIP3    H247133   1.588   6.092   4.783 -0.2686  0.4441 -0.7548
 8548TIP3   OH247134   3.801   6.387   1.994  0.1998  0.1425 -0.4961
 8548TIP3    H147135   3.881   6.336   1.978  0.8606  1.0751 -0.2073
 8548TIP3    H247136   3.767   6.405   1.906  0.2436 -0.3392 -0.6190
 8549TIP3   OH247137   5.406   1.072   3.121  0.2843 -0.1510  0.6650
 8549TIP3    H147138   5.469   1.089   3.190 -0.5126 -0.0806  1.3959
 8549TIP3    H247139   5.388   1.158   3.082  2.2176 -0.4288 -1.0026
 8550TIP3   OH247140   4.570   4.382  13.234 -0.4586 -0.0366  0.4549
 8550TIP3    H147141   4.640   4.322  13.259  2.1145  2.6534  0.2775
 8550TIP3    H247142   4.540   4.420  13.317  0.0891  0.6301  0.3555
 8551TIP3   OH247143   3.617   0.130  13.297 -0.4217 -0.2562 -0.1147
 8551TIP3    H147144   3.531   0.166  13.275  0.2156  0.5897 -1.4230
 8551TIP3    H247145   3.679   0.188  13.251  0.8363 -0.8831  0.7328
 8552TIP3   OH247146   6.363   5.275   4.433 -0.0242 -0.0137 -0.1407
 8552TIP3    H147147   6.271   5.250   4.444  0.2539 -1.0337 -0.0089
 8552TIP3    H247148   6.398   5.278   4.522  0.1347  0.0915 -0.2068
 8553TIP3   OH247149   1.024   0.888  11.847  0.1967  0.8040 -0.5986
 8553TIP3    H147150   1.112   0.906  11.815  1.0528 -1.6873  0.1189
 8553TIP3    H247151   1.021   0.928  11.934  0.6894  0.7549 -0.5570
 8554TIP3   OH247152   3.770   2.788  15.440 -0.2819  0.1192  0.4322
 8554TIP3    H147153   3.700   2.798  15.505 -1.1303 -2.1065 -0.0487
 8554TIP3    H247154   3.850   2.812  15.487 -1.1988  1.6664  1.3186
 8555TIP3   OH247155   2.880   5.588   3.500  0.1506  0.1750 -0.2508
 8555TIP3    H147156   2.949   5.646   3.533 -0.5099  0.4376  0.7248
 8555TIP3    H247157   2.832   5.561   3.578  0.5026 -1.8102 -0.6798
 8556TIP3   OH247158   1.599   4.941   3.368 -0.1883 -0.1172 -0.0631
 8556TIP3    H147159   1.523   4.976   3.323  0.5686  1.9135  0.1473
 8556TIP3    H247160   1.668   5.006   3.354  1.3630 -1.6185  0.2163
 8557TIP3   OH247161   3.880   2.405   0.061  0.1213 -0.4432  0.0127
 8557TIP3    H147162   3.945   2.414  -0.009 -0.2505  1.4703 -0.1311
 8557TIP3    H247163   3.797   2.431   0.021 -0.1229  0.5309  1.0972
 8558TIP3   OH247164   4.459   4.277   3.887  0.0954 -0.1454 -0.1370
 8558TIP3    H147165   4.397   4.350   3.882  1.1061  0.7072 -0.6752
 8558TIP3    H247166   4.545   4.318   3.876  0.7502 -1.3196  0.3884
 8559TIP3   OH247167   3.545   5.766   2.130 -0.6168 -0.7090  0.2112
 8559TIP3    H147168   3.613   5.783   2.196  0.1405 -0.1943 -0.6713
 8559TIP3    H247169   3.471   5.820   2.157  0.2220  0.6764 -0.1642
 8560TIP3   OH247170   2.426   4.340   2.634 -0.5279  0.5305  0.0994
 8560TIP3    H147171   2.495   4.407   2.633 -1.1781  1.2041 -0.6075
 8560TIP3    H247172   2.458   4.272   2.575 -0.2309  0.5809  0.1978
 8561TIP3   OH247173   1.753   2.806  15.961 -0.0151  0.2066 -0.6108
 8561TIP3    H147174   1.713   2.775  15.880 -0.6715  1.1923 -0.6765
 8561TIP3    H247175   1.785   2.727  16.004 -4.4454 -1.0746  0.8233
 8562TIP3   OH247176   0.406   1.254   3.798  0.2702 -0.1493  0.8426
 8562TIP3    H147177   0.329   1.207   3.765  1.8659 -2.5283  0.2570
 8562TIP3    H247178   0.380   1.346   3.794 -3.1731 -0.8703  2.3731
 8563TIP3   OH247179   6.526   0.246  11.824 -0.3979  0.1540 -0.4511
 8563TIP3    H147180   6.602   0.282  11.780  0.7254 -0.6834  0.7253
 8563TIP3    H247181   6.464   0.227  11.753  0.1538  1.5510 -1.3486
 8564TIP3   OH247182   0.670   1.611   0.229 -0.0795  0.1047 -0.0925
 8564TIP3    H147183   0.754   1.568   0.249  0.1273  0.5842  0.0916
 8564TIP3    H247184   0.647   1.579   0.142 -0.9843 -2.0204  0.8644
 8565TIP3   OH247185   3.869   3.754  15.596 -0.1767 -0.2691 -0.4280
 8565TIP3    H147186   3.848   3.754  15.503  1.3950 -0.2803 -0.8148
 8565TIP3    H247187   3.852   3.844  15.625  2.0028  0.5529 -1.4304
 8566TIP3   OH247188   1.206   0.504   5.183 -0.1742  0.3276  0.0332
 8566TIP3    H147189   1.178   0.560   5.111 -0.2123  1.5496  0.9686
 8566TIP3    H247190   1.125   0.470   5.220 -0.1379 -0.7075 -0.7769
 8567TIP3   OH247191   0.260   5.455  14.626  0.9019 -0.4373  0.4542
 8567TIP3    H147192   0.175   5.467  14.584  1.1435 -0.3176 -0.0097
 8567TIP3    H247193   0.247   5.485  14.716  0.1241 -1.5615  0.7506
 8568TIP3   OH247194   1.558   4.231  11.873  0.6220  0.0854  0.2080
 8568TIP3    H147195   1.638   4.200  11.829  1.5105 -1.0717  2.4908
 8568TIP3    H247196   1.588   4.265  11.957 -1.1659  0.9139  0.5612
 8569TIP3   OH247197   0.308   4.905  11.706  0.1060  0.1002  0.3102
 8569TIP3    H147198   0.389   4.885  11.753  1.2196 -0.4076 -1.6808
 8569TIP3    H247199   0.337   4.955  11.629 -1.1794 -1.8499 -1.5535
 8570TIP3   OH247200   1.774   6.333   1.522 -0.0223  0.8496 -0.6956
 8570TIP3    H147201   1.853   6.317   1.470  1.8292  2.5000  1.4286
 8570TIP3    H247202   1.798   6.308   1.611 -2.7256 -0.8092 -0.3074
 8571TIP3   OH247203   5.024   5.054   3.869 -0.2356  0.0676 -0.3494
 8571TIP3    H147204   5.002   5.024   3.957 -0.1958 -0.8766 -0.6539
 8571TIP3    H247205   4.962   5.124   3.850  0.6354  1.2459  0.9648
 8572TIP3   OH247206   3.111   3.751  12.036  1.0804  1.0825  0.1544
 8572TIP3    H147207   3.152   3.761  12.122  0.9927  0.7508  0.2361
 8572TIP3    H247208   3.019   3.732  12.056  1.4351 -1.0663  0.0652
 8573TIP3   OH247209   2.625   3.537  15.326 -0.1642  0.3906 -0.0776
 8573TIP3    H147210   2.567   3.544  15.402 -1.4886  0.4696 -1.0668
 8573TIP3    H247211   2.660   3.625  15.313  0.5903  0.2413  0.8098
 8574TIP3   OH247212   3.449   5.524  10.940  0.5036  0.4374  0.3434
 8574TIP3    H147213   3.360   5.518  10.974  0.8115 -0.2864  1.0694
 8574TIP3    H247214   3.482   5.434  10.943  1.0149  0.5821 -0.6009
 8575TIP3   OH247215   1.430   1.413  14.846 -0.7508  0.1175 -0.2867
 8575TIP3    H147216   1.480   1.339  14.810 -0.4901 -0.8070  1.7977
 8575TIP3    H247217   1.350   1.373  14.879 -2.7920  1.5175 -3.1470
 8576TIP3   OH247218   2.692   0.452   0.197 -0.2041 -0.2433  0.3750
 8576TIP3    H147219   2.695   0.468   0.103 -0.8101  3.3561  0.7895
 8576TIP3    H247220   2.783   0.455   0.225 -0.0738 -0.5156 -0.0182
 8577TIP3   OH247221   3.113   3.100  17.206 -0.2100  0.0247 -0.5852
 8577TIP3    H147222   3.064   3.080  17.286 -1.0276 -0.0403 -1.0886
 8577TIP3    H247223   3.050   3.087  17.135 -0.1254  2.1435 -1.1189
 8578TIP3   OH247224   0.790   0.342   1.413 -0.1310 -0.0093  0.3929
 8578TIP3    H147225   0.700   0.312   1.400 -0.1053 -0.1810  0.6176
 8578TIP3    H247226   0.844   0.265   1.395 -0.0889 -0.2377  1.4605
 8579TIP3   OH247227   5.817   1.876  11.305 -0.3351 -0.4315  0.0408
 8579TIP3    H147228   5.885   1.847  11.366 -0.3723 -1.2435 -0.2804
 8579TIP3    H247229   5.862   1.888  11.222 -0.5652 -0.9360 -0.1646
 8580TIP3   OH247230   2.827   3.758   1.263 -0.3873 -0.0515  0.0485
 8580TIP3    H147231   2.862   3.847   1.267  2.0659 -0.6861 -3.1790
 8580TIP3    H247232   2.766   3.760   1.189  0.4575 -1.2165 -0.7119
 8581TIP3   OH247233   6.560   2.027   0.616  0.2159  0.4055  0.9715
 8581TIP3    H147234   6.598   2.046   0.530 -1.2719  1.4245  0.5040
 8581TIP3    H247235   6.620   1.964   0.656  1.1263  0.2038 -0.6600
 8582TIP3   OH247236   2.117   4.455   3.361 -0.4010  0.1606 -0.0815
 8582TIP3    H147237   2.190   4.412   3.316 -0.0986  1.0535 -0.4637
 8582TIP3    H247238   2.128   4.547   3.340 -1.3345  0.3632  0.3114
 8583TIP3   OH247239   3.778   2.039   4.797  0.3778 -0.2218  0.5460
 8583TIP3    H147240   3.770   2.084   4.712  1.9703 -0.7013  0.1086
 8583TIP3    H247241   3.872   2.028   4.809  0.1211 -1.1076  1.8961
 8584TIP3   OH247242   1.335   1.122  10.321 -0.5515 -0.3051 -0.3562
 8584TIP3    H147243   1.246   1.138  10.354 -0.5905  1.3443 -1.1437
 8584TIP3    H247244   1.359   1.204  10.277  1.1783 -0.8957 -0.5867
 8585TIP3   OH247245   1.430   5.956  12.028 -0.4844 -0.3199  0.5239
 8585TIP3    H147246   1.516   5.927  12.058 -0.6713 -1.1897  0.2519
 8585TIP3    H247247   1.441   6.049  12.009  0.4626 -0.4860  0.2272
 8586TIP3   OH247248   0.250   3.822  16.426  0.0575 -0.0888  0.2263
 8586TIP3    H147249   0.257   3.770  16.346 -1.5183  0.6696 -0.4486
 8586TIP3    H247250   0.333   3.868  16.432  0.2718 -0.3081 -0.8802
 8587TIP3   OH247251   4.913   1.350  11.214  0.2630  0.2218 -0.2081
 8587TIP3    H147252   4.920   1.255  11.218  0.0999  0.2457  0.9524
 8587TIP3    H247253   4.940   1.372  11.125  1.8278 -0.7808 -0.0163
 8588TIP3   OH247254   1.357   3.761  13.364 -0.1367 -0.0088 -0.3518
 8588TIP3    H147255   1.362   3.667  13.347  1.7144 -0.1465  0.6691
 8588TIP3    H247256   1.267   3.784  13.344 -0.6319 -1.9948 -0.6486
 8589TIP3   OH247257   0.375   4.264  12.970 -0.0073  0.7264 -0.6667
 8589TIP3    H147258   0.400   4.313  12.892  0.4521  1.2095 -0.2306
 8589TIP3    H247259   0.371   4.172  12.941 -2.2882  1.1281 -1.8361
 8590TIP3   OH247260   5.254   2.403   5.974  0.3035  0.2590 -0.4396
 8590TIP3    H147261   5.281   2.493   5.990 -0.4986  0.1307  2.0446
 8590TIP3    H247262   5.231   2.401   5.881  0.0939  2.6743 -0.5088
 8591TIP3   OH247263   2.593   5.830  10.740 -0.4263  0.1964 -0.6973
 8591TIP3    H147264   2.540   5.907  10.760  1.1379  1.5081 -1.3695
 8591TIP3    H247265   2.532   5.757  10.746 -1.7421  1.3489  1.0180
 8592TIP3   OH247266   5.663   1.957   2.613 -0.1834 -0.4010  0.0398
 8592TIP3    H147267   5.646   2.051   2.607  1.4341 -0.1181 -0.6260
 8592TIP3    H247268   5.613   1.919   2.541 -1.2020 -0.1327  0.5828
 8593TIP3   OH247269   1.336   1.226  15.389 -0.0682 -0.2205  0.1067
 8593TIP3    H147270   1.329   1.300  15.329 -0.0065 -1.6851 -1.8217
 8593TIP3    H247271   1.292   1.154  15.344  0.1489 -1.4585  1.7553
 8594TIP3   OH247272   5.833   6.627   0.322  0.2792  0.0936  0.1322
 8594TIP3    H147273   5.884   6.547   0.318  0.4095  0.2014 -0.3867
 8594TIP3    H247274   5.786   6.622   0.406 -0.1932 -0.8111 -0.1744
 8595TIP3   OH247275   0.924   2.650  15.474 -0.2756 -0.2280 -0.6752
 8595TIP3    H147276   0.922   2.745  15.460 -2.3856 -0.4258 -2.0249
 8595TIP3    H247277   1.017   2.627  15.462  0.5746  1.8141  1.2012
 8596TIP3   OH247278   2.995   3.019   3.591 -0.3169  0.0269  0.3612
 8596TIP3    H147279   2.902   3.036   3.578  0.1594  1.4821 -1.6253
 8596TIP3    H247280   3.034   3.029   3.504  1.6447 -1.0331  1.0431
 8597TIP3   OH247281   5.745   0.125   4.981  0.2138 -0.9463 -0.5045
 8597TIP3    H147282   5.799   0.165   5.048 -0.2661  0.6939 -1.0578
 8597TIP3    H247283   5.725   0.038   5.015  1.7768 -0.9632  0.4617
 8598TIP3   OH247284   4.837   0.748  16.746 -0.0279 -0.2002 -0.0790
 8598TIP3    H147285   4.870   0.835  16.721  0.1914 -0.9194 -2.5994
 8598TIP3    H247286   4.915   0.692  16.746 -0.3805 -0.6971  0.0843
 8599TIP3   OH247287   3.976   1.881  12.654  0.0853 -0.1664 -0.1810
 8599TIP3    H147288   3.971   1.787  12.635 -1.7552 -0.1972  0.2274
 8599TIP3    H247289   3.985   1.923  12.569 -2.9541 -0.5677 -0.8411
 8600TIP3   OH247290   3.581   3.953   0.741  0.7709 -0.0406 -0.4340
 8600TIP3    H147291   3.602   3.921   0.829  1.2444  1.1089 -0.1226
 8600TIP3    H247292   3.490   3.927   0.728  0.3489  0.7266  0.8341
 8601TIP3   OH247293   0.333   0.153   1.835  0.2469  0.2931 -0.0587
 8601TIP3    H147294   0.425   0.131   1.828 -0.3746 -3.0818  0.6929
 8601TIP3    H247295   0.301   0.151   1.745  0.7883  1.1588 -0.2870
 8602TIP3   OH247296   4.430   6.392  15.333  0.1939 -0.6874 -0.3653
 8602TIP3    H147297   4.521   6.411  15.308 -0.2968  1.9280 -0.4281
 8602TIP3    H247298   4.433   6.379  15.427  0.4269  1.2068 -0.0772
 8603TIP3   OH247299   4.592   5.189   4.018  0.4785 -0.2184  0.0092
 8603TIP3    H147300   4.563   5.225   3.934  1.9472 -0.7326 -0.7473
 8603TIP3    H247301   4.641   5.111   3.995 -0.2797 -1.1623  1.4566
 8604TIP3   OH247302   3.185   5.013   5.077  0.5302  0.2751  0.4005
 8604TIP3    H147303   3.251   5.079   5.097 -0.6278  1.7021 -0.3037
 8604TIP3    H247304   3.152   4.985   5.162  0.4436  1.2560  0.7041
 8605TIP3   OH247305   1.295   1.446  15.202 -0.4156  0.0929  0.1162
 8605TIP3    H147306   1.314   1.539  15.211  2.3786 -0.1819 -1.6817
 8605TIP3    H247307   1.243   1.439  15.122 -0.1920  0.0729 -0.0280
 8606TIP3   OH247308   1.615   4.915  13.724 -0.5317 -0.1154  0.2034
 8606TIP3    H147309   1.669   4.884  13.796 -1.5485  0.0687  1.0830
 8606TIP3    H247310   1.544   4.964  13.767 -0.1866  1.5461 -1.0159
 8607TIP3   OH247311   1.939   0.131   0.027 -0.0192  0.0990  0.3591
 8607TIP3    H147312   1.903   0.109  -0.059 -2.1459  0.5410  1.0905
 8607TIP3    H247313   1.991   0.210   0.012 -0.1326  0.0071 -0.5546
 8608TIP3   OH247314   4.962   4.521  16.959 -0.7886 -0.4859 -0.5099
 8608TIP3    H147315   4.911   4.602  16.960 -0.0036  0.0270  1.1143
 8608TIP3    H247316   5.016   4.528  16.880 -2.4693 -0.5900 -1.7159
 8609TIP3   OH247317   0.858   4.194   1.349  0.3438 -0.2932  0.3359
 8609TIP3    H147318   0.948   4.225   1.336  0.6092 -0.9863  0.4666
 8609TIP3    H247319   0.852   4.178   1.443  0.6221 -1.7944  0.1322
 8610TIP3   OH247320   2.014   5.476  12.007 -0.5277  0.5625 -0.0529
 8610TIP3    H147321   1.994   5.566  11.981 -1.3875  0.0384 -1.2753
 8610TIP3    H247322   2.039   5.483  12.099  0.8969  2.2466 -0.5121
 8611TIP3   OH247323   5.907   5.916  16.818  0.2735  0.4583  0.3803
 8611TIP3    H147324   5.819   5.946  16.795  1.4494  3.1736 -1.0403
 8611TIP3    H247325   5.911   5.826  16.784 -1.4322  0.8468 -1.0155
 8612TIP3   OH247326   0.532   3.127  13.247 -0.3114  0.1690  0.2281
 8612TIP3    H147327   0.497   3.142  13.160 -0.4042 -0.6576  0.1188
 8612TIP3    H247328   0.465   3.160  13.306 -0.0763  1.0967 -0.0073
 8613TIP3   OH247329   5.397   0.825  11.513  0.2616 -0.4735 -0.1204
 8613TIP3    H147330   5.444   0.881  11.452 -0.3664  0.3294  0.1118
 8613TIP3    H247331   5.423   0.736  11.490  2.9215 -0.0275  0.8464
 8614TIP3   OH247332   4.354   3.754  15.923 -0.1004 -0.0444 -0.6289
 8614TIP3    H147333   4.333   3.710  16.005 -0.5208  1.3484  0.0376
 8614TIP3    H247334   4.449   3.750  15.917  0.0518  1.0153  0.6374
 8615TIP3   OH247335   1.734   5.952  15.589 -0.2439 -0.5110 -0.5231
 8615TIP3    H147336   1.744   5.991  15.503  1.0128 -2.7034 -1.4540
 8615TIP3    H247337   1.658   5.895  15.581  0.2997 -1.2632 -0.4106
 8616TIP3   OH247338   6.110   5.208  13.407 -0.0085  0.0624  0.1103
 8616TIP3    H147339   6.088   5.121  13.373 -0.4476  0.8597 -1.8058
 8616TIP3    H247340   6.070   5.211  13.494 -0.4968 -1.4370 -0.0346
 8617TIP3   OH247341   2.107   2.571   1.730  0.2978  0.4916  0.3973
 8617TIP3    H147342   2.186   2.540   1.685  0.8715  0.9461  1.0733
 8617TIP3    H247343   2.042   2.580   1.660 -0.1561 -2.8371  0.2338
 8618TIP3   OH247344   0.396   3.670  15.479 -0.0984  0.2879 -0.4124
 8618TIP3    H147345   0.381   3.575  15.484 -1.1683  0.4645  0.0226
 8618TIP3    H247346   0.453   3.689  15.552 -0.8297  0.1367  0.2173
 8619TIP3   OH247347   4.078   2.285  11.406 -0.2673  0.3759  0.1091
 8619TIP3    H147348   4.026   2.336  11.468  0.3709 -0.4174  1.3136
 8619TIP3    H247349   4.169   2.301  11.431 -0.0122 -0.2072 -0.4221
 8620TIP3   OH247350   4.099   0.249  12.321 -0.0439 -0.0909  0.5731
 8620TIP3    H147351   4.120   0.176  12.379  0.9376  0.1055  0.4825
 8620TIP3    H247352   4.113   0.327  12.374  1.9267  0.1384 -0.2032
 8621TIP3   OH247353   3.635   3.086  16.599  0.3343  0.3717 -0.3732
 8621TIP3    H147354   3.677   3.156  16.549  2.1394  0.5660  1.2963
 8621TIP3    H247355   3.675   3.005  16.566 -0.1053  0.3026 -0.7490
 8622TIP3   OH247356   4.613   3.869  15.813 -0.3374  0.0268 -0.3506
 8622TIP3    H147357   4.680   3.915  15.764 -0.9514  0.3381 -0.9173
 8622TIP3    H247358   4.627   3.777  15.793 -0.5539  0.1486 -1.0835
 8623TIP3   OH247359   3.893   5.670   0.268  0.8624  0.1634 -0.0553
 8623TIP3    H147360   3.964   5.706   0.215  1.9468 -1.7952 -0.0221
 8623TIP3    H247361   3.906   5.710   0.354  1.1654  0.7781 -0.3765
 8624TIP3   OH247362   6.695   0.827  13.047  0.4808  0.6129 -0.5962
 8624TIP3    H147363   6.645   0.745  13.053  0.2526  0.7771 -0.2394
 8624TIP3    H247364   6.787   0.800  13.050  0.4611  0.5470  2.5878
 8625TIP3   OH247365   1.060   5.886  14.635  0.1567  0.1352  0.6421
 8625TIP3    H147366   1.025   5.932  14.558 -1.0873 -1.9561 -0.1376
 8625TIP3    H247367   1.127   5.828  14.600 -1.5411 -2.0371  0.7941
 8626TIP3   OH247368   1.216   2.696   5.625  0.1461  0.3469 -0.5071
 8626TIP3    H147369   1.228   2.613   5.578 -2.5558 -2.0735  2.5891
 8626TIP3    H247370   1.282   2.693   5.694 -0.8078  0.0453  0.4199
 8627TIP3   OH247371   1.227   1.823   5.707 -0.1380  0.4331 -0.3683
 8627TIP3    H147372   1.287   1.749   5.714  0.7414  1.2946  2.2845
 8627TIP3    H247373   1.149   1.796   5.755 -0.3879  0.6892 -0.6246
 8628TIP3   OH247374   2.646   1.604  15.880  0.3691  0.2371 -0.2708
 8628TIP3    H147375   2.645   1.663  15.805  0.4049 -1.0400 -1.3056
 8628TIP3    H247376   2.567   1.627  15.929 -0.3083  0.2847 -1.3503
 8629TIP3   OH247377   5.800   1.431  10.625 -0.0325 -0.6899 -0.1160
 8629TIP3    H147378   5.706   1.449  10.631 -0.4230 -1.5897 -2.5295
 8629TIP3    H247379   5.830   1.491  10.557  1.0078 -0.9581  0.1028
 8630TIP3   OH247380   0.724   1.768  15.769 -0.0576  0.4253  0.3687
 8630TIP3    H147381   0.677   1.685  15.765  0.0110  0.4173 -0.3093
 8630TIP3    H247382   0.812   1.744  15.799  0.0552  0.2148 -0.1300
 8631TIP3   OH247383   4.608   6.569  14.633  0.6479 -0.3635  0.6669
 8631TIP3    H147384   4.598   6.475  14.620  0.0547 -0.2381  0.2117
 8631TIP3    H247385   4.526   6.596  14.675  1.6096 -0.3817  2.6830
 8632TIP3   OH247386   1.739   2.977  11.825  0.2356 -0.5396  0.2857
 8632TIP3    H147387   1.806   2.936  11.881 -0.0036 -0.9143  0.3008
 8632TIP3    H247388   1.670   3.002  11.886  0.4140 -0.0251  0.2898
 8633TIP3   OH247389   3.743   0.710  12.495  0.0315 -0.0569  0.3073
 8633TIP3    H147390   3.732   0.654  12.418 -2.2503  1.4878 -0.6246
 8633TIP3    H247391   3.732   0.799  12.461  0.0372  0.7371  2.2619
 8634TIP3   OH247392   4.076   4.291   4.538 -0.8711 -0.1656 -0.2643
 8634TIP3    H147393   4.046   4.378   4.564  0.1383  0.6057 -1.5818
 8634TIP3    H247394   4.097   4.299   4.445  1.3664 -1.2157  0.0885
 8635TIP3   OH247395   4.437   5.850  12.727 -0.2735 -0.2796 -0.1758
 8635TIP3    H147396   4.396   5.776  12.772 -0.6228  0.2416  0.3741
 8635TIP3    H247397   4.493   5.809  12.661  0.0516 -1.0502  0.5600
 8636TIP3   OH247398   3.985   5.818   5.996 -0.2720 -0.1001  0.1118
 8636TIP3    H147399   3.970   5.750   5.931  0.4710 -0.7461  0.6012
 8636TIP3    H247400   4.008   5.771   6.076 -1.3322  0.6668  0.9102
 8637TIP3   OH247401   5.576   2.523   2.583  0.3472 -0.0943 -0.7004
 8637TIP3    H147402   5.529   2.551   2.661  1.5308  0.1453 -0.0435
 8637TIP3    H247403   5.576   2.427   2.588 -0.6650 -0.1264 -1.0894
 8638TIP3   OH247404   6.403   5.804  14.594  0.1285  0.0138 -0.0006
 8638TIP3    H147405   6.429   5.884  14.640  0.0254 -0.2722  0.5639
 8638TIP3    H247406   6.310   5.794  14.613  0.1310 -0.2178 -0.1024
 8639TIP3   OH247407   5.403   5.313  11.879 -0.3569  0.4565  0.0795
 8639TIP3    H147408   5.334   5.251  11.901 -0.1709  0.1880 -0.0925
 8639TIP3    H247409   5.381   5.345  11.792 -1.5559  2.1489  0.9402
 8640TIP3   OH247410   0.700   5.635  12.757  0.6634 -0.0624 -0.2436
 8640TIP3    H147411   0.620   5.585  12.771 -0.0946  1.1827  0.0105
 8640TIP3    H247412   0.741   5.639  12.844  0.9498 -0.6103 -0.3520
 8641TIP3   OH247413   5.679   5.937  16.318  0.1547  0.2847  0.6104
 8641TIP3    H147414   5.615   5.980  16.375 -2.9718 -1.7124 -1.1385
 8641TIP3    H247415   5.628   5.873  16.269  3.0510  0.4134 -2.9226
 8642TIP3   OH247416   2.369   0.019  14.041  0.1785  0.4469  0.6055
 8642TIP3    H147417   2.464   0.015  14.037  0.2293  1.5614  0.6129
 8642TIP3    H247418   2.342  -0.073  14.052  1.2442  0.1351  0.7228
 8643TIP3   OH247419   4.448   0.558  12.793  0.2488  0.2938  0.2292
 8643TIP3    H147420   4.483   0.522  12.875 -0.1725 -1.7048 -0.4286
 8643TIP3    H247421   4.459   0.488  12.729 -1.1652  1.1141 -0.9729
 8644TIP3   OH247422   5.406   0.751  11.208  0.4115  0.4700  0.3081
 8644TIP3    H147423   5.371   0.840  11.205  0.2759  0.3880 -0.7263
 8644TIP3    H247424   5.419   0.727  11.117 -1.5135 -1.3508  0.4308
 8645TIP3   OH247425   4.869   1.898  16.088  0.4799 -0.0501  0.4828
 8645TIP3    H147426   4.872   1.987  16.052 -0.4725 -0.2194 -0.0515
 8645TIP3    H247427   4.805   1.903  16.159  0.8220 -0.1966  0.8068
 8646TIP3   OH247428   1.748   4.718   0.758  0.1239 -0.2913  0.9652
 8646TIP3    H147429   1.661   4.680   0.744  0.6021 -0.3629 -2.4930
 8646TIP3    H247430   1.807   4.663   0.706  1.3159  3.1218 -1.6072
 8647TIP3   OH247431   1.237   5.859  15.717 -0.2737  0.0731  0.6434
 8647TIP3    H147432   1.166   5.827  15.661  0.3191 -1.0860  0.5368
 8647TIP3    H247433   1.199   5.860  15.805 -0.2483 -1.1547  0.6836
 8648TIP3   OH247434   2.572   0.273  12.800 -0.3668 -0.3153  0.6906
 8648TIP3    H147435   2.494   0.287  12.855 -0.1121  0.5488  0.8414
 8648TIP3    H247436   2.571   0.345  12.738  0.8864  0.3142  1.3698
 8649TIP3   OH247437   5.321   4.154  16.388 -0.5741 -0.7644  0.2233
 8649TIP3    H147438   5.351   4.063  16.390 -1.6565 -1.1786 -0.8895
 8649TIP3    H247439   5.232   4.149  16.352  0.6573  1.0109 -3.6043
 8650TIP3   OH247440   4.017   3.609   1.374 -0.2935 -0.0387 -0.1176
 8650TIP3    H147441   4.095   3.595   1.427  0.6615 -0.4109 -1.5836
 8650TIP3    H247442   3.972   3.681   1.418  1.3027  0.7613  0.2905
 8651TIP3   OH247443   3.755   6.658   6.100  0.8985 -0.1835  0.1073
 8651TIP3    H147444   3.683   6.668   6.163  1.2156  2.4227  0.1761
 8651TIP3    H247445   3.713   6.658   6.015  0.6765 -0.4801  0.2190
 8652TIP3   OH247446   4.681   6.200  14.138  0.6638 -0.0776 -0.2596
 8652TIP3    H147447   4.626   6.278  14.136  1.3816  0.4355 -0.8382
 8652TIP3    H247448   4.639   6.139  14.077  0.2016 -0.0715  0.0529
 8653TIP3   OH247449   3.864   0.332  14.396  0.2098  0.0249  0.1535
 8653TIP3    H147450   3.959   0.339  14.398  0.2756 -0.9109  0.7891
 8653TIP3    H247451   3.834   0.409  14.445  0.7443 -1.1714  2.4969
 8654TIP3   OH247452   5.809   5.672   0.113  0.6539  0.3778 -0.2067
 8654TIP3    H147453   5.781   5.742   0.171 -0.4581  0.4199 -0.7616
 8654TIP3    H247454   5.807   5.710   0.025  0.2059 -0.2752 -0.4948
 8655TIP3   OH247455   1.820   4.625  11.467 -0.0159  0.0626  0.6015
 8655TIP3    H147456   1.842   4.536  11.496  0.0153 -0.2077 -0.2404
 8655TIP3    H247457   1.802   4.672  11.549  1.7221 -0.2260  1.2079
 8656TIP3   OH247458   6.221   6.673   4.703 -0.3704 -0.0788 -0.3081
 8656TIP3    H147459   6.224   6.586   4.662  0.1929  0.6238 -1.8331
 8656TIP3    H247460   6.301   6.716   4.673 -1.1089  1.3076 -0.3684
 8657TIP3   OH247461   4.474   0.739   6.046 -0.2200 -0.1725 -0.8590
 8657TIP3    H147462   4.442   0.671   6.105  0.7836 -0.6978 -0.8932
 8657TIP3    H247463   4.463   0.703   5.959 -1.0570  0.3233 -0.9690
 8658TIP3   OH247464   5.447   2.823   3.870 -0.2329 -0.2155  0.6560
 8658TIP3    H147465   5.460   2.918   3.870 -0.0517 -0.2351  0.0443
 8658TIP3    H247466   5.495   2.792   3.793 -1.1535 -0.6769  0.2541
 8659TIP3   OH247467   3.519   1.732   2.631 -0.0116  0.0532 -0.6300
 8659TIP3    H147468   3.549   1.672   2.699  1.2388 -0.0821 -1.2809
 8659TIP3    H247469   3.558   1.816   2.654 -0.9523  0.4126 -0.2755
 8660TIP3   OH247470   2.619   2.871   0.575  0.0184 -0.5642 -0.4031
 8660TIP3    H147471   2.583   2.880   0.663  0.8711 -0.0059 -0.0971
 8660TIP3    H247472   2.555   2.914   0.518  0.6319  1.3212  0.2469
 8661TIP3   OH247473   6.231   6.379   4.900 -0.4891  0.6498 -0.2744
 8661TIP3    H147474   6.140   6.388   4.872 -2.2177 -2.5205  3.4652
 8661TIP3    H247475   6.239   6.437   4.976 -0.2897 -0.9555  0.9908
 8662TIP3   OH247476   2.824   1.949   1.496 -0.4927  0.2861  0.1157
 8662TIP3    H147477   2.828   1.914   1.586  0.2975  0.0498  0.0023
 8662TIP3    H247478   2.744   1.911   1.460 -0.1922 -0.6039  0.3378
 8663TIP3   OH247479   0.596   6.642  12.412  0.1813  0.6152 -0.4740
 8663TIP3    H147480   0.690   6.639  12.432  0.0920 -1.4501 -0.1574
 8663TIP3    H247481   0.593   6.643  12.316  0.5071  0.8054 -0.4878
 8664TIP3   OH247482   6.454   2.240   2.238  0.7559  0.4656  0.6292
 8664TIP3    H147483   6.407   2.166   2.201  0.5946  0.5145  0.7339
 8664TIP3    H247484   6.385   2.300   2.267  0.8861  0.8992  0.0632
 8665TIP3   OH247485   6.059   1.845   0.362 -0.0767 -0.7353  0.0007
 8665TIP3    H147486   6.144   1.867   0.325  0.0830 -0.1337  0.6925
 8665TIP3    H247487   6.020   1.784   0.300  0.4832 -0.3152 -0.7781
 8666TIP3   OH247488   5.391   1.408   2.715  0.1684 -0.0367  0.0648
 8666TIP3    H147489   5.452   1.478   2.734  0.2705  0.5818 -2.1974
 8666TIP3    H247490   5.310   1.452   2.689 -0.9351 -0.8311  1.9437
 8667TIP3   OH247491   3.502   0.274   4.337  0.1114  0.2144  0.4869
 8667TIP3    H147492   3.570   0.230   4.388  0.8566  2.2200  1.3071
 8667TIP3    H247493   3.479   0.351   4.388 -1.3071  0.6903 -0.7784
 8668TIP3   OH247494   1.962   4.241   1.207 -0.3735 -0.1158 -0.0348
 8668TIP3    H147495   1.871   4.266   1.226 -0.7647  1.5215 -3.3211
 8668TIP3    H247496   2.015   4.306   1.254 -0.9897  0.3515  0.0310
 8669TIP3   OH247497   0.994   4.804   4.924  0.1442 -0.4450 -0.2919
 8669TIP3    H147498   1.045   4.862   4.867 -0.2389 -1.3164 -1.5524
 8669TIP3    H247499   0.979   4.725   4.872  1.0766 -1.9161  1.5595
 8670TIP3   OH247500   3.515   4.812   4.301  0.4291 -0.0540  0.7047
 8670TIP3    H147501   3.447   4.803   4.368  1.1197  1.2849  1.6258
 8670TIP3    H247502   3.536   4.722   4.276 -2.2894 -0.5148 -0.2961
 8671TIP3   OH247503   6.250   6.003   5.455  0.4653 -0.1843 -0.2042
 8671TIP3    H147504   6.312   5.943   5.413  1.1928  0.4162 -0.0053
 8671TIP3    H247505   6.233   6.070   5.389  0.0105 -0.3526 -0.2621
 8672TIP3   OH247506   6.162   0.718   2.419 -1.0031 -0.3762 -0.2143
 8672TIP3    H147507   6.104   0.728   2.494 -0.1348  1.0300  0.3049
 8672TIP3    H247508   6.248   0.745   2.451 -0.0584 -2.2405 -1.0116
 8673TIP3   OH247509   4.866   6.816  16.366  0.2107 -0.2303  0.0466
 8673TIP3    H147510   4.874   6.880  16.436  0.4017  0.4808 -0.6088
 8673TIP3    H247511   4.774   6.791  16.367  0.5493 -1.6212  1.7303
 8674TIP3   OH247512   4.539   1.994   1.074 -0.2427 -0.3796  0.5125
 8674TIP3    H147513   4.629   2.025   1.087 -0.7061  0.7655  1.0904
 8674TIP3    H247514   4.498   2.062   1.021 -0.4411 -1.4898 -0.7996
 8675TIP3   OH247515   4.722   0.714  15.063 -0.8975  0.0717  0.7879
 8675TIP3    H147516   4.723   0.679  15.153 -0.0580 -0.4696  0.5741
 8675TIP3    H247517   4.775   0.794  15.068 -2.8383  1.3943  1.2817
 8676TIP3   OH247518   5.884   3.560  14.551  0.2314  0.3811 -0.5929
 8676TIP3    H147519   5.949   3.619  14.590 -0.9918  1.2035  0.2809
 8676TIP3    H247520   5.817   3.550  14.619  0.4670 -2.2047 -0.6190
 8677TIP3   OH247521   5.945   2.323   4.329  0.3342 -0.5689 -0.0602
 8677TIP3    H147522   6.038   2.336   4.307  0.7316 -1.3104  1.0903
 8677TIP3    H247523   5.900   2.324   4.245  0.9759  2.6231 -0.5130
 8678TIP3   OH247524   3.171   1.501  17.117 -0.8957  0.2202 -0.7599
 8678TIP3    H147525   3.221   1.453  17.051 -0.1957  0.6305 -0.5304
 8678TIP3    H247526   3.229   1.506  17.193  0.6287  4.5878 -1.9198
 8679TIP3   OH247527   2.157   6.789   3.238 -0.4942  0.2133  0.2631
 8679TIP3    H147528   2.068   6.753   3.240 -0.6779  0.5088 -1.3977
 8679TIP3    H247529   2.156   6.852   3.166  0.7161  1.1885  1.0620
 8680TIP3   OH247530   1.799   0.381  14.893 -0.0011  0.2793  0.3098
 8680TIP3    H147531   1.792   0.374  14.988 -0.5395  1.2108  0.3501
 8680TIP3    H247532   1.746   0.458  14.871 -2.1498 -1.4602 -1.0321
 8681TIP3   OH247533   4.544   4.251  16.149 -0.4255  0.1290  0.3831
 8681TIP3    H147534   4.600   4.205  16.086 -1.2576  0.9564 -0.9927
 8681TIP3    H247535   4.457   4.249  16.111 -1.0383  0.2878  1.7198
 8682TIP3   OH247536   2.329   1.188  16.412  0.9242  0.0501 -0.3257
 8682TIP3    H147537   2.329   1.132  16.334 -0.8192  2.3074 -2.0964
 8682TIP3    H247538   2.241   1.227  16.413  1.0341  0.3971  2.5956
 8683TIP3   OH247539   4.662   3.606  13.370 -0.0900 -0.0350 -0.4202
 8683TIP3    H147540   4.679   3.526  13.321  1.4904  0.5540 -0.8834
 8683TIP3    H247541   4.678   3.582  13.461  1.6098  0.0286 -0.6709
 8684TIP3   OH247542   6.702   4.091   2.504 -0.0055  0.4648 -0.0509
 8684TIP3    H147543   6.648   4.012   2.497 -0.5260  0.9548 -3.5017
 8684TIP3    H247544   6.791   4.058   2.514 -0.2180 -0.6301 -1.3807
 8685TIP3   OH247545   4.429   6.615   5.060 -0.9500 -0.0290 -0.3482
 8685TIP3    H147546   4.523   6.606   5.046 -1.0060  0.1386 -0.8465
 8685TIP3    H247547   4.410   6.707   5.039 -1.4906 -0.4464 -1.8506
 8686TIP3   OH247548   1.575   4.913  12.222 -0.7905 -0.1514 -0.5158
 8686TIP3    H147549   1.602   4.914  12.314  0.5522  1.0608 -0.8766
 8686TIP3    H247550   1.543   5.002  12.206 -0.5673 -0.2103 -1.3270
 8687TIP3   OH247551   2.363   4.292  16.989  0.1975  0.0061  0.0874
 8687TIP3    H147552   2.390   4.330  17.073 -0.4172  1.8677 -0.5106
 8687TIP3    H247553   2.314   4.362  16.946 -1.8571 -1.8200 -0.6978
 8688TIP3   OH247554   5.317   6.194   2.078 -0.0824 -0.0983 -0.4051
 8688TIP3    H147555   5.347   6.109   2.047 -0.8925  0.1441 -1.9647
 8688TIP3    H247556   5.248   6.219   2.016 -0.2417  1.4368  0.3457
 8689TIP3   OH247557   1.459   2.032   2.187  0.4499  0.3594 -0.4128
 8689TIP3    H147558   1.514   2.087   2.131  0.9897 -0.2881 -0.5346
 8689TIP3    H247559   1.424   1.966   2.128 -2.0081  1.8203 -0.7429
 8690TIP3   OH247560   4.440   1.516  16.716 -0.2226 -0.4128 -0.2786
 8690TIP3    H147561   4.434   1.589  16.654  0.9073 -0.2804 -0.2522
 8690TIP3    H247562   4.499   1.548  16.784 -2.0598 -0.2546  1.3251
 8691TIP3   OH247563   2.219   0.501  13.880 -0.4156  0.3591 -0.5178
 8691TIP3    H147564   2.152   0.508  13.948 -1.7860  1.4877 -1.9065
 8691TIP3    H247565   2.302   0.501  13.928 -1.3255 -2.9957  1.4080
 8692TIP3   OH247566   6.217   4.741  12.018  0.5511 -0.1123  0.1263
 8692TIP3    H147567   6.243   4.793  12.095  0.5078 -1.7751  1.3141
 8692TIP3    H247568   6.263   4.658  12.028  1.5468  0.0479 -2.3566
 8693TIP3   OH247569   6.011   1.271  16.436 -0.1905 -0.4116  0.2645
 8693TIP3    H147570   6.037   1.258  16.527  1.1566  1.4470  0.2224
 8693TIP3    H247571   6.093   1.261  16.387 -0.8763 -1.2433 -0.7354
 8694TIP3   OH247572   5.243   6.517  12.396  0.1636  0.1129  0.2087
 8694TIP3    H147573   5.168   6.494  12.340  1.5088 -2.1655 -0.8274
 8694TIP3    H247574   5.236   6.457  12.470  1.2684 -0.5966 -0.2327
 8695TIP3   OH247575   0.106   2.251   6.358 -0.2050  0.5553  0.1046
 8695TIP3    H147576   0.145   2.213   6.436 -0.0812  0.7582  0.1422
 8695TIP3    H247577   0.019   2.279   6.387  0.1732  1.4519  0.4100
 8696TIP3   OH247578   5.272   0.675   4.806 -0.2397  0.1031 -0.3952
 8696TIP3    H147579   5.245   0.688   4.715 -2.3012 -1.9485 -0.1744
 8696TIP3    H247580   5.339   0.607   4.802 -0.6903 -0.3515 -0.3744
 8697TIP3   OH247581   0.780   1.828  17.199  0.1307  0.3189 -0.0468
 8697TIP3    H147582   0.831   1.793  17.272  0.3919 -0.2423 -0.4890
 8697TIP3    H247583   0.711   1.763  17.185 -0.2472  0.6978  0.0571
 8698TIP3   OH247584   3.016   4.423  14.249  0.0637 -0.5030  0.4982
 8698TIP3    H147585   2.985   4.439  14.338 -0.4428 -0.1998  0.2714
 8698TIP3    H247586   3.042   4.331  14.248 -0.7749 -0.7521  0.7179
 8699TIP3   OH247587   6.102   5.719   0.082 -0.4991 -0.3488 -0.5338
 8699TIP3    H147588   6.117   5.809   0.053  0.9396  0.2041  1.6581
 8699TIP3    H247589   6.008   5.713   0.097 -0.6421  0.7047 -0.9380
 8700TIP3   OH247590   4.846   5.311  10.426  0.2660  0.3276  0.4769
 8700TIP3    H147591   4.755   5.310  10.395  0.3748  0.2523  0.1583
 8700TIP3    H247592   4.874   5.220  10.419  0.7391  0.5428 -0.5306
 8701TIP3   OH247593   3.449   0.243   6.186  0.3748 -0.5898  0.2467
 8701TIP3    H147594   3.432   0.258   6.093  0.6701 -0.0484  0.2714
 8701TIP3    H247595   3.362   0.230   6.224 -0.1871  2.7333  0.4759
 8702TIP3   OH247596   2.132   2.625  13.745  0.9056 -0.2264  0.4063
 8702TIP3    H147597   2.133   2.720  13.761 -0.8964 -0.3473  1.5822
 8702TIP3    H247598   2.044   2.608  13.709  1.0034 -1.5174  0.7287
 8703TIP3   OH247599   5.961   5.769  16.190  0.4107 -0.1092 -0.1082
 8703TIP3    H147600   6.022   5.841  16.206 -0.5207  0.8927 -0.9249
 8703TIP3    H247601   5.949   5.768  16.095 -0.8416 -0.2808  0.0328
 8704TIP3   OH247602   1.620   6.121  15.090  0.0681 -0.1341 -0.1558
 8704TIP3    H147603   1.590   6.033  15.112  1.8208 -1.5464 -2.8953
 8704TIP3    H247604   1.701   6.131  15.138 -0.7439  0.5403  1.1233
 8705TIP3   OH247605   3.676   0.469  12.083 -0.2648 -0.0477 -0.1605
 8705TIP3    H147606   3.732   0.509  12.017 -2.1341  1.3994 -0.9852
 8705TIP3    H247607   3.647   0.386  12.044 -0.3991  0.2310 -0.6654
 8706TIP3   OH247608   1.635   1.172  12.073  0.3930 -0.0320 -0.0641
 8706TIP3    H147609   1.667   1.091  12.113  0.1725  0.3089  0.8119
 8706TIP3    H247610   1.715   1.215  12.041  0.5027 -0.6303 -0.6183
 8707TIP3   OH247611   1.194   6.809   1.733  0.0754  0.0431 -0.6868
 8707TIP3    H147612   1.268   6.845   1.782 -0.2186 -1.1096  0.6736
 8707TIP3    H247613   1.168   6.732   1.783 -1.1120 -0.4137 -1.9583
 8708TIP3   OH247614   6.758   0.265  11.478 -0.4772 -0.2334  0.4748
 8708TIP3    H147615   6.809   0.343  11.497 -0.2425 -0.4665  0.8001
 8708TIP3    H247616   6.812   0.215  11.417 -0.2078 -0.5947  1.0047
 8709TIP3   OH247617   0.200   3.487   6.376 -0.0369 -0.0951 -0.1843
 8709TIP3    H147618   0.242   3.448   6.299 -1.3011 -2.5962  0.2790
 8709TIP3    H247619   0.234   3.437   6.450  0.3567  1.5681  0.8090
 8710TIP3   OH247620   3.141   1.262   3.944 -0.3327  0.0689  0.0054
 8710TIP3    H147621   3.152   1.227   4.032 -1.4464  1.1884  0.6289
 8710TIP3    H247622   3.160   1.355   3.953  1.6601 -0.1544 -1.4088
 8711TIP3   OH247623   2.138   2.528   5.875  0.3850 -0.0110  0.1678
 8711TIP3    H147624   2.180   2.613   5.883  2.5462 -1.0446  0.5147
 8711TIP3    H247625   2.139   2.509   5.781  1.1067 -0.2050  0.2100
 8712TIP3   OH247626   4.674   5.919   4.328  0.3583  0.3779  0.2513
 8712TIP3    H147627   4.759   5.886   4.297  1.1779  0.9946  1.7069
 8712TIP3    H247628   4.648   5.856   4.395 -0.5124  0.0290 -0.3928
 8713TIP3   OH247629   1.157   4.623   1.706  0.8260 -0.1911  0.6839
 8713TIP3    H147630   1.147   4.716   1.687  0.5729 -0.1591  0.9662
 8713TIP3    H247631   1.237   4.598   1.660  0.1681 -0.1453 -0.5093
 8714TIP3   OH247632   1.247   1.143   5.864  0.3774  0.1570  0.4233
 8714TIP3    H147633   1.254   1.148   5.959  0.8989  0.3831  0.3756
 8714TIP3    H247634   1.208   1.057   5.847 -0.1072  0.2919  0.8569
 8715TIP3   OH247635   2.692   3.342   5.305  0.1118  0.6496  0.2401
 8715TIP3    H147636   2.767   3.400   5.291  0.2130  0.5381  0.3237
 8715TIP3    H247637   2.650   3.338   5.219 -0.5939  1.8070  0.5077
 8716TIP3   OH247638   5.146   6.740  16.868 -0.3411 -0.4238 -0.1939
 8716TIP3    H147639   5.180   6.672  16.809 -0.0543  0.1845 -0.7357
 8716TIP3    H247640   5.207   6.739  16.942 -1.5312 -2.2095  0.8313
 8717TIP3   OH247641   1.751   3.968   4.035 -0.0031 -0.5894 -0.2026
 8717TIP3    H147642   1.721   3.923   4.114  0.5665 -2.0525 -0.7793
 8717TIP3    H247643   1.775   3.897   3.974  1.6501  0.4827 -0.8864
 8718TIP3   OH247644   5.977   4.273   1.842  0.4258  0.6554  0.1219
 8718TIP3    H147645   5.931   4.337   1.788 -0.1869  0.9346  0.9480
 8718TIP3    H247646   6.008   4.207   1.781 -1.8391 -0.0225 -0.3702
 8719TIP3   OH247647   4.338   5.714   1.168  0.1792 -0.7369  0.5155
 8719TIP3    H147648   4.339   5.809   1.157  1.0044 -0.8149 -0.1867
 8719TIP3    H247649   4.246   5.690   1.164  0.0924 -0.2159 -1.7129
 8720TIP3   OH247650   1.646   6.307  15.995  0.1587 -0.2582 -0.2728
 8720TIP3    H147651   1.630   6.249  15.921  0.8554 -0.0832 -0.5660
 8720TIP3    H247652   1.739   6.298  16.013 -0.0457 -0.4677  0.7316
 8721TIP3   OH247653   5.141   6.036  15.346  0.2859 -0.0899 -0.4141
 8721TIP3    H147654   5.047   6.037  15.363  0.1831  0.0539 -0.9948
 8721TIP3    H247655   5.154   5.964  15.285  0.3316  0.8900 -1.5919
 8722TIP3   OH247656   1.423   6.123  15.835 -0.0778 -0.0606  0.2000
 8722TIP3    H147657   1.442   6.092  15.746  1.1208  0.5702  0.2129
 8722TIP3    H247658   1.339   6.168  15.827  0.5196  0.9148 -0.8637
 8723TIP3   OH247659   0.428   5.748   1.066  0.0746 -0.1838  0.2468
 8723TIP3    H147660   0.385   5.825   1.029  0.4577 -0.3908 -0.6672
 8723TIP3    H247661   0.380   5.674   1.028 -1.2731 -0.4222  2.2969
 8724TIP3   OH247662   2.585   4.931  11.231 -0.5358  0.6351 -0.2079
 8724TIP3    H147663   2.530   4.866  11.275  0.5138  1.0734  1.9074
 8724TIP3    H247664   2.558   4.927  11.139 -1.7495 -1.4956  0.1604
 8725TIP3   OH247665   1.445   4.721   1.084 -0.2650  0.1644  0.1118
 8725TIP3    H147666   1.491   4.712   1.167 -0.5230 -0.4853  0.1871
 8725TIP3    H247667   1.487   4.796   1.041  1.8106 -1.2026 -0.4081
 8726TIP3   OH247668   3.260   4.723   5.172 -0.3839  0.2083 -0.5566
 8726TIP3    H147669   3.304   4.673   5.241  3.4268  2.3203 -1.1742
 8726TIP3    H247670   3.200   4.781   5.218 -0.5512 -0.8495  0.6087
 8727TIP3   OH247671   0.657   2.567   0.741  0.3392 -0.3533 -0.4809
 8727TIP3    H147672   0.684   2.656   0.718  0.7297 -0.6318 -1.1353
 8727TIP3    H247673   0.725   2.537   0.802 -0.5794  0.3066  0.9338
 8728TIP3   OH247674   3.788   6.043  14.187 -0.4452 -0.1315 -0.0574
 8728TIP3    H147675   3.797   6.117  14.128  1.4605 -0.3877 -0.1554
 8728TIP3    H247676   3.852   6.060  14.257 -0.9907 -0.9714  0.6724
 8729TIP3   OH247677   5.206   2.581   6.675  0.0832  0.4586 -0.4344
 8729TIP3    H147678   5.145   2.558   6.745 -0.0789  1.1553 -0.3378
 8729TIP3    H247679   5.198   2.510   6.612  0.8349 -0.6238  0.6152
 8730TIP3   OH247680   5.781   3.023  14.786 -0.2033 -0.0809  0.1182
 8730TIP3    H147681   5.795   3.009  14.880 -0.1360  0.6077  0.2140
 8730TIP3    H247682   5.864   3.057  14.754 -0.3985  0.2131 -0.0828
 8731TIP3   OH247683   4.446   4.500  16.251 -0.3303  1.0946  0.3338
 8731TIP3    H147684   4.401   4.483  16.333 -0.0602  1.9636  0.6789
 8731TIP3    H247685   4.490   4.418  16.229  0.5474  1.1764  1.6628
 8732TIP3   OH247686   6.479   4.685  10.576 -0.2562 -0.2032  0.0594
 8732TIP3    H147687   6.391   4.724  10.580 -0.6861 -0.9440 -1.4584
 8732TIP3    H247688   6.486   4.635  10.658  0.0838  2.4621  1.7771
 8733TIP3   OH247689   4.836   6.314  16.146  0.2550 -0.4223 -0.3853
 8733TIP3    H147690   4.767   6.271  16.197 -0.0638 -0.5500 -0.9148
 8733TIP3    H247691   4.845   6.400  16.186  0.3059 -0.6711  0.1540
 8734TIP3   OH247692   6.549   5.369   3.732  0.2053 -0.3026 -0.1938
 8734TIP3    H147693   6.540   5.426   3.657 -1.1432  0.0630  0.2265
 8734TIP3    H247694   6.518   5.421   3.806 -3.2551 -2.2193 -0.1089
 8735TIP3   OH247695   6.592   2.587  15.612  0.0715 -0.6827 -0.0097
 8735TIP3    H147696   6.527   2.517  15.624  0.1535 -0.9395 -0.9650
 8735TIP3    H247697   6.584   2.611  15.520  0.1857  0.4382  0.2607
 8736TIP3   OH247698   6.111   2.837   0.721 -0.1466 -0.2561 -0.0398
 8736TIP3    H147699   6.120   2.814   0.814 -2.1689  1.0899  0.5648
 8736TIP3    H247700   6.017   2.834   0.705  0.1997 -0.8417 -2.1915
 8737TIP3   OH247701   4.054   0.599  14.558  0.0781 -0.1906 -0.4125
 8737TIP3    H147702   4.039   0.529  14.622  2.5415 -0.6570 -0.2603
 8737TIP3    H247703   3.973   0.602  14.507  0.1089 -3.6773 -0.9220
 8738TIP3   OH247704   3.839   0.451  16.850 -0.1528  0.1095  0.0182
 8738TIP3    H147705   3.928   0.480  16.869 -0.1416 -0.5593  1.0091
 8738TIP3    H247706   3.787   0.531  16.851  0.2533  0.3718  0.5601
 8739TIP3   OH247707   2.747   6.197  13.159  0.7836  0.2608  0.1506
 8739TIP3    H147708   2.754   6.112  13.116  0.2046  0.4812 -0.4049
 8739TIP3    H247709   2.828   6.206  13.209  0.0659 -1.4306  1.7249
 8740TIP3   OH247710   3.226   6.376   5.126  0.0595  0.5161 -0.4944
 8740TIP3    H147711   3.189   6.302   5.173  2.5139  0.3194  1.3674
 8740TIP3    H247712   3.276   6.424   5.192  0.6901  2.3510 -2.1788
 8741TIP3   OH247713   4.788   3.529   2.131  0.3428 -0.5073 -0.5679
 8741TIP3    H147714   4.701   3.494   2.150  0.2122  0.1694  0.1636
 8741TIP3    H247715   4.793   3.610   2.182  0.1328  1.2706 -3.1406
 8742TIP3   OH247716   2.702   1.429  16.292 -0.0235  0.2608  0.0745
 8742TIP3    H147717   2.682   1.356  16.233 -0.5064  0.5586 -0.1334
 8742TIP3    H247718   2.737   1.387  16.371 -0.5954 -0.2191  0.0839
 8743TIP3   OH247719   3.896   1.296  16.944  0.2398 -0.2669 -0.3551
 8743TIP3    H147720   3.932   1.366  16.890  0.0968  0.0174 -0.0825
 8743TIP3    H247721   3.900   1.330  17.034  2.0641 -1.3776  0.0425
 8744TIP3   OH247722   1.460   5.217   4.292  0.1545 -0.2840  0.3250
 8744TIP3    H147723   1.533   5.198   4.350 -0.4497  0.2847  1.2992
 8744TIP3    H247724   1.401   5.142   4.302  0.2679 -0.4028  0.0974
 8745TIP3   OH247725   2.663   0.248  12.489  0.1484  0.3509 -0.3871
 8745TIP3    H147726   2.670   0.307  12.413  0.3507  1.9904  0.8358
 8745TIP3    H247727   2.742   0.268  12.541 -0.5863  0.1611  0.8377
 8746TIP3   OH247728   0.308   3.969  16.168  0.3426 -0.3540 -0.4913
 8746TIP3    H147729   0.362   3.909  16.219 -2.0659 -1.1516  1.3609
 8746TIP3    H247730   0.266   3.913  16.102  2.0585  0.3444 -2.2408
 8747TIP3   OH247731   2.462   2.914  12.457 -0.0598 -0.0145 -0.5208
 8747TIP3    H147732   2.548   2.953  12.440 -0.7300  1.4120 -0.8918
 8747TIP3    H247733   2.405   2.954  12.391 -1.0300 -0.8563 -0.2215
 8748TIP3   OH247734   5.092   3.591   5.440 -0.0143  0.4337 -0.2701
 8748TIP3    H147735   5.098   3.650   5.515 -1.0190  1.2314 -0.8087
 8748TIP3    H247736   5.049   3.513   5.475  1.2565  0.0204  0.4254
 8749TIP3   OH247737   5.433   1.705  16.022  0.2619 -0.1368 -0.1748
 8749TIP3    H147738   5.350   1.747  15.996  0.7701  0.2909 -1.1959
 8749TIP3    H247739   5.467   1.668  15.940  1.7924  0.9781 -0.0827
 8750TIP3   OH247740   6.700   2.349   6.491 -0.6163 -0.3725  1.0679
 8750TIP3    H147741   6.623   2.383   6.444  1.2398  3.3812  0.3922
 8750TIP3    H247742   6.667   2.331   6.579 -2.3718  0.8265  0.7285
 8751TIP3   OH247743   5.437   1.106   1.375 -0.0139 -0.4117 -0.1424
 8751TIP3    H147744   5.395   1.022   1.394 -2.2482  0.7414  0.3997
 8751TIP3    H247745   5.366   1.170   1.380  1.5554  1.4971 -0.8188
 8752TIP3   OH247746   2.407   5.656   5.955  0.3180 -0.3390 -0.2037
 8752TIP3    H147747   2.325   5.627   5.996  1.1654 -2.0537  0.3466
 8752TIP3    H247748   2.443   5.720   6.017 -0.0035 -0.4791  0.1330
 8753TIP3   OH247749   3.265   2.856  17.198 -0.5566 -0.0513  0.5618
 8753TIP3    H147750   3.219   2.806  17.130  1.3086 -1.0748 -0.0449
 8753TIP3    H247751   3.222   2.941  17.199 -0.8591 -0.1110 -1.7167
 8754TIP3   OH247752   0.692   0.837  16.975  0.1309  0.4694 -0.5218
 8754TIP3    H147753   0.752   0.826  17.049 -1.0716 -1.3339  0.2421
 8754TIP3    H247754   0.621   0.891  17.009 -0.7844 -0.9496 -0.0703
 8755TIP3   OH247755   0.717   0.684  10.287 -0.1574 -0.1519  0.1377
 8755TIP3    H147756   0.737   0.740  10.212  1.9064 -1.3653 -0.3007
 8755TIP3    H247757   0.632   0.647  10.266 -0.5744  1.1445 -0.5911
 8756TIP3   OH247758   1.613   0.007  11.723 -0.2181  0.2319 -0.1178
 8756TIP3    H147759   1.542  -0.056  11.734  0.0586  0.1642  1.5165
 8756TIP3    H247760   1.577   0.074  11.664 -1.3001 -0.2697 -0.0491
 8757TIP3   OH247761   1.766   6.523  11.596  0.0007 -0.3804  0.5895
 8757TIP3    H147762   1.818   6.453  11.557  1.5478 -0.3196  2.3863
 8757TIP3    H247763   1.679   6.512  11.559  1.1617 -0.6587 -2.3697
 8758TIP3   OH247764   4.010   2.604   2.870 -0.2010  0.4858  0.0353
 8758TIP3    H147765   4.046   2.517   2.853 -0.8995  0.3083 -0.6027
 8758TIP3    H247766   4.068   2.642   2.936 -0.9724 -1.1985  1.7914
 8759TIP3   OH247767   0.198   4.023  15.578 -1.6104  0.3294 -0.4311
 8759TIP3    H147768   0.261   4.048  15.646 -2.8912  1.7254  0.3090
 8759TIP3    H247769   0.125   3.984  15.626 -1.9237  0.0255 -1.1411
 8760TIP3   OH247770   3.686   6.413  15.081 -0.3789 -0.4094 -0.1818
 8760TIP3    H147771   3.769   6.440  15.041 -0.7346 -0.1999 -0.7830
 8760TIP3    H247772   3.712   6.350  15.148  0.5780  1.8773  1.7795
 8761TIP3   OH247773   2.528   1.912  13.315 -0.0950  0.2213  0.4808
 8761TIP3    H147774   2.522   2.004  13.292  1.3091  0.1449 -0.3469
 8761TIP3    H247775   2.622   1.892  13.311 -0.2927 -1.0741  1.3309
 8762TIP3   OH247776   5.511   4.580   4.643 -0.4023  0.2978 -0.2043
 8762TIP3    H147777   5.546   4.505   4.691 -2.9273 -1.0786 -0.3553
 8762TIP3    H247778   5.525   4.655   4.702  3.3249  0.1056 -0.5800
 8763TIP3   OH247779   3.178   1.043  13.275 -1.0033  0.0656 -0.2496
 8763TIP3    H147780   3.176   1.137  13.290 -1.3171 -0.2722  2.1745
 8763TIP3    H247781   3.268   1.025  13.247 -0.3399  0.8675  1.2574
 8764TIP3   OH247782   1.802   1.291   0.286  0.1484 -0.3302 -1.0788
 8764TIP3    H147783   1.735   1.281   0.354  1.0871  0.5697 -0.0010
 8764TIP3    H247784   1.814   1.386   0.278  2.2124 -0.4850 -0.3185
 8765TIP3   OH247785   5.072   3.951  15.379  0.0069 -0.6656  0.0697
 8765TIP3    H147786   5.109   3.881  15.433 -0.6165 -0.4761  0.7639
 8765TIP3    H247787   5.008   3.907  15.323  0.3183 -0.7903 -0.1951
 8766TIP3   OH247788   4.899   4.933  14.732  0.3782 -0.2880 -0.5302
 8766TIP3    H147789   4.932   4.884  14.656  1.0794  0.1403 -0.5145
 8766TIP3    H247790   4.907   5.025  14.707  0.8316 -0.1360  0.1391
 8767TIP3   OH247791   6.706   2.745  17.063  0.6023  0.0373 -0.5566
 8767TIP3    H147792   6.796   2.751  17.030  1.3006 -0.5572  1.0957
 8767TIP3    H247793   6.697   2.654  17.091 -0.2086  0.3139  0.1212
 8768TIP3   OH247794   5.775   1.455  17.150  0.2140 -0.5974  0.2845
 8768TIP3    H147795   5.853   1.404  17.170  0.5134  0.6580  2.6058
 8768TIP3    H247796   5.723   1.453  17.230 -0.5631  1.2962 -0.1171
 8769TIP3   OH247797   3.848   2.665  14.706 -0.0559  0.3315 -0.0857
 8769TIP3    H147798   3.916   2.711  14.657  1.0043  0.3740  1.3630
 8769TIP3    H247799   3.810   2.604  14.642  0.6410  1.0155 -1.1885
 8770TIP3   OH247800   1.492   5.392  16.403  0.5787  0.3269 -0.8147
 8770TIP3    H147801   1.485   5.487  16.391  0.0029  0.5143  0.7771
 8770TIP3    H247802   1.415   5.368  16.454  0.6696 -1.0273 -1.2740
 8771TIP3   OH247803   5.980   6.816  12.969 -0.6584 -0.4673 -0.3244
 8771TIP3    H147804   5.914   6.750  12.986 -1.2714  0.3405  0.5692
 8771TIP3    H247805   6.032   6.781  12.896 -1.6616 -1.4012 -0.6102
 8772TIP3   OH247806   2.817   5.606  15.303  0.7287  0.1094 -0.1374
 8772TIP3    H147807   2.746   5.664  15.276  0.5019  1.0336  2.2418
 8772TIP3    H247808   2.794   5.521  15.265  0.4077  1.2326 -2.6292
 8773TIP3   OH247809   3.932   5.778  14.092  0.3300 -0.5384 -0.2040
 8773TIP3    H147810   3.932   5.873  14.108 -2.3101 -0.4241 -0.3238
 8773TIP3    H247811   3.934   5.739  14.179 -0.2252 -0.2987 -0.0756
 8774TIP3   OH247812   4.455   3.966   5.019 -0.0780 -0.3442 -0.4252
 8774TIP3    H147813   4.452   4.035   5.085 -3.9509 -0.0722 -0.6536
 8774TIP3    H247814   4.508   4.003   4.948  0.1651  1.3078  0.5589
 8775TIP3   OH247815   3.566   4.409  13.406  0.1521  0.6844 -0.6564
 8775TIP3    H147816   3.483   4.413  13.358  0.5347  2.5120 -1.2354
 8775TIP3    H247817   3.560   4.480  13.470  0.0151 -1.1384  1.4958
 8776TIP3   OH247818   2.355   0.873   3.881  0.0880 -0.1484  0.3693
 8776TIP3    H147819   2.376   0.916   3.964 -1.4803 -1.6567  1.6167
 8776TIP3    H247820   2.435   0.825   3.858  0.4706  0.1225  1.1144
 8777TIP3   OH247821   0.412   3.751  16.976  0.2486  0.6457  0.2705
 8777TIP3    H147822   0.422   3.779  16.885  0.4555 -0.3941 -0.0489
 8777TIP3    H247823   0.319   3.757  16.994  0.1081  0.1381 -0.2651
 8778TIP3   OH247824   6.773   5.053   3.844 -0.0268  0.1801  0.6553
 8778TIP3    H147825   6.833   5.031   3.772  0.4462 -1.7531  1.5742
 8778TIP3    H247826   6.685   5.044   3.806  0.2091 -1.3368  0.4173
 8779TIP3   OH247827   3.208   5.613  15.587 -0.0942  0.4857  0.0463
 8779TIP3    H147828   3.174   5.527  15.560  2.2482 -0.8357  1.0067
 8779TIP3    H247829   3.302   5.608  15.569  0.4253  2.0956  1.9998
 8780TIP3   OH247830   6.779   4.818   4.630  0.0938  0.0248  0.2252
 8780TIP3    H147831   6.701   4.872   4.646 -0.3659 -0.9065  1.2774
 8780TIP3    H247832   6.787   4.764   4.709 -0.1529 -2.3042 -1.2705
 8781TIP3   OH247833   6.822   6.573   1.936  0.0983 -0.3142  0.0168
 8781TIP3    H147834   6.766   6.616   2.000  1.8084  0.3120  1.1609
 8781TIP3    H247835   6.874   6.511   1.987  0.4828 -0.8520 -1.0011
 8782TIP3   OH247836   0.512   0.487   0.346  0.1693 -0.2795 -0.2116
 8782TIP3    H147837   0.570   0.438   0.405  0.0865  0.4703  0.5109
 8782TIP3    H247838   0.551   0.476   0.260  0.6977 -0.8112  0.0919
 8783TIP3   OH247839   6.013   0.133  16.822 -0.2427 -0.1095 -0.3413
 8783TIP3    H147840   5.964   0.058  16.856  0.7263 -0.8207 -0.4543
 8783TIP3    H247841   6.079   0.150  16.890 -0.1119  0.2930 -0.5693
 8784TIP3   OH247842   1.627   0.684   3.446  0.0929 -0.1320  0.5842
 8784TIP3    H147843   1.573   0.683   3.525  0.7699  1.5383  1.1197
 8784TIP3    H247844   1.564   0.683   3.374 -0.6310  0.7874  1.1830
 8785TIP3   OH247845   0.788   0.421  11.046  0.1820  0.0099  0.5163
 8785TIP3    H147846   0.862   0.457  10.998  0.6877 -2.0447 -0.3414
 8785TIP3    H247847   0.714   0.429  10.985  0.1464  0.1367  0.5741
 8786TIP3   OH247848   0.087   5.773   2.536  0.0989 -0.8311 -0.1102
 8786TIP3    H147849   0.018   5.780   2.470  2.3575  3.6940 -2.4526
 8786TIP3    H247850   0.077   5.852   2.589  1.9068 -1.3899  1.1643
 8787TIP3   OH247851   2.585   6.452  11.518 -0.0981 -0.2580 -0.0427
 8787TIP3    H147852   2.677   6.427  11.529 -0.4891 -1.5964  0.2766
 8787TIP3    H247853   2.586   6.509  11.441  1.1341  0.5686  0.5412
 8788TIP3   OH247854   4.648   3.537   3.729  0.2184 -0.2334 -0.6298
 8788TIP3    H147855   4.666   3.618   3.683  0.4900 -1.2797 -2.4553
 8788TIP3    H247856   4.727   3.521   3.782  0.9849 -0.2963 -1.7704
 8789TIP3   OH247857   0.305   6.090   5.666  0.0548  0.0961 -0.3058
 8789TIP3    H147858   0.381   6.147   5.676 -0.2308  0.5791 -0.9085
 8789TIP3    H247859   0.235   6.147   5.635 -0.7241 -0.2312  0.7829
 8790TIP3   OH247860   4.931   2.227   5.859  0.3390  0.4722  0.2819
 8790TIP3    H147861   4.985   2.305   5.868 -2.2465  2.2435  2.1690
 8790TIP3    H247862   4.892   2.235   5.772  1.8249  0.0131 -0.4504
 8791TIP3   OH247863   4.661   2.002   1.694 -0.0690 -0.4358 -0.7521
 8791TIP3    H147864   4.709   1.989   1.612  0.5393  0.5020 -0.5531
 8791TIP3    H247865   4.616   2.085   1.683  1.2611  0.4899  0.4332
 8792TIP3   OH247866   1.559   6.638   1.009 -0.2186 -0.3635 -0.0008
 8792TIP3    H147867   1.528   6.621   0.920  1.2349  2.1168 -1.0863
 8792TIP3    H247868   1.635   6.580   1.019 -0.3552 -0.6169 -0.3857
 8793TIP3   OH247869   2.604   1.780   3.728 -0.1688 -0.4321 -0.0872
 8793TIP3    H147870   2.581   1.872   3.720  0.7456 -0.3601 -2.6086
 8793TIP3    H247871   2.524   1.732   3.705 -0.1473 -0.2439 -0.5602
 8794TIP3   OH247872   4.352   1.598   5.673 -0.2051 -0.8385 -0.4123
 8794TIP3    H147873   4.403   1.565   5.747 -0.3428  3.6138  2.0326
 8794TIP3    H247874   4.261   1.574   5.693 -0.2594  0.4690  1.0759
 8795TIP3   OH247875   0.645   3.923   4.885  0.8830  0.2864  0.0329
 8795TIP3    H147876   0.731   3.964   4.894  1.6629 -1.4195  0.8638
 8795TIP3    H247877   0.663   3.829   4.889 -0.8934 -0.1498 -1.1588
 8796TIP3   OH247878   3.730   0.899   1.709 -0.1729  0.2243  0.0011
 8796TIP3    H147879   3.693   0.813   1.732 -1.3840  0.9559  0.8778
 8796TIP3    H247880   3.655   0.949   1.676  0.1784  1.4739  1.0438
 8797TIP3   OH247881   5.035   0.792  14.879 -0.1401  0.4356  0.0730
 8797TIP3    H147882   4.979   0.769  14.953  0.1905 -1.1275 -0.1198
 8797TIP3    H247883   5.118   0.820  14.919  0.7197 -2.2152  0.3567
 8798TIP3   OH247884   3.166   2.852  12.690 -0.1876  1.1347 -0.1787
 8798TIP3    H147885   3.166   2.904  12.610  1.0529  0.6532 -0.5316
 8798TIP3    H247886   3.243   2.794  12.680 -0.7631  0.1685  0.7736
 8799TIP3   OH247887   1.583   5.871  11.626 -0.2694 -0.1928 -0.6886
 8799TIP3    H147888   1.584   5.967  11.627  1.3606 -0.1140 -2.8913
 8799TIP3    H247889   1.616   5.847  11.539  0.9728 -2.7587  0.3845
 8800TIP3   OH247890   5.265   1.570  12.915 -0.1809 -0.1312 -0.0625
 8800TIP3    H147891   5.203   1.544  12.983  1.5380 -0.7078  1.3592
 8800TIP3    H247892   5.290   1.659  12.938 -1.3549  0.5475 -1.3261
 8801TIP3   OH247893   4.810   5.942  13.047  0.0542  0.7075  0.8905
 8801TIP3    H147894   4.871   5.926  12.975  0.6697  0.3250  1.4867
 8801TIP3    H247895   4.822   5.868  13.106 -0.7940  0.7662  1.1553
 8802TIP3   OH247896   1.648   1.771   3.052 -0.5263  0.4380 -0.4757
 8802TIP3    H147897   1.611   1.700   3.104  1.7458 -0.5139 -0.0698
 8802TIP3    H247898   1.691   1.828   3.115  0.6947  0.2558 -1.1244
 8803TIP3   OH247899   1.996   3.023   4.770  0.2365  0.3467 -0.3690
 8803TIP3    H147900   1.960   3.012   4.858  0.5471 -1.6940 -0.4596
 8803TIP3    H247901   2.091   3.024   4.784  0.2719  0.5556 -0.6267
 8804TIP3   OH247902   3.720   5.657  13.898 -0.3072  0.3044  0.5988
 8804TIP3    H147903   3.636   5.679  13.859 -0.3728 -1.2330 -0.2112
 8804TIP3    H247904   3.728   5.715  13.973 -1.3598  1.5676 -0.2180
 8805TIP3   OH247905   1.838   6.237   0.182 -0.4382 -0.5627  1.0497
 8805TIP3    H147906   1.920   6.238   0.231  0.9016  2.2018 -0.9752
 8805TIP3    H247907   1.864   6.224   0.091 -2.5819 -2.5697  0.6299
 8806TIP3   OH247908   1.042   4.898  11.241 -0.0632 -0.8894 -0.0343
 8806TIP3    H147909   1.065   4.805  11.230 -1.6512 -1.3587  0.4390
 8806TIP3    H247910   1.040   4.911  11.336 -2.4076 -1.0729 -0.0105
 8807TIP3   OH247911   1.102   4.932   0.395 -0.0888  0.4221  0.1895
 8807TIP3    H147912   1.196   4.928   0.414 -0.2727 -1.4851  0.9423
 8807TIP3    H247913   1.071   4.843   0.412 -1.7674  0.6377 -1.4921
 8808TIP3   OH247914   2.415   4.391   2.310  0.4461 -0.4481 -0.3341
 8808TIP3    H147915   2.502   4.355   2.295  0.8756  0.4485 -0.0656
 8808TIP3    H247916   2.356   4.331   2.264  1.1165 -1.5334  0.1967
 8809TIP3   OH247917   6.815   0.609   0.791  0.5614 -0.4152  0.1857
 8809TIP3    H147918   6.862   0.619   0.708 -2.6225  0.3731 -1.6975
 8809TIP3    H247919   6.729   0.576   0.766 -0.1542 -1.2627  3.3354
 8810TIP3   OH247920   4.433   1.481   0.924  0.1547  0.7917 -0.3854
 8810TIP3    H147921   4.361   1.427   0.891 -1.4567  1.6630  1.4772
 8810TIP3    H247922   4.392   1.565   0.945  1.8101  1.4611  0.3104
 8811TIP3   OH247923   0.195   3.164  11.827  0.5369 -0.0782 -0.0461
 8811TIP3    H147924   0.163   3.080  11.860 -0.8001  0.4694  0.1068
 8811TIP3    H247925   0.140   3.229  11.870  0.9028  0.8336 -0.9223
 8812TIP3   OH247926   5.977   0.309  11.127 -0.0510 -0.4434  0.3192
 8812TIP3    H147927   5.902   0.365  11.104 -0.5113 -0.6944  1.1767
 8812TIP3    H247928   5.955   0.273  11.213 -1.8912 -5.4400 -1.8572
 8813TIP3   OH247929   6.573   5.870   1.826 -0.6415 -0.5081  0.2300
 8813TIP3    H147930   6.651   5.903   1.783 -0.4268 -0.0576  0.9498
 8813TIP3    H247931   6.514   5.845   1.754  0.1699 -0.8878 -0.3126
 8814TIP3   OH247932   0.618   5.123   1.265  0.2357 -0.3838  0.1478
 8814TIP3    H147933   0.646   5.179   1.192  0.6171 -0.3112  0.3447
 8814TIP3    H247934   0.545   5.073   1.230  0.6122 -0.5743 -0.3851
 8815TIP3   OH247935   4.838   3.988   1.305 -0.5964 -0.4842 -0.5263
 8815TIP3    H147936   4.824   4.053   1.237  1.4136  0.6643  0.0828
 8815TIP3    H247937   4.909   4.023   1.358  1.0362 -3.4495 -0.5192
 8816TIP3   OH247938   6.436   3.736  16.367  0.6568  0.0679  0.5152
 8816TIP3    H147939   6.395   3.783  16.295  1.0885  0.5485  0.5768
 8816TIP3    H247940   6.457   3.804  16.432  1.3618 -0.1865  0.5697
 8817TIP3   OH247941   3.198   4.685   6.387  0.3032  0.1769  0.4511
 8817TIP3    H147942   3.198   4.731   6.303 -1.3572  1.8746  1.2887
 8817TIP3    H247943   3.244   4.744   6.446  1.7631 -1.1617  0.7007
 8818TIP3   OH247944   6.459   5.103   3.826 -0.5716  0.9406  0.0263
 8818TIP3    H147945   6.416   5.064   3.750  0.4612 -0.4059  0.1036
 8818TIP3    H247946   6.484   5.191   3.797  2.7013 -0.5855 -2.4005
 8819TIP3   OH247947   5.935   2.049   3.940 -0.0086 -0.3179  0.2123
 8819TIP3    H147948   5.972   2.023   4.025 -0.3991 -1.1828  0.1273
 8819TIP3    H247949   5.871   1.982   3.920  0.1872 -0.2115 -0.8491
 8820TIP3   OH247950   6.547   4.692  11.915 -0.1754  0.2538 -0.2083
 8820TIP3    H147951   6.630   4.719  11.877 -0.0040  1.2154  0.7904
 8820TIP3    H247952   6.481   4.739  11.865 -0.2064 -1.1842 -1.5812
 8821TIP3   OH247953   2.797   3.462  11.728 -0.1292  0.1372 -0.1733
 8821TIP3    H147954   2.821   3.554  11.732  5.2459 -0.7571 -2.7994
 8821TIP3    H247955   2.764   3.449  11.639  0.0725 -0.6155 -0.1486
 8822TIP3   OH247956   5.422   3.852   0.313 -0.2000 -0.3065  0.2473
 8822TIP3    H147957   5.483   3.789   0.275 -0.9193  0.0483 -1.5932
 8822TIP3    H247958   5.470   3.934   0.314  0.1258 -0.4997  0.9698
 8823TIP3   OH247959   4.478   3.583   1.177 -0.2928 -0.1372  0.3391
 8823TIP3    H147960   4.442   3.666   1.206 -5.1048 -1.0699 -1.9051
 8823TIP3    H247961   4.498   3.597   1.084  1.2628 -0.8778  0.5336
 8824TIP3   OH247962   0.242   2.111   6.542  0.3218 -0.1215 -0.2187
 8824TIP3    H147963   0.247   2.018   6.518  1.7703 -0.0419 -0.3596
 8824TIP3    H247964   0.219   2.111   6.635 -3.0820 -0.4950 -0.9429
 8825TIP3   OH247965   5.497   0.084  12.685  0.2344 -0.3725  0.1084
 8825TIP3    H147966   5.501   0.129  12.770 -1.2600 -0.3101  0.1623
 8825TIP3    H247967   5.583   0.043  12.676  0.5862  0.0260  1.4331
 8826TIP3   OH247968   0.250   2.713   3.746 -0.1616  0.3611  0.2897
 8826TIP3    H147969   0.312   2.640   3.747 -1.1302 -0.4901  0.5631
 8826TIP3    H247970   0.246   2.743   3.836  0.5837  1.0869  0.0998
 8827TIP3   OH247971   5.560   5.174   6.228  0.5885  0.2153 -0.0115
 8827TIP3    H147972   5.471   5.177   6.194  1.3469 -0.4665 -2.2532
 8827TIP3    H247973   5.586   5.082   6.219  2.0660  0.6913 -1.0199
 8828TIP3   OH247974   4.343   6.180   4.977  0.3248 -0.3173 -0.4191
 8828TIP3    H147975   4.344   6.097   5.024  2.8789 -1.3043 -1.9984
 8828TIP3    H247976   4.362   6.157   4.886  2.0847  2.0356 -0.7612
 8829TIP3   OH247977   2.760   2.362   4.442  0.4868  0.2086  0.6187
 8829TIP3    H147978   2.741   2.448   4.479 -0.4762  0.2801  0.0061
 8829TIP3    H247979   2.759   2.376   4.347 -0.1314 -0.5509  0.4987
 8830TIP3   OH247980   1.946   6.028  11.882 -0.0456  0.2749 -0.0929
 8830TIP3    H147981   1.923   6.096  11.819 -0.1303 -0.6239 -1.0653
 8830TIP3    H247982   2.028   5.991  11.848 -1.2563 -1.7541 -1.0178
 8831TIP3   OH247983   5.904   3.643  14.293  0.9082 -0.6216 -0.0045
 8831TIP3    H147984   5.892   3.600  14.377 -2.4234 -0.5867 -0.3211
 8831TIP3    H247985   5.830   3.704  14.286  2.7324  1.6304 -1.6882
 8832TIP3   OH247986   1.062   5.380  13.382 -0.2289  0.4341 -0.3954
 8832TIP3    H147987   1.088   5.332  13.304  0.9812  0.0233  0.2405
 8832TIP3    H247988   1.017   5.458  13.349  0.9346  0.6505 -1.5122
 8833TIP3   OH247989   5.138   3.831   1.867  0.1029 -0.3077 -0.0848
 8833TIP3    H147990   5.225   3.837   1.827  0.0944 -1.1056 -0.2415
 8833TIP3    H247991   5.089   3.904   1.829  0.9333  0.6423  0.6061
 8834TIP3   OH247992   0.285   2.943   4.833  0.4843  0.6625 -0.0104
 8834TIP3    H147993   0.191   2.959   4.848  0.7273  0.5935  1.8561
 8834TIP3    H247994   0.319   3.028   4.805  0.1244  1.0808  0.7916
 8835TIP3   OH247995   3.427   1.161  10.577 -0.2828 -0.0140  0.0826
 8835TIP3    H147996   3.479   1.152  10.657  0.0727 -0.7767 -0.2267
 8835TIP3    H247997   3.465   1.236  10.532 -0.4647  0.4007  0.6047
 8836TIP3   OH247998   3.151   6.150   1.799 -0.4899  0.4857 -0.4155
 8836TIP3    H147999   3.081   6.192   1.750  0.9712  1.5247 -1.7126
 8836TIP3    H248000   3.111   6.073   1.839 -2.4896  1.3880 -0.5956
 8837TIP3   OH248001   5.030   5.190  12.142 -0.1671  0.4850  0.1136
 8837TIP3    H148002   4.949   5.186  12.091 -0.3554 -1.2878  0.4876
 8837TIP3    H248003   5.013   5.135  12.218  0.7475  1.6306  1.1918
 8838TIP3   OH248004   0.769   2.963   5.816  0.2214  0.1057 -0.2009
 8838TIP3    H148005   0.862   2.980   5.802 -0.0176  3.0204  0.8709
 8838TIP3    H248006   0.725   3.042   5.784 -1.4716  0.5555  2.7854
 8839TIP3   OH248007   1.798   4.133   3.489  0.1450  0.3447 -0.4006
 8839TIP3    H148008   1.861   4.202   3.511  1.0238 -0.2819 -0.8667
 8839TIP3    H248009   1.818   4.112   3.397 -0.2959 -0.3288 -0.3440
 8840TIP3   OH248010   2.081   1.375  16.013  0.1114  0.3664  0.3960
 8840TIP3    H148011   2.007   1.417  16.057 -0.9292  0.5238 -1.4153
 8840TIP3    H248012   2.156   1.395  16.068 -1.2088 -0.0442  2.4639
 8841TIP3   OH248013   4.230   1.055  13.424  0.2041  0.4073  0.3096
 8841TIP3    H148014   4.213   1.149  13.418  0.2237  0.4798  1.1907
 8841TIP3    H248015   4.156   1.022  13.475  0.2943 -0.0296  0.1568
 8842TIP3   OH248016   6.616   1.674   0.139 -0.2466  0.1474  0.1612
 8842TIP3    H148017   6.679   1.617   0.095  0.1302 -0.2142  1.1464
 8842TIP3    H248018   6.669   1.745   0.176 -0.5566  0.4553  0.0235
 8843TIP3   OH248019   3.942   6.235  13.535  0.6424 -0.3316  0.6712
 8843TIP3    H148020   4.006   6.266  13.471  0.0033  0.6055  0.4652
 8843TIP3    H248021   3.920   6.146  13.507  1.3852 -0.4306  0.3906
 8844TIP3   OH248022   6.747   2.981  11.346 -0.4655  0.0018 -0.1844
 8844TIP3    H148023   6.752   3.002  11.253 -0.9612  1.4733  0.0866
 8844TIP3    H248024   6.808   3.042  11.387  0.9979 -1.7161  0.3528
 8845TIP3   OH248025   0.671   2.845   4.136 -0.1477 -0.8532  0.5668
 8845TIP3    H148026   0.757   2.827   4.174  0.2572 -0.1013  0.0262
 8845TIP3    H248027   0.619   2.880   4.209  1.0242  1.8668  0.1913
 8846TIP3   OH248028   2.600   0.521  12.649  0.4409 -0.1378  0.3482
 8846TIP3    H148029   2.630   0.512  12.559  0.3892  0.6113  0.2495
 8846TIP3    H248030   2.646   0.598  12.682  0.1280 -0.1477  0.8212
 8847TIP3   OH248031   5.549   1.185   3.501  0.1063 -0.2006  0.2746
 8847TIP3    H148032   5.484   1.254   3.507  1.7373  1.3199  1.3735
 8847TIP3    H248033   5.519   1.118   3.562 -1.4665 -0.4957 -0.7678
 8848TIP3   OH248034   3.374   4.647   2.164 -0.0375 -0.2064  0.3828
 8848TIP3    H148035   3.308   4.671   2.098  0.9450 -0.3168 -0.6685
 8848TIP3    H248036   3.331   4.581   2.217 -0.5413 -0.8111 -0.7406
 8849TIP3   OH248037   1.998   2.112   1.483 -0.4164  0.0580  0.0631
 8849TIP3    H148038   1.974   2.154   1.400 -2.3701  0.1289  0.6223
 8849TIP3    H248039   2.078   2.158   1.510 -2.1617  3.2308  0.4024
 8850TIP3   OH248040   2.766   4.997   5.089 -0.8656 -0.3793  0.0513
 8850TIP3    H148041   2.696   5.063   5.085  1.2547  2.0709  0.5277
 8850TIP3    H248042   2.792   4.996   5.181 -0.1120 -1.0434 -0.1634
 8851TIP3   OH248043   5.811   6.322  14.155  0.0989 -0.1020 -0.5432
 8851TIP3    H148044   5.889   6.282  14.194 -0.1822 -1.7109 -1.5371
 8851TIP3    H248045   5.810   6.411  14.189  2.1161 -0.1914 -0.1368
 8852TIP3   OH248046   5.668   1.367  12.728  0.0079 -0.5124 -0.5829
 8852TIP3    H148047   5.654   1.461  12.721 -0.3131 -0.6321 -1.7810
 8852TIP3    H248048   5.762   1.358  12.744 -0.1511  0.0372  0.8296
 8853TIP3   OH248049   2.481   3.307  16.967  0.1088 -0.2484  0.1643
 8853TIP3    H148050   2.510   3.381  16.913 -0.2638  0.2320  0.6194
 8853TIP3    H248051   2.444   3.245  16.904 -0.8958  0.5792 -0.0951
 8854TIP3   OH248052   6.732   2.668   0.518  0.6805 -0.3023 -0.0319
 8854TIP3    H148053   6.683   2.591   0.546 -1.3112  1.3119  1.1732
 8854TIP3    H248054   6.670   2.719   0.466  1.2678  1.4483  0.8914
 8855TIP3   OH248055   2.138   4.836  12.239  0.2073  0.0758 -0.4972
 8855TIP3    H148056   2.053   4.801  12.211 -0.7480  0.0191  2.1610
 8855TIP3    H248057   2.189   4.759  12.263  0.2066  0.2054 -0.0720
 8856TIP3   OH248058   3.548   2.362   4.000 -0.1260 -0.5087 -0.2533
 8856TIP3    H148059   3.582   2.379   3.912  0.0685 -1.0836 -0.2944
 8856TIP3    H248060   3.489   2.288   3.988  0.5065 -1.0965  0.2303
 8857TIP3   OH248061   6.078   5.912   2.027 -0.1416  0.1971 -0.4108
 8857TIP3    H148062   6.128   5.993   2.015 -0.4381  0.3903 -0.3368
 8857TIP3    H248063   5.988   5.941   2.038 -0.3390 -0.1866 -1.0360
 8858TIP3   OH248064   3.634   4.824   3.900 -0.4194  0.1252 -0.1527
 8858TIP3    H148065   3.723   4.788   3.895 -0.6260 -0.2233 -2.1592
 8858TIP3    H248066   3.647   4.916   3.922  0.4849  0.1584 -0.7631
 8859TIP3   OH248067   3.263   2.165  16.458 -0.3462  0.5104 -0.2203
 8859TIP3    H148068   3.257   2.235  16.524 -0.4359  0.9096 -0.6468
 8859TIP3    H248069   3.217   2.091  16.498 -0.0469  0.6198  0.3341
 8860TIP3   OH248070   4.801   0.791  13.792  0.0642  0.1622 -0.0351
 8860TIP3    H148071   4.753   0.774  13.873  1.7287  3.1347  1.7412
 8860TIP3    H248072   4.853   0.712  13.779  0.7498  0.0764  2.5896
 8861TIP3   OH248073   2.524   5.141  13.100  0.3963 -0.1090 -0.0944
 8861TIP3    H148074   2.442   5.170  13.141 -0.4164 -1.7774 -0.4584
 8861TIP3    H248075   2.565   5.084  13.165  0.7039 -0.1870 -0.3546
 8862TIP3   OH248076   5.445   1.891   6.373 -0.1332  0.5120  0.7583
 8862TIP3    H148077   5.503   1.965   6.356 -1.6974  1.3922 -0.9511
 8862TIP3    H248078   5.500   1.814   6.358  0.6684  1.3203 -0.5671
 8863TIP3   OH248079   3.588   0.664   1.734 -0.5070  0.5813 -0.3757
 8863TIP3    H148080   3.544   0.596   1.683 -1.1876  1.0435 -0.4332
 8863TIP3    H248081   3.522   0.694   1.797  0.0452  0.6221  0.1974
 8864TIP3   OH248082   0.762   2.234  15.043 -0.1558 -0.7561  0.0958
 8864TIP3    H148083   0.784   2.313  15.092 -1.4000 -0.3032 -0.0400
 8864TIP3    H248084   0.677   2.208  15.076 -0.6981 -0.8563 -1.2922
 8865TIP3   OH248085   6.680   6.450  16.714  0.1019  0.4023 -0.2066
 8865TIP3    H148086   6.659   6.415  16.800  1.4503  0.0382 -0.0039
 8865TIP3    H248087   6.760   6.404  16.688 -1.2915 -0.8868 -2.5007
 8866TIP3   OH248088   0.612   4.822  13.725 -1.2566 -0.1743  0.2828
 8866TIP3    H148089   0.568   4.900  13.760 -1.3790  1.1077 -2.5104
 8866TIP3    H248090   0.541   4.764  13.698 -1.2590  0.5040 -1.2604
 8867TIP3   OH248091   6.202   0.533  12.441  0.3891  0.1213  0.4349
 8867TIP3    H148092   6.251   0.534  12.523  1.0295 -1.1518  0.0865
 8867TIP3    H248093   6.110   0.525  12.469  0.5749  0.0040  1.0296
 8868TIP3   OH248094   6.746   3.381   0.683  0.1937  0.1447  0.1233
 8868TIP3    H148095   6.806   3.452   0.661  0.6675 -0.3330 -0.1273
 8868TIP3    H248096   6.675   3.425   0.732 -0.6887  1.1739 -1.9545
 8869TIP3   OH248097   2.000   0.164  16.807 -0.8371  0.1436  0.1621
 8869TIP3    H148098   1.966   0.248  16.778 -0.4102  0.3235  0.1909
 8869TIP3    H248099   2.068   0.142  16.743 -0.7038 -0.0117  0.3571
 8870TIP3   OH248100   1.475   5.952   4.074  0.0784 -0.8497 -0.9547
 8870TIP3    H148101   1.380   5.964   4.076  0.0116 -1.3729  1.4348
 8870TIP3    H248102   1.507   5.993   4.154  1.8450 -1.0024 -1.5238
 8871TIP3   OH248103   3.824   0.125   0.300 -0.7899 -0.1685  0.4713
 8871TIP3    H148104   3.769   0.147   0.375 -2.2211  0.1068 -0.6008
 8871TIP3    H248105   3.913   0.144   0.329 -1.0877 -1.7116  2.6652
 8872TIP3   OH248106   3.895   0.317  14.087 -0.1268  0.2527  0.7084
 8872TIP3    H148107   3.835   0.305  14.160 -3.4790 -1.0159 -1.9434
 8872TIP3    H248108   3.878   0.407  14.057  0.9452  0.6344  1.1997
 8873TIP3   OH248109   6.018   6.027   4.369 -0.2536 -0.0406  0.2352
 8873TIP3    H148110   5.985   6.097   4.313 -0.7666 -1.9985 -2.1009
 8873TIP3    H248111   6.101   6.000   4.329  0.3051 -0.2767  1.5153
 8874TIP3   OH248112   0.933   4.054  14.977 -0.2838  0.0148  0.1962
 8874TIP3    H148113   0.980   4.045  15.060  0.1067 -1.7034 -0.1635
 8874TIP3    H248114   0.864   4.117  14.995  1.1441  1.3576  1.2032
 8875TIP3   OH248115   1.739   2.520   2.490  0.5058  0.6558  0.1346
 8875TIP3    H148116   1.658   2.568   2.472  1.8259  3.0795  0.2169
 8875TIP3    H248117   1.759   2.474   2.408 -0.8992  0.0455  0.1103
 8876TIP3   OH248118   1.930   2.262   3.988 -0.3739 -0.5111  0.2280
 8876TIP3    H148119   2.025   2.256   3.974 -0.3239 -0.7623  0.6734
 8876TIP3    H248120   1.896   2.297   3.905  0.1365 -0.1576  0.1609
 8877TIP3   OH248121   3.114   4.563  11.332 -0.2229  0.1187  0.1594
 8877TIP3    H148122   3.034   4.554  11.384  0.1926 -0.0055  0.7859
 8877TIP3    H248123   3.166   4.628  11.379  0.6400 -0.8070  0.5234
 8878TIP3   OH248124   0.663   4.078  11.465 -0.6606  0.0787 -0.0045
 8878TIP3    H148125   0.716   4.113  11.536 -1.5566 -1.5156  1.5382
 8878TIP3    H248126   0.575   4.111  11.482 -1.0023 -0.8036  0.0096
 8879TIP3   OH248127   0.073   4.784  12.230 -0.3599 -0.1740 -0.0072
 8879TIP3    H148128   0.046   4.705  12.183  0.5338  0.5349 -1.8481
 8879TIP3    H248129   0.168   4.786  12.220 -0.1483  0.0615  1.8408
 8880TIP3   OH248130   2.042   3.931   6.219  0.4654 -0.0997  0.2102
 8880TIP3    H148131   2.091   3.850   6.230  0.9113  0.1723  0.2268
 8880TIP3    H248132   2.108   3.999   6.206  0.1681  0.4807  1.4926
 8881TIP3   OH248133   3.557   1.718  14.560 -1.0572  0.1080 -0.1461
 8881TIP3    H148134   3.598   1.633  14.575 -0.8200  0.1546 -0.5165
 8881TIP3    H248135   3.471   1.711  14.601 -1.4715 -0.6794 -1.1313
 8882TIP3   OH248136   2.735   5.251  11.819 -0.2206  0.3475  0.2839
 8882TIP3    H148137   2.798   5.317  11.847  0.1278  0.9324 -1.6967
 8882TIP3    H248138   2.654   5.299  11.804  0.4093  0.7213 -2.5684
 8883TIP3   OH248139   2.514   1.289   4.896 -0.0660 -0.1126  0.0924
 8883TIP3    H148140   2.447   1.252   4.954  0.0871  1.6966  1.5278
 8883TIP3    H248141   2.592   1.293   4.951 -0.0493  2.1215 -0.0032
 8884TIP3   OH248142   3.718   1.012  15.967  0.0500  0.2618 -0.1191
 8884TIP3    H148143   3.653   1.040  16.032  0.5857  0.2651  0.4241
 8884TIP3    H248144   3.733   1.090  15.913 -1.6980 -0.2081 -1.3936
 8885TIP3   OH248145   0.490   3.394   6.316 -0.1235 -0.0061 -0.1411
 8885TIP3    H148146   0.463   3.483   6.292 -2.1857 -0.3230  0.7252
 8885TIP3    H248147   0.461   3.340   6.243 -0.5431 -0.1815  0.1536
 8886TIP3   OH248148   6.704   3.133  14.644  0.6960 -0.2613 -0.2624
 8886TIP3    H148149   6.786   3.144  14.597  0.7110  0.4186 -0.0955
 8886TIP3    H248150   6.637   3.129  14.576  1.0038 -2.5938 -0.5037
 8887TIP3   OH248151   3.722   2.883  17.136 -0.4348 -0.3391 -0.2374
 8887TIP3    H148152   3.683   2.884  17.049  0.5739 -0.9860 -0.7046
 8887TIP3    H248153   3.691   2.964  17.177 -0.0058  0.5238 -1.5872
 8888TIP3   OH248154   4.677   6.497  15.654 -0.1165  0.3903 -0.5069
 8888TIP3    H148155   4.761   6.539  15.638  0.3998  0.4145  1.8083
 8888TIP3    H248156   4.680   6.474  15.747 -3.0239  1.2482 -0.1059
 8889TIP3   OH248157   1.200   6.182  12.819 -1.1771 -0.0822 -0.2660
 8889TIP3    H148158   1.217   6.176  12.725 -0.2787  0.7596 -0.1681
 8889TIP3    H248159   1.220   6.273  12.842 -0.2954 -0.5588  0.9476
 8890TIP3   OH248160   1.911   3.982  12.835 -0.2671 -0.2876 -0.1542
 8890TIP3    H148161   1.983   4.035  12.802  0.1722  0.8764  2.4229
 8890TIP3    H248162   1.953   3.906  12.876 -0.6840 -0.9305 -0.9027
 8891TIP3   OH248163   1.598   3.233   2.450  0.2810  0.2870  0.2769
 8891TIP3    H148164   1.693   3.246   2.438  0.1355  0.4791 -0.8181
 8891TIP3    H248165   1.590   3.184   2.531  1.4333 -1.3411 -0.5462
 8892TIP3   OH248166   3.088   4.322   1.710 -0.0900  0.6525 -0.0149
 8892TIP3    H148167   3.041   4.265   1.648 -1.4736  1.1702  0.5192
 8892TIP3    H248168   3.088   4.272   1.792 -0.8048  1.1650  0.3046
 8893TIP3   OH248169   2.392   5.498   3.044 -0.0848 -0.1178 -0.1178
 8893TIP3    H148170   2.482   5.466   3.032  0.1844  0.5957 -0.1095
 8893TIP3    H248171   2.338   5.442   2.989  0.6615  0.9127 -1.9869
 8894TIP3   OH248172   4.929   0.955  12.378  0.5786  1.0391  0.2493
 8894TIP3    H148173   4.917   1.030  12.320 -2.2767 -0.4647 -1.3189
 8894TIP3    H248174   4.990   0.898  12.330  0.2118  0.9463 -0.1193
 8895TIP3   OH248175   0.744   1.286  13.845 -0.1992  0.4899 -0.0897
 8895TIP3    H148176   0.684   1.356  13.821 -0.2050  1.1981  1.8339
 8895TIP3    H248177   0.802   1.276  13.769 -1.9883  0.5544 -1.5455
 8896TIP3   OH248178   3.718   6.438   2.874  0.2960  0.2624  0.3592
 8896TIP3    H148179   3.684   6.508   2.929 -0.4276  0.7911 -0.7219
 8896TIP3    H248180   3.643   6.379   2.860  0.9260 -0.8286  1.3673
 8897TIP3   OH248181   1.376   1.710  11.282  0.1558  0.4300 -0.2072
 8897TIP3    H148182   1.319   1.637  11.307  0.9302 -0.5670 -1.2828
 8897TIP3    H248183   1.465   1.676  11.291  0.5708  1.6336  0.4227
 8898TIP3   OH248184   3.086   0.613  12.857  0.0575  0.3839 -0.0716
 8898TIP3    H148185   3.025   0.683  12.833 -0.3160  0.2131  0.3509
 8898TIP3    H248186   3.115   0.576  12.774 -0.7255  0.2029 -0.2750
 8899TIP3   OH248187   4.283   2.363   6.547 -0.5320 -0.2815 -0.3732
 8899TIP3    H148188   4.251   2.342   6.460  0.2797 -2.1134 -0.2783
 8899TIP3    H248189   4.378   2.356   6.541 -0.4034  0.4897  0.4452
 8900TIP3   OH248190   0.997   4.238  12.863  0.2146  0.4769 -0.3570
 8900TIP3    H148191   1.004   4.277  12.776  0.2974 -0.3485 -0.7330
 8900TIP3    H248192   0.908   4.258  12.891  0.3523  1.1861 -0.4099
 8901TIP3   OH248193   2.865   5.280   1.088 -0.0617  0.4303 -0.1984
 8901TIP3    H148194   2.929   5.261   1.157 -1.2100  2.1657  1.4276
 8901TIP3    H248195   2.911   5.258   1.007  1.6098 -0.9655  1.0331
 8902TIP3   OH248196   2.668   0.171  14.272 -0.2557  0.0634  0.2817
 8902TIP3    H148197   2.589   0.171  14.326  0.5290  0.5195  1.4589
 8902TIP3    H248198   2.636   0.194  14.184 -1.4872 -0.2524  0.6162
 8903TIP3   OH248199   0.382   1.261   2.056 -0.5992  0.0777  0.1914
 8903TIP3    H148200   0.409   1.350   2.036  0.8427 -0.3974 -0.1346
 8903TIP3    H248201   0.374   1.218   1.971 -0.0102 -0.4285  0.3747
 8904TIP3   OH248202   2.108   6.743   1.039 -0.2152  0.2244 -0.2537
 8904TIP3    H148203   2.106   6.798   1.118  1.3880  0.1171 -0.1106
 8904TIP3    H248204   2.016   6.733   1.015 -0.6125  2.6052 -0.0281
 8905TIP3   OH248205   3.402   1.546   3.503  0.1146 -0.0707  0.2691
 8905TIP3    H148206   3.393   1.506   3.589  0.2323 -0.3370  0.1589
 8905TIP3    H248207   3.321   1.596   3.490  0.2380  0.2357  0.6686
 8906TIP3   OH248208   1.904   3.467   5.819 -0.2573  0.3801  0.0752
 8906TIP3    H148209   1.898   3.429   5.907  1.5285  0.4376  0.2508
 8906TIP3    H248210   1.949   3.550   5.831  1.2004 -0.1985 -1.0203
 8907TIP3   OH248211   5.806   3.366  14.134  0.0818  0.0994 -0.3146
 8907TIP3    H148212   5.813   3.341  14.226 -2.6543  1.7665  0.4671
 8907TIP3    H248213   5.766   3.290  14.091 -0.8466  0.1716  0.3960
 8908TIP3   OH248214   5.595   5.497   1.279  0.1628  0.2933 -0.1143
 8908TIP3    H148215   5.656   5.555   1.324 -0.2858  0.9032 -0.2775
 8908TIP3    H248216   5.573   5.543   1.198 -1.8108  0.9005  0.7060
 8909TIP3   OH248217   2.130   2.059  15.941  0.0894 -0.2877 -0.4197
 8909TIP3    H148218   2.063   2.073  15.874 -1.7197  1.8565  1.7055
 8909TIP3    H248219   2.091   1.996  16.001  0.8588 -0.5873 -0.2189
 8910TIP3   OH248220   4.313   2.787   1.141 -0.9258  0.0586 -0.2178
 8910TIP3    H148221   4.384   2.814   1.083 -0.3993 -0.4044  0.2043
 8910TIP3    H248222   4.262   2.866   1.156  0.0463  0.6059  0.2388
 8911TIP3   OH248223   0.206   5.345  13.454 -0.0384  0.1062  0.5513
 8911TIP3    H148224   0.226   5.280  13.522  1.1483 -0.1513 -0.0215
 8911TIP3    H248225   0.275   5.411  13.463  1.0594 -0.7069 -1.3624
 8912TIP3   OH248226   0.755   4.379  13.892  0.1006  0.1833 -0.2322
 8912TIP3    H148227   0.735   4.286  13.904 -0.9279  0.4175 -0.0435
 8912TIP3    H248228   0.711   4.402  13.809  0.5388  0.4508 -0.3936
 8913TIP3   OH248229   4.768   3.859  10.763 -0.5059  0.9618  0.4795
 8913TIP3    H148230   4.728   3.811  10.690  0.6617  1.3571 -0.4614
 8913TIP3    H248231   4.710   3.933  10.778 -2.3182 -0.6690  1.9221
 8914TIP3   OH248232   6.243   6.395  16.754 -0.3549  0.0839 -0.2267
 8914TIP3    H148233   6.281   6.482  16.745 -0.4317  0.4224  2.0893
 8914TIP3    H248234   6.277   6.346  16.679  0.7830  1.7070 -0.8341
 8915TIP3   OH248235   0.022   3.986   5.083 -0.1624 -0.3895 -0.1040
 8915TIP3    H148236  -0.018   4.008   4.999  1.0891  0.7696 -0.4317
 8915TIP3    H248237   0.116   3.994   5.068  0.1682 -1.9376  0.9437
 8916TIP3   OH248238   4.608   0.313  11.541 -0.2911 -0.1398 -0.5610
 8916TIP3    H148239   4.591   0.400  11.577 -0.0044  0.0522 -0.8833
 8916TIP3    H248240   4.602   0.254  11.616  1.3822  0.3896  0.0106
 8917TIP3   OH248241   6.085   3.307   3.545  0.2654  0.3854 -0.4407
 8917TIP3    H148242   6.098   3.361   3.468  1.4119  0.2323 -0.3761
 8917TIP3    H248243   6.094   3.367   3.619  1.2180  0.1783 -0.3783
 8918TIP3   OH248244   6.749   1.303  10.801 -0.2331 -0.2083  0.4120
 8918TIP3    H148245   6.683   1.238  10.825  1.0121 -1.1684  1.3400
 8918TIP3    H248246   6.824   1.251  10.772  0.3811  0.8518  0.0696
 8919TIP3   OH248247   3.047   1.651   1.421  0.1738  0.1626  0.1625
 8919TIP3    H148248   2.991   1.671   1.496  0.2402  1.4984 -0.1299
 8919TIP3    H248249   2.986   1.632   1.350  0.0244  2.3939 -0.3694
 8920TIP3   OH248250   1.556   6.746   3.473 -0.6675  0.6083  0.6623
 8920TIP3    H148251   1.634   6.700   3.502  0.3282  2.5639  1.2937
 8920TIP3    H248252   1.528   6.699   3.395  1.3750  0.0595  0.2000
 8921TIP3   OH248253   1.233   0.065  14.092 -0.2250  0.3322 -0.2818
 8921TIP3    H148254   1.247   0.143  14.039 -1.5288  1.3315  0.7617
 8921TIP3    H248255   1.140   0.045  14.082 -0.4554  0.4112  1.3957
 8922TIP3   OH248256   0.079   1.468   5.876  0.1348 -0.1886  0.9339
 8922TIP3    H148257   0.116   1.405   5.938  2.7566 -1.6792 -1.8144
 8922TIP3    H248258   0.154   1.494   5.822 -1.8086  1.4928 -1.1635
 8923TIP3   OH248259   2.404   6.557   1.962 -0.3046 -0.2094 -0.0200
 8923TIP3    H148260   2.352   6.614   2.019  1.3641 -0.0918  1.5197
 8923TIP3    H248261   2.456   6.618   1.909 -0.4852 -0.3050 -0.3031
 8924TIP3   OH248262   4.529   6.037  15.446 -0.3337  0.3125 -0.4385
 8924TIP3    H148263   4.505   6.126  15.473  0.8174  0.9507 -1.3984
 8924TIP3    H248264   4.593   6.009  15.511  0.1100  0.6249 -0.7323
 8925TIP3   OH248265   3.636   3.923   2.514  0.0367  0.0454 -0.1811
 8925TIP3    H148266   3.584   3.847   2.541  1.2320 -0.9919 -0.7106
 8925TIP3    H248267   3.629   3.984   2.588 -2.0487  0.0338 -0.3041
 8926TIP3   OH248268   3.705   4.493  15.399  0.0856 -0.8087  0.0552
 8926TIP3    H148269   3.749   4.549  15.463  0.8589 -0.4898 -0.7210
 8926TIP3    H248270   3.777   4.450  15.352 -0.4450 -0.8302 -0.7620
 8927TIP3   OH248271   0.206   3.288   4.621 -0.0035 -0.3395 -0.9208
 8927TIP3    H148272   0.149   3.362   4.601 -0.5451  0.3990  2.6180
 8927TIP3    H248273   0.218   3.292   4.716  1.5764 -3.6709 -0.8260
 8928TIP3   OH248274   0.131   3.792   4.434 -0.6129 -0.1657 -0.8550
 8928TIP3    H148275   0.094   3.880   4.443 -0.2987 -0.1659  0.6743
 8928TIP3    H248276   0.055   3.736   4.414 -1.2104  0.0930  0.5867
 8929TIP3   OH248277   2.919   2.262  15.775 -0.3938  0.4404 -0.5644
 8929TIP3    H148278   2.906   2.198  15.704  0.1287 -1.6227  1.0933
 8929TIP3    H248279   2.855   2.330  15.757 -0.9984 -0.5272 -2.4279
 8930TIP3   OH248280   5.368   1.612   4.077  0.1283  0.4153  0.8173
 8930TIP3    H148281   5.407   1.538   4.031 -1.3498  1.5681 -2.5923
 8930TIP3    H248282   5.433   1.682   4.071 -0.6218  1.0132 -0.9939
 8931TIP3   OH248283   0.628   5.389  13.104 -0.0951  0.2736  0.3421
 8931TIP3    H148284   0.558   5.453  13.117  0.2504  0.8736 -0.6363
 8931TIP3    H248285   0.629   5.373  13.010  3.1462  2.7313 -0.2197
 8932TIP3   OH248286   4.393   6.614   0.627 -0.1990  0.0502 -0.1011
 8932TIP3    H148287   4.453   6.542   0.647  0.4539  0.5089 -0.3852
 8932TIP3    H248288   4.401   6.628   0.533 -1.9192 -0.8960 -0.4423
 8933TIP3   OH248289   1.596   3.103   2.989 -0.2199  0.1894  0.5651
 8933TIP3    H148290   1.596   3.123   3.082 -0.7324  0.6932  0.4631
 8933TIP3    H248291   1.678   3.057   2.974  0.0294  0.4222  1.1977
 8934TIP3   OH248292   0.900   4.046   3.673  0.0220  0.4432  0.0951
 8934TIP3    H148293   0.865   4.048   3.762 -1.6826  3.2528 -0.5112
 8934TIP3    H248294   0.854   3.974   3.630 -0.3189  0.0877  1.0319
 8935TIP3   OH248295   0.669   2.483   0.280  0.2354  0.2813  0.2748
 8935TIP3    H148296   0.622   2.537   0.344  0.3675  1.5065 -0.6348
 8935TIP3    H248297   0.600   2.446   0.226  0.1975  0.2228  0.3618
 8936TIP3   OH248298   1.148   2.335   4.066  0.0045  0.6964 -0.7052
 8936TIP3    H148299   1.177   2.249   4.033  1.9502  0.9978  0.0670
 8936TIP3    H248300   1.062   2.319   4.103  0.9755 -1.3194  0.8747
 8937TIP3   OH248301   0.947   0.067   1.659  0.2508 -0.3688 -0.2135
 8937TIP3    H148302   0.967   0.074   1.565 -0.5652  3.1210 -0.2760
 8937TIP3    H248303   1.031   0.047   1.700  1.0713  0.1828 -1.5547
 8938TIP3   OH248304   5.460   5.591  11.678 -0.0072 -0.2109  0.1848
 8938TIP3    H148305   5.547   5.573  11.715  0.0266 -1.8178 -0.5865
 8938TIP3    H248306   5.471   5.674  11.631  1.0688 -0.3039  0.2343
 8939TIP3   OH248307   1.053   0.607  14.630  0.3088 -0.2442  0.5747
 8939TIP3    H148308   1.084   0.697  14.646  1.2996 -0.6764  1.1738
 8939TIP3    H248309   1.107   0.553  14.687  0.1575 -1.2948 -0.2544
 8940TIP3   OH248310   1.047   6.502  15.265 -0.1514  0.5862 -0.0450
 8940TIP3    H148311   0.983   6.439  15.231  0.4305  0.1868 -0.4248
 8940TIP3    H248312   1.057   6.567  15.195  0.7176  0.0049 -0.4861
 8941TIP3   OH248313   4.221   5.261  11.419 -0.4753  0.2625  0.1737
 8941TIP3    H148314   4.305   5.274  11.374 -0.4466 -0.9285 -0.1539
 8941TIP3    H248315   4.181   5.347  11.420  0.2968  0.6489 -0.6003
 8942TIP3   OH248316   4.035   4.270  15.806 -0.1221 -1.1430 -0.3997
 8942TIP3    H148317   4.077   4.201  15.857  1.6360  0.4034  0.3483
 8942TIP3    H248318   3.954   4.288  15.854  0.2722 -1.4571  0.4128
 8943TIP3   OH248319   3.722   4.839   1.945  0.2422 -0.1804 -0.1270
 8943TIP3    H148320   3.749   4.867   1.857 -1.3126 -1.7195 -1.1603
 8943TIP3    H248321   3.711   4.921   1.994  3.1526  0.6462 -0.6753
 8944TIP3   OH248322   4.138   2.531  14.548 -0.2409 -0.2387 -0.3861
 8944TIP3    H148323   4.233   2.517  14.544 -0.4032 -1.2130 -1.2618
 8944TIP3    H248324   4.103   2.447  14.578 -0.9616 -0.5111 -1.9138
 8945TIP3   OH248325   6.083   2.607  12.584  0.3535  0.1137 -0.0047
 8945TIP3    H148326   6.048   2.631  12.669 -0.8972 -0.1010 -0.4322
 8945TIP3    H248327   6.009   2.619  12.524  1.5647  1.6151 -1.3085
 8946TIP3   OH248328   5.783   5.768  12.036  0.5407  0.3137  0.1217
 8946TIP3    H148329   5.875   5.763  12.008  0.8452  3.1170  0.3220
 8946TIP3    H248330   5.786   5.750  12.130  1.1757  1.9765  0.4548
 8947TIP3   OH248331   1.674   0.533  12.065 -0.0089 -0.0712 -0.1217
 8947TIP3    H148332   1.769   0.543  12.070  0.0108 -0.7618  1.3053
 8947TIP3    H248333   1.644   0.613  12.022  1.1883  0.2800 -0.3433
 8948TIP3   OH248334   4.708   0.401   3.691 -0.2254 -0.1706  0.2806
 8948TIP3    H148335   4.691   0.492   3.715 -2.2391 -0.1767 -0.8650
 8948TIP3    H248336   4.672   0.350   3.764  0.7319 -0.0615  0.8346
 8949TIP3   OH248337   2.956   3.918  14.548  0.5609  0.3568 -0.2018
 8949TIP3    H148338   3.046   3.902  14.519  0.5978 -1.3849  0.6890
 8949TIP3    H248339   2.903   3.912  14.469  0.9269 -1.7372 -0.3419
 8950TIP3   OH248340   6.647   5.471   3.013  0.3988 -0.0635 -0.3523
 8950TIP3    H148341   6.681   5.394   2.968 -0.7397  0.0903 -1.5378
 8950TIP3    H248342   6.565   5.491   2.968 -0.0059  1.0417  0.8042
 8951TIP3   OH248343   3.453   6.115  11.598 -0.7998 -0.2425 -0.0370
 8951TIP3    H148344   3.484   6.193  11.553 -1.8814 -0.2710 -0.8784
 8951TIP3    H248345   3.446   6.141  11.690 -0.3708  0.3906 -0.1797
 8952TIP3   OH248346   3.208   6.704  12.818 -0.1500 -0.7634  0.2348
 8952TIP3    H148347   3.215   6.799  12.814  1.5335 -0.8931 -0.5775
 8952TIP3    H248348   3.246   6.673  12.736  1.6988 -2.1965  1.5289
 8953TIP3   OH248349   3.949   0.830   1.468 -0.2734  0.5611  0.0314
 8953TIP3    H148350   3.853   0.823   1.461 -0.3078  0.1862  0.8175
 8953TIP3    H248351   3.970   0.790   1.552  0.5575  0.8646 -0.0263
 8954TIP3   OH248352   3.538   3.762  16.240 -0.0769 -0.1632 -0.0530
 8954TIP3    H148353   3.457   3.736  16.197 -0.5175  0.6963  0.2418
 8954TIP3    H248354   3.522   3.851  16.271  1.3900  0.5331 -1.1052
 8955TIP3   OH248355   5.917   5.752  13.900  0.2323  0.2330 -0.1424
 8955TIP3    H148356   5.859   5.794  13.836  1.0679  1.7910  0.0736
 8955TIP3    H248357   6.002   5.793  13.886  1.0858 -1.3256  0.1884
 8956TIP3   OH248358   3.632   3.758   5.933  0.0441  0.0096  0.3603
 8956TIP3    H148359   3.584   3.763   6.016 -0.2732 -3.3005  0.5101
 8956TIP3    H248360   3.587   3.690   5.883 -0.1468  2.2976 -2.8837
 8957TIP3   OH248361   1.160   2.350  15.402  0.7691  0.0762 -0.9338
 8957TIP3    H148362   1.184   2.440  15.423  0.0253  0.0712 -0.0079
 8957TIP3    H248363   1.097   2.325  15.469 -1.3411 -0.1223 -2.8617
 8958TIP3   OH248364   3.480   6.030   3.852 -0.4679 -0.1008 -0.0802
 8958TIP3    H148365   3.526   5.957   3.811 -1.5477  0.7747 -3.0999
 8958TIP3    H248366   3.549   6.089   3.882  0.3803 -1.6480  1.1800
 8959TIP3   OH248367   0.590   2.999   6.171 -0.0072 -0.2474 -0.0216
 8959TIP3    H148368   0.546   3.003   6.256 -1.2395  0.6879 -0.6710
 8959TIP3    H248369   0.655   3.068   6.174  0.1609 -0.4194  0.2735
 8960TIP3   OH248370   0.022   5.043   6.041  0.2604  0.2404  0.1213
 8960TIP3    H148371   0.027   5.059   5.947 -1.1308 -2.4811 -0.5407
 8960TIP3    H248372  -0.072   5.039   6.059  0.5084 -0.4328  1.3665
 8961TIP3   OH248373   0.025   4.772   5.443 -0.4953  0.3616  0.7587
 8961TIP3    H148374   0.095   4.765   5.507  0.5344  2.4055 -0.0807
 8961TIP3    H248375  -0.027   4.847   5.472 -1.1366  0.1360  0.2230
 8962TIP3   OH248376   0.910   5.764   1.654  0.0937 -0.6178  0.0714
 8962TIP3    H148377   0.986   5.797   1.702 -1.0035  0.0663  1.4016
 8962TIP3    H248378   0.868   5.842   1.618 -0.4562 -0.8983  0.0846
 8963TIP3   OH248379   2.210   2.142   0.637 -0.1841 -0.2716 -0.5618
 8963TIP3    H148380   2.220   2.137   0.732  1.3515 -0.0024 -0.6777
 8963TIP3    H248381   2.225   2.234   0.616 -1.3866 -0.1537 -1.0037
 8964TIP3   OH248382   2.254   0.058  14.442 -0.6274 -0.0490  0.1623
 8964TIP3    H148383   2.164   0.033  14.464 -1.4978  0.8960 -2.0507
 8964TIP3    H248384   2.292  -0.020  14.402 -0.7024 -0.2310  0.4469
 8965TIP3   OH248385   1.401   2.234   0.362 -0.1843  0.0642 -0.0763
 8965TIP3    H148386   1.446   2.319   0.365 -0.4238  0.2209 -0.6352
 8965TIP3    H248387   1.468   2.170   0.387 -0.8070  0.6594  3.6483
 8966TIP3   OH248388   2.557   6.196  11.611  0.2031  0.0775 -0.1030
 8966TIP3    H148389   2.521   6.256  11.545 -0.0793 -0.4218 -0.4137
 8966TIP3    H248390   2.638   6.164  11.571 -0.4403 -0.9491 -0.6386
 8967TIP3   OH248391   3.458   4.878  10.566  0.0044  0.0091  0.4109
 8967TIP3    H148392   3.419   4.934  10.633 -0.9827  0.3481 -0.4146
 8967TIP3    H248393   3.477   4.938  10.494  1.2659 -0.3131  0.4689
 8968TIP3   OH248394   3.160   5.150  16.406 -0.1605  0.2388  0.3010
 8968TIP3    H148395   3.201   5.066  16.383 -1.1019 -0.6717  1.7822
 8968TIP3    H248396   3.234   5.211  16.414  0.6413 -0.6819  0.1382
 8969TIP3   OH248397   2.015   4.144   5.268  0.2165  0.3029 -0.2755
 8969TIP3    H148398   1.931   4.100   5.254  0.9087 -1.5682  1.0798
 8969TIP3    H248399   1.993   4.224   5.314 -0.9636  0.7893 -1.6140
 8970TIP3   OH248400   3.733   0.551  14.719  0.3857  0.3910  0.5029
 8970TIP3    H148401   3.792   0.558  14.644  0.8171  0.0154  0.7985
 8970TIP3    H248402   3.755   0.467  14.759 -2.2745 -1.1411 -0.9757
 8971TIP3   OH248403   3.703   5.701   4.857 -0.4096  0.2603  0.1675
 8971TIP3    H148404   3.667   5.770   4.802 -1.2225  0.4473  0.9113
 8971TIP3    H248405   3.669   5.720   4.945 -0.9302 -1.2855  0.3248
 8972TIP3   OH248406   1.386   2.602   5.212 -0.4591  0.4697  0.0006
 8972TIP3    H148407   1.480   2.605   5.196 -0.6932 -0.4531 -1.7718
 8972TIP3    H248408   1.378   2.576   5.304  1.0250 -1.3691 -0.3304
 8973TIP3   OH248409   5.040   4.932   4.448  0.3182 -0.4066 -0.0882
 8973TIP3    H148410   5.133   4.917   4.465  0.1985 -1.1113 -0.0266
 8973TIP3    H248411   5.011   4.854   4.401  0.3546  0.9536 -2.5542
 8974TIP3   OH248412   0.961   6.076  16.129  0.9191  0.5596 -0.0975
 8974TIP3    H148413   0.999   6.045  16.211  2.3146  1.8311 -0.2158
 8974TIP3    H248414   0.877   6.031  16.123  2.2566 -2.2270  0.3175
 8975TIP3   OH248415   5.500   4.674  15.078  0.1772 -0.0250 -0.1333
 8975TIP3    H148416   5.410   4.706  15.069  0.1592 -0.2494 -0.7600
 8975TIP3    H248417   5.540   4.690  14.992  0.0669 -1.9868 -0.5851
 8976TIP3   OH248418   5.128   2.529   3.493  0.5074  0.0775 -0.1463
 8976TIP3    H148419   5.208   2.477   3.507  0.6723 -0.0375 -1.4488
 8976TIP3    H248420   5.143   2.576   3.412  1.0645  3.5454  1.7520
 8977TIP3   OH248421   5.560   4.258  16.755  1.1227  0.6774  0.8287
 8977TIP3    H148422   5.630   4.205  16.716  1.3428  0.3566  1.6418
 8977TIP3    H248423   5.516   4.198  16.816 -0.4183  0.6083 -0.2694
 8978TIP3   OH248424   5.303   1.480   2.182  0.1195 -0.2994  0.1365
 8978TIP3    H148425   5.379   1.422   2.188 -0.0936 -0.7796 -1.5126
 8978TIP3    H248426   5.231   1.424   2.153 -0.3973  0.5510 -0.2769
 8979TIP3   OH248427   0.830   0.892  12.251 -0.6896 -0.6299 -0.1184
 8979TIP3    H148428   0.875   0.830  12.308 -1.5550 -0.8620  0.3274
 8979TIP3    H248429   0.899   0.929  12.196  0.1839 -0.3282  1.1360
 8980TIP3   OH248430   2.319   0.768  12.170  0.0071  0.2176  0.1058
 8980TIP3    H148431   2.340   0.696  12.111  0.3044  0.4288 -0.0485
 8980TIP3    H248432   2.254   0.821  12.122 -0.1411  0.1059  0.1820
 8981TIP3   OH248433   2.235   3.324   3.240 -0.6279 -0.3582  0.7539
 8981TIP3    H148434   2.164   3.388   3.245 -0.0983  0.2452  0.6378
 8981TIP3    H248435   2.262   3.325   3.148 -0.7187 -0.8587  0.7209
 8982TIP3   OH248436   4.212   3.370  10.683  0.0794 -0.1684 -0.2983
 8982TIP3    H148437   4.184   3.314  10.611 -0.2581 -1.7505  1.0062
 8982TIP3    H248438   4.132   3.391  10.730  0.0600  2.2187 -1.2356
 8983TIP3   OH248439   3.636   5.209   4.278 -0.5074 -0.7470  0.2048
 8983TIP3    H148440   3.613   5.145   4.345 -1.1357 -0.7974 -0.0526
 8983TIP3    H248441   3.578   5.189   4.205  0.8106 -1.3009 -0.7327
 8984TIP3   OH248442   1.420   4.950   5.409  0.8109  0.6221 -0.5436
 8984TIP3    H148443   1.459   4.913   5.488 -1.5141 -0.8801  0.0063
 8984TIP3    H248444   1.411   5.044   5.428 -0.5575  0.1486  1.4385
 8985TIP3   OH248445   5.246   0.892  15.088  0.5157 -0.0130 -0.0408
 8985TIP3    H148446   5.340   0.905  15.072  0.9183 -0.1848  1.8917
 8985TIP3    H248447   5.219   0.973  15.133 -0.1709 -0.1350 -0.2331
 8986TIP3   OH248448   5.746   4.090   0.601  0.1060 -0.4305  0.8561
 8986TIP3    H148449   5.675   4.154   0.590  0.1431 -0.6484 -1.1118
 8986TIP3    H248450   5.702   4.005   0.593  0.3776 -0.5953  1.1290
 8987TIP3   OH248451   1.495   2.939  14.616 -0.5116  0.0653 -0.1638
 8987TIP3    H148452   1.454   2.966  14.534 -1.3491 -0.6097  0.0246
 8987TIP3    H248453   1.422   2.916  14.673  0.1003 -2.0879 -0.1387
 8988TIP3   OH248454   4.329   4.671   2.532 -0.5253  0.4338 -0.8257
 8988TIP3    H148455   4.243   4.661   2.573 -0.2219  0.5484 -0.1512
 8988TIP3    H248456   4.366   4.583   2.530  0.6717  0.7676  1.8695
 8989TIP3   OH248457   4.000   1.412  12.015 -0.3648 -0.6593 -1.0448
 8989TIP3    H148458   4.084   1.380  12.047 -1.1814 -0.8875  1.0765
 8989TIP3    H248459   3.944   1.335  12.012 -1.2557 -0.1062  0.3098
 8990TIP3   OH248460   2.802   6.763   1.804  0.4938 -0.2118 -0.5828
 8990TIP3    H148461   2.710   6.764   1.829  0.5719 -0.5167 -0.2735
 8990TIP3    H248462   2.837   6.846   1.837  0.4835 -0.3937 -0.1211
 8991TIP3   OH248463   6.035   5.500  16.235  0.3681 -0.0802 -0.2940
 8991TIP3    H148464   6.010   5.585  16.200  3.8930  1.0918 -0.3525
 8991TIP3    H248465   6.038   5.512  16.330 -0.1836 -0.4804 -0.2226
 8992TIP3   OH248466   4.685   1.354   2.713 -0.6404  0.1488  0.1073
 8992TIP3    H148467   4.612   1.357   2.776  0.4418 -1.4984  1.5233
 8992TIP3    H248468   4.757   1.314   2.762  0.6039 -0.1380 -1.8733
 8993TIP3   OH248469   1.366   0.309   3.951 -0.0106 -0.0604 -0.9357
 8993TIP3    H148470   1.390   0.282   4.039 -1.9592  2.0731  0.3813
 8993TIP3    H248471   1.436   0.369   3.924  0.4829 -0.5460 -0.7335
 8994TIP3   OH248472   3.002   0.003  15.303 -0.6485  0.9389  0.0706
 8994TIP3    H148473   2.952   0.047  15.372 -0.1645 -0.3547  1.3054
 8994TIP3    H248474   2.998  -0.090  15.327 -0.3701  0.4625 -1.6003
 8995TIP3   OH248475   5.173   1.247   2.097 -0.1372 -0.3620 -0.9202
 8995TIP3    H148476   5.227   1.209   2.028  1.8954  1.1502 -0.2336
 8995TIP3    H248477   5.158   1.175   2.159  0.8046 -0.8818 -1.2841
 8996TIP3   OH248478   5.757   6.818   5.845 -0.2310  0.0423  0.2408
 8996TIP3    H148479   5.763   6.818   5.940 -0.6135 -5.3085  0.5552
 8996TIP3    H248480   5.677   6.769   5.825  2.2030 -3.3512 -2.5467
 8997TIP3   OH248481   5.872   5.069   4.694  0.3865  0.0058 -0.3409
 8997TIP3    H148482   5.833   5.139   4.641  2.9983  1.4912 -0.4561
 8997TIP3    H248483   5.904   5.005   4.631  1.5995  0.7292 -0.4785
 8998TIP3   OH248484   2.660   5.784  13.198  0.4701  0.1487  0.4732
 8998TIP3    H148485   2.744   5.829  13.199  0.2137  0.6431  0.5336
 8998TIP3    H248486   2.670   5.714  13.133  0.1406  1.8123 -1.4962
 8999TIP3   OH248487   2.791   3.818  17.123 -0.0730  0.2945  0.4109
 8999TIP3    H148488   2.738   3.738  17.119 -0.8576  0.7668  1.0028
 8999TIP3    H248489   2.750   3.877  17.058  1.6076 -0.3940 -1.3699
 9000TIP3   OH248490   6.680   3.429  11.411  0.2683  0.0540  0.4123
 9000TIP3    H148491   6.749   3.377  11.369 -0.2357 -0.6527  0.4439
 9000TIP3    H248492   6.637   3.367  11.470 -1.6609 -0.0443 -1.0248
 9001TIP3   OH248493   4.636   3.732   5.954 -0.0264 -0.0528 -0.1172
 9001TIP3    H148494   4.718   3.719   6.002  0.1353 -0.6324 -0.5523
 9001TIP3    H248495   4.594   3.646   5.952 -0.2319  0.0529 -0.6500
 9002TIP3   OH248496   5.622   4.101   5.717  0.1999 -0.5290  0.3973
 9002TIP3    H148497   5.568   4.173   5.684 -1.0682 -1.6343 -0.0304
 9002TIP3    H248498   5.689   4.088   5.650  0.6109  0.4008  0.6047
 9003TIP3   OH248499   5.115   6.275  13.131  0.2428  0.2964 -0.1751
 9003TIP3    H148500   5.193   6.290  13.077  0.8577 -0.8320  0.3502
 9003TIP3    H248501   5.059   6.219  13.076  0.5940 -0.3438  0.1139
 9004TIP3   OH248502   6.766   2.688  14.328  0.3398  0.0291  0.0880
 9004TIP3    H148503   6.704   2.661  14.396  0.6640  1.2818  0.9157
 9004TIP3    H248504   6.716   2.679  14.247 -0.7152  0.3498  0.6682
 9005TIP3   OH248505   4.944   6.221  15.903 -0.3044  0.0879 -0.3701
 9005TIP3    H148506   4.922   6.274  15.980  1.5627  1.0227 -0.4340
 9005TIP3    H248507   5.033   6.247  15.881 -0.5187 -0.7425 -2.3890
 9006TIP3   OH248508   4.728   4.600  10.924  0.4387 -0.7599  0.2829
 9006TIP3    H148509   4.687   4.581  11.009  0.8907  1.2582  1.0215
 9006TIP3    H248510   4.819   4.620  10.946  0.8217 -1.2179 -0.8341
 9007TIP3   OH248511   0.283   5.919   0.893 -0.0351  0.3805  0.0423
 9007TIP3    H148512   0.202   5.872   0.871  0.0210  0.3981 -0.2005
 9007TIP3    H248513   0.310   5.959   0.811  0.7044 -0.3562 -0.0885
 9008TIP3   OH248514   0.157   1.110   5.028 -0.3515 -0.1116 -0.6189
 9008TIP3    H148515   0.241   1.129   5.070  0.7020 -0.6111 -2.4315
 9008TIP3    H248516   0.120   1.039   5.080 -0.3731  1.0834  1.0809
 9009TIP3   OH248517   1.934   3.888   4.595  0.2444  0.1049 -0.7350
 9009TIP3    H148518   1.876   3.963   4.604 -0.8696 -0.8168  0.1323
 9009TIP3    H248519   1.923   3.859   4.505 -1.3120 -0.5524 -0.3625
 9010TIP3   OH248520   2.524   6.729  16.771  0.9699  0.1969  0.0437
 9010TIP3    H148521   2.435   6.764  16.763  1.0586  0.6792  1.0407
 9010TIP3    H248522   2.527   6.657  16.707 -1.1462 -1.8767  2.0789
 9011TIP3   OH248523   3.480   1.174  12.805  0.7230 -0.1561  0.0165
 9011TIP3    H148524   3.556   1.125  12.835  0.7706  0.1476  0.4011
 9011TIP3    H248525   3.406   1.115  12.819  1.0102 -0.9316 -1.5047
 9012TIP3   OH248526   2.212   0.297   4.227  0.1432 -0.1782 -0.2151
 9012TIP3    H148527   2.249   0.254   4.304  1.2247  0.2037 -0.4997
 9012TIP3    H248528   2.117   0.297   4.242  0.3361 -0.1634  1.0782
 9013TIP3   OH248529   3.299   3.793   3.195  0.0753 -0.0073  0.5221
 9013TIP3    H148530   3.227   3.785   3.132  0.8741  0.0636 -0.4216
 9013TIP3    H248531   3.378   3.785   3.142  0.7697 -1.1097  1.6818
 9014TIP3   OH248532   2.452   6.044  10.810  0.3403 -0.5556 -1.0929
 9014TIP3    H148533   2.364   6.034  10.775  1.0223 -1.7553 -2.5771
 9014TIP3    H248534   2.494   6.106  10.750  0.7075 -0.5161 -0.7965
 9015TIP3   OH248535   5.796   4.160   0.868 -0.0204  0.1735 -0.1228
 9015TIP3    H148536   5.706   4.148   0.898 -0.0532 -1.0102 -0.6341
 9015TIP3    H248537   5.803   4.105   0.790  1.9976 -2.3148  1.6283
 9016TIP3   OH248538   3.940   2.593   1.397 -0.1965  0.3977  0.0129
 9016TIP3    H148539   3.860   2.628   1.435  0.0547 -1.1927  2.1935
 9016TIP3    H248540   4.001   2.667   1.396 -1.5980  1.6097 -1.6278
 9017TIP3   OH248541   2.486   5.006  12.340  0.2188 -0.2036  0.0276
 9017TIP3    H148542   2.567   5.011  12.291  0.9777  0.5793  1.3003
 9017TIP3    H248543   2.417   5.009  12.274  1.2126 -1.0137 -1.0776
 9018TIP3   OH248544   0.129   0.251  13.669 -0.0901 -0.0300 -0.7714
 9018TIP3    H148545   0.065   0.319  13.692  0.1783 -0.3643  1.1355
 9018TIP3    H248546   0.197   0.298  13.622 -0.9733  0.6065 -1.4591
 9019TIP3   OH248547   4.171   2.713  12.634  0.4599  0.4696 -0.2244
 9019TIP3    H148548   4.254   2.744  12.670 -1.0895  3.1380  1.3534
 9019TIP3    H248549   4.153   2.772  12.561 -0.6757  0.8553  0.3391
 9020TIP3   OH248550   4.287   2.330  10.860 -0.1788  0.1684  0.3794
 9020TIP3    H148551   4.249   2.243  10.849  0.9592 -0.5236  1.6455
 9020TIP3    H248552   4.256   2.380  10.784 -1.2597 -1.1825 -0.0982
 9021TIP3   OH248553   0.643   5.544   1.759  1.0091 -0.1378 -0.1135
 9021TIP3    H148554   0.697   5.580   1.829  0.1024 -1.0304  1.0679
 9021TIP3    H248555   0.620   5.620   1.705  1.5236  0.5875  0.6703
 9022TIP3   OH248556   3.548   2.681   2.510  0.1088 -0.0533 -0.1373
 9022TIP3    H148557   3.575   2.618   2.577  3.1401  1.9501  0.6992
 9022TIP3    H248558   3.587   2.648   2.429 -0.7551 -0.7133 -0.3028
 9023TIP3   OH248559   4.055   2.815  13.695 -0.0273 -0.5186 -0.2905
 9023TIP3    H148560   4.108   2.784  13.769 -0.9781  1.4274  1.3110
 9023TIP3    H248561   4.025   2.735  13.652  2.6081 -1.6958 -0.1284
 9024TIP3   OH248562   3.069   0.915   2.577  0.5969 -0.1354 -0.9073
 9024TIP3    H148563   3.124   0.861   2.635  0.2214  0.3815 -0.0454
 9024TIP3    H248564   3.008   0.854   2.538  1.5428 -0.6651 -1.5988
 9025TIP3   OH248565   1.557   6.549   4.927 -0.4828 -0.4123 -0.0897
 9025TIP3    H148566   1.600   6.632   4.948  0.7430 -1.0575  0.0495
 9025TIP3    H248567   1.605   6.484   4.979 -1.9096 -1.1106  0.3856
 9026TIP3   OH248568   1.842   0.387  15.784  0.5462 -0.1008 -0.4521
 9026TIP3    H148569   1.856   0.470  15.830 -2.5216 -0.0933  0.7251
 9026TIP3    H248570   1.923   0.337  15.799  0.8454  1.0717  2.4671
 9027TIP3   OH248571   4.557   6.754  12.094 -0.3200  0.1042 -0.2661
 9027TIP3    H148572   4.597   6.790  12.015  0.0487  2.2739  0.8450
 9027TIP3    H248573   4.544   6.662  12.074  0.6056  0.4015 -2.5167
 9028TIP3   OH248574   6.542   4.461  15.085  0.1542 -0.0168 -0.1222
 9028TIP3    H148575   6.589   4.519  15.024 -0.5858 -0.6959 -1.3689
 9028TIP3    H248576   6.477   4.519  15.127 -1.6168 -0.1649 -2.4652
 9029TIP3   OH248577   1.186   1.242   6.380  0.3300  0.4379 -0.3568
 9029TIP3    H148578   1.179   1.150   6.404  4.0614 -0.2713 -1.3209
 9029TIP3    H248579   1.211   1.287   6.460  2.8321 -0.2356 -0.6716
 9030TIP3   OH248580   5.269   1.771   2.472  0.1979 -0.1618 -0.0660
 9030TIP3    H148581   5.213   1.739   2.542 -1.4555  2.1265 -0.2274
 9030TIP3    H248582   5.209   1.796   2.402  1.7400 -1.6471 -2.0776
 9031TIP3   OH248583   5.699   5.616   1.556  0.4125 -0.2533  0.1727
 9031TIP3    H148584   5.772   5.620   1.618  0.4492 -2.9436  0.4127
 9031TIP3    H248585   5.704   5.698   1.508  3.1753 -0.0427  0.6733
 9032TIP3   OH248586   5.261   6.637   1.432  0.3003  0.1135  0.6370
 9032TIP3    H148587   5.168   6.641   1.453 -0.1893 -0.8231 -1.2100
 9032TIP3    H248588   5.304   6.665   1.513 -1.5222 -0.7455  1.9854
 9033TIP3   OH248589   2.688   3.438  11.188  0.4601 -0.1187 -0.3003
 9033TIP3    H148590   2.603   3.475  11.166 -0.4203 -2.0659 -0.3766
 9033TIP3    H248591   2.726   3.413  11.103  1.0096  0.5103 -0.2479
 9034TIP3   OH248592   2.181   2.205   3.683  0.5197  0.1164  0.1421
 9034TIP3    H148593   2.094   2.237   3.661  0.7838  1.3736  0.8451
 9034TIP3    H248594   2.187   2.216   3.777  0.9506 -1.2498  0.2920
 9035TIP3   OH248595   4.718   0.060   5.129 -0.0307 -0.1646  0.1500
 9035TIP3    H148596   4.787  -0.001   5.156 -0.5645 -1.2020 -0.7360
 9035TIP3    H248597   4.759   0.113   5.060  0.8693  1.4910  1.8551
 9036TIP3   OH248598   0.625   2.134  12.795 -0.0917  0.0540  0.0399
 9036TIP3    H148599   0.591   2.058  12.842  0.0769 -0.2187 -0.2735
 9036TIP3    H248600   0.654   2.194  12.863 -0.1705 -0.1909  0.2895
 9037TIP3   OH248601   2.664   0.321   6.246  0.3720  0.0160  0.7378
 9037TIP3    H148602   2.706   0.346   6.329  0.0274  0.6023  0.7359
 9037TIP3    H248603   2.586   0.273   6.273 -0.7605  1.8161  0.7997
 9038TIP3   OH248604   3.959   1.719  14.778  0.1046 -0.5103  0.0468
 9038TIP3    H148605   4.044   1.762  14.770  0.4868 -1.2073  0.2809
 9038TIP3    H248606   3.934   1.700  14.687  0.2789 -0.4578 -0.0141
 9039TIP3   OH248607   3.060   0.453   3.775 -0.0328 -0.7646  0.3131
 9039TIP3    H148608   3.029   0.536   3.811  1.9281  0.8334 -1.4294
 9039TIP3    H248609   2.981   0.404   3.755 -1.3907  1.8515 -1.1972
 9040TIP3   OH248610   0.894   6.246   4.784  0.2591  0.1108  0.3221
 9040TIP3    H148611   0.872   6.181   4.717  2.1039 -0.2221 -0.0161
 9040TIP3    H248612   0.856   6.212   4.864 -0.8611 -0.1537 -0.3048
 9041TIP3   OH248613   4.129   0.143   2.739  0.2009  0.2013  0.1436
 9041TIP3    H148614   4.085   0.058   2.743 -2.8315  1.4339 -2.6078
 9041TIP3    H248615   4.085   0.197   2.805  1.8672 -0.1507  1.6241
 9042TIP3   OH248616   5.064   1.790   0.919 -0.2439  1.1277 -0.3079
 9042TIP3    H148617   5.107   1.815   0.838  0.0377 -0.2983 -0.6382
 9042TIP3    H248618   4.986   1.742   0.891  0.6499 -0.7265  0.1973
 9043TIP3   OH248619   4.431   1.000   0.627  0.0846  0.4410 -0.2308
 9043TIP3    H148620   4.344   1.029   0.656 -0.1000  0.3084 -0.6486
 9043TIP3    H248621   4.462   1.070   0.571  0.0693  0.2994 -0.4179
 9044TIP3   OH248622   1.105   4.068  13.429  0.0164 -0.4449 -0.3711
 9044TIP3    H148623   1.174   4.135  13.428  0.3462 -0.7492 -2.6606
 9044TIP3    H248624   1.112   4.029  13.517  0.6125  1.6565  0.5909
 9045TIP3   OH248625   1.508   5.065  16.346 -0.5710 -0.3719 -0.0562
 9045TIP3    H148626   1.566   5.021  16.409 -0.5658  0.3404  0.4442
 9045TIP3    H248627   1.563   5.134  16.309 -1.0199  0.1418  0.2323
 9046TIP3   OH248628   0.708   1.717  16.195 -0.3104  0.0349  0.2530
 9046TIP3    H148629   0.764   1.722  16.118  0.2540  0.2584  0.6675
 9046TIP3    H248630   0.768   1.723  16.269 -0.5718 -2.3665  0.7524
 9047TIP3   OH248631   3.262   2.412   0.259  0.6305  0.1337  0.5491
 9047TIP3    H148632   3.205   2.342   0.228  0.5743  1.4652 -2.7502
 9047TIP3    H248633   3.345   2.369   0.279 -0.0126 -1.1197  0.6578
 9048TIP3   OH248634   1.923   4.529  16.852  0.3176 -0.0559 -0.6519
 9048TIP3    H148635   1.997   4.567  16.804  1.1097 -2.0388 -1.0891
 9048TIP3    H248636   1.963   4.470  16.915 -0.8745 -1.5650 -1.2355
 9049TIP3   OH248637   3.647   1.364   5.368  0.4624 -0.0871 -0.2111
 9049TIP3    H148638   3.647   1.295   5.301  1.4088 -0.5949  0.2907
 9049TIP3    H248639   3.739   1.377   5.388  0.2198  0.5314  0.5191
 9050TIP3   OH248640   0.870   4.900  13.856 -0.5062 -0.0001 -0.0216
 9050TIP3    H148641   0.846   4.854  13.937 -2.7720  0.4750 -0.3778
 9050TIP3    H248642   0.794   4.890  13.799  1.4102 -1.2489 -2.5842
 9051TIP3   OH248643   4.132   1.109   0.664  0.2600 -0.0492  0.1765
 9051TIP3    H148644   4.169   1.127   0.577  1.8638 -1.2701  0.5524
 9051TIP3    H248645   4.088   1.024   0.654  1.0990 -0.5579  0.7234
 9052TIP3   OH248646   4.586   1.149   3.737 -0.3729  0.2603  0.0699
 9052TIP3    H148647   4.655   1.195   3.785 -0.3276  0.5206 -0.2396
 9052TIP3    H248648   4.567   1.072   3.790 -2.5944  2.1227  2.2292
 9053TIP3   OH248649   1.628   0.034   3.096 -0.1668  0.0348 -0.2789
 9053TIP3    H148650   1.672   0.117   3.077 -0.3347  0.2542  0.2535
 9053TIP3    H248651   1.576   0.053   3.174  0.2083 -0.7188  0.1577
 9054TIP3   OH248652   5.646   0.360  13.534 -0.5175  0.1994 -0.7655
 9054TIP3    H148653   5.634   0.450  13.565  0.3382  0.4101 -1.0367
 9054TIP3    H248654   5.732   0.359  13.493 -0.9613 -0.4775 -1.7353
 9055TIP3   OH248655   0.893   4.563  12.202  0.1562  0.1552  0.4837
 9055TIP3    H148656   0.911   4.658  12.201  0.5755  0.0773 -0.6707
 9055TIP3    H248657   0.803   4.555  12.172 -0.1041  0.2151  1.2183
 9056TIP3   OH248658   1.469   0.790   5.881 -0.2161 -0.3588 -0.6402
 9056TIP3    H148659   1.470   0.859   5.815 -0.6915 -0.1464 -0.4307
 9056TIP3    H248660   1.377   0.771   5.895 -0.2186  0.6790  1.0516
 9057TIP3   OH248661   2.317   6.815  15.975 -0.3568 -0.1287  0.0452
 9057TIP3    H148662   2.307   6.910  15.970  1.5915  0.0469 -1.8206
 9057TIP3    H248663   2.372   6.801  16.052 -0.9581  0.1857  0.5499
 9058TIP3   OH248664   4.886   6.178   5.473 -0.1042  0.1106  0.0802
 9058TIP3    H148665   4.891   6.174   5.378  0.9236  0.0405  0.1276
 9058TIP3    H248666   4.794   6.161   5.493  0.1942 -2.9922 -0.7335
 9059TIP3   OH248667   3.302   2.388  12.588  0.2882  0.1522  0.1522
 9059TIP3    H148668   3.315   2.462  12.648  1.5200  1.1308 -1.2555
 9059TIP3    H248669   3.285   2.428  12.503  1.6990 -1.1455 -0.7954
 9060TIP3   OH248670   3.069   6.394  12.084  0.4958 -0.4086  0.4453
 9060TIP3    H148671   3.080   6.439  12.001 -2.6714 -0.0987  0.0917
 9060TIP3    H248672   3.126   6.441  12.145  3.4176 -1.0653 -1.5734
 9061TIP3   OH248673   6.501   5.504  12.535  0.3813  0.0920 -0.6348
 9061TIP3    H148674   6.541   5.441  12.594  0.1716 -0.3061 -0.9085
 9061TIP3    H248675   6.437   5.452  12.485 -1.3683  0.9464  0.6392
 9062TIP3   OH248676   6.098   6.570  11.217  0.1459 -0.3791 -0.4517
 9062TIP3    H148677   6.190   6.566  11.190  0.3826 -0.5569  0.3647
 9062TIP3    H248678   6.050   6.584  11.135  0.6952 -2.6154 -1.2258
 9063TIP3   OH248679   0.407   2.300   3.765 -0.0012  0.1033 -0.0668
 9063TIP3    H148680   0.389   2.337   3.679  0.4664 -0.1410 -0.2760
 9063TIP3    H248681   0.416   2.206   3.749  0.0968  0.0570  0.2431
 9064TIP3   OH248682   0.270   5.544  14.888  0.4839 -0.1047 -0.1004
 9064TIP3    H148683   0.261   5.473  14.951  0.6928  0.8593  1.0678
 9064TIP3    H248684   0.364   5.553  14.874  0.4498 -0.1682 -0.3689
 9065TIP3   OH248685   3.858   2.207   2.688 -0.3978  0.4844 -0.2088
 9065TIP3    H148686   3.863   2.302   2.689 -0.3070  0.4793 -0.0838
 9065TIP3    H248687   3.864   2.183   2.595 -0.6299  0.6091 -0.2557
 9066TIP3   OH248688   4.325   4.582   3.920 -0.0784 -0.0207 -0.3392
 9066TIP3    H148689   4.271   4.595   3.842 -0.6368  1.0523  0.1902
 9066TIP3    H248690   4.369   4.666   3.933 -0.5222  0.0457  0.8720
 9067TIP3   OH248691   1.313   1.699  12.944  0.0095  0.2483 -0.3008
 9067TIP3    H148692   1.394   1.689  12.894  0.4506 -1.1212  0.6423
 9067TIP3    H248693   1.327   1.646  13.022 -0.9801  1.6838  0.8974
 9068TIP3   OH248694   1.620   1.458  16.263 -0.0452  0.1189 -0.1823
 9068TIP3    H148695   1.547   1.517  16.283  0.7812  0.2938  2.9158
 9068TIP3    H248696   1.583   1.393  16.203 -2.8198  0.1280  1.3486
 9069TIP3   OH248697   5.481   1.749   1.620 -0.2081 -0.2261  0.4424
 9069TIP3    H148698   5.565   1.711   1.647 -0.2763  0.3945  1.5565
 9069TIP3    H248699   5.505   1.824   1.565 -0.0135  0.2005  1.0967
 9070TIP3   OH248700   2.962   6.775  14.055 -0.6688 -0.3190 -0.3246
 9070TIP3    H148701   2.999   6.716  13.990 -1.6187  1.0591 -2.1945
 9070TIP3    H248702   2.975   6.729  14.138 -0.8611 -2.9019 -1.6018
 9071TIP3   OH248703   3.260   4.301  15.939  0.6256 -0.4568  0.2540
 9071TIP3    H148704   3.249   4.206  15.928  0.6161 -0.3686 -0.5321
 9071TIP3    H248705   3.274   4.334  15.850 -0.4618  0.4137  0.3828
 9072TIP3   OH248706   2.105   0.120  13.804 -0.3185  0.0549 -0.2270
 9072TIP3    H148707   2.174   0.084  13.859 -0.1231  0.4064 -0.2378
 9072TIP3    H248708   2.048   0.167  13.865 -0.4274 -0.0544 -0.2460
 9073TIP3   OH248709   4.027   5.315   2.456 -0.2611  0.3120  0.0271
 9073TIP3    H148710   3.939   5.278   2.445 -0.4595  0.8963 -0.4406
 9073TIP3    H248711   4.014   5.389   2.515  0.1621 -0.4478  1.1074
 9074TIP3   OH248712   2.375   1.276  12.861 -0.0821  0.1635  0.2868
 9074TIP3    H148713   2.400   1.211  12.926 -0.6074  1.3795  1.7556
 9074TIP3    H248714   2.284   1.254  12.839 -0.8849  1.3973  2.1294
 9075TIP3   OH248715   3.089   6.612  14.237  0.0202 -0.1521 -1.1754
 9075TIP3    H148716   3.014   6.558  14.262 -0.0906  0.0472 -1.0729
 9075TIP3    H248717   3.127   6.567  14.161 -0.0899 -0.3551 -1.1107
 9076TIP3   OH248718   5.068   3.206  15.357 -0.1235 -0.1821 -0.1411
 9076TIP3    H148719   5.001   3.172  15.416 -0.8954  3.1161  1.0678
 9076TIP3    H248720   5.143   3.226  15.414  0.6466 -0.6444 -0.9536
 9077TIP3   OH248721   1.722   6.638  11.274  0.0288  0.0180  0.2468
 9077TIP3    H148722   1.644   6.679  11.313  0.5371  0.6831  0.5975
 9077TIP3    H248723   1.701   6.632  11.181 -1.1167 -1.3862  0.5502
 9078TIP3   OH248724   5.292   4.237   0.807 -0.1426  0.4704  0.0945
 9078TIP3    H148725   5.251   4.283   0.880 -0.9574  0.4990 -0.3708
 9078TIP3    H248726   5.219   4.200   0.757  0.4493 -0.3830 -0.1594
 9079TIP3   OH248727   0.044   3.360  15.076 -0.3170  0.0697 -0.3752
 9079TIP3    H148728   0.133   3.358  15.041 -0.3970  0.1630 -0.5868
 9079TIP3    H248729   0.041   3.287  15.138  0.3898  1.0000  0.8277
 9080TIP3   OH248730   3.893   3.460  11.825 -0.3326 -0.1905 -0.0807
 9080TIP3    H148731   3.938   3.545  11.827  1.3771 -0.9444 -2.3469
 9080TIP3    H248732   3.810   3.477  11.782 -0.4441  0.5020  0.3934
 9081TIP3   OH248733   3.947   5.170  16.047 -0.1262 -0.3955  0.0274
 9081TIP3    H148734   3.950   5.188  15.954  0.1139  1.2523  0.3201
 9081TIP3    H248735   3.864   5.208  16.076  0.6968  0.9047  0.7965
 9082TIP3   OH248736   6.194   3.174  15.471 -0.3509  0.2660 -0.3650
 9082TIP3    H148737   6.172   3.151  15.381  0.2310  0.7346 -0.6288
 9082TIP3    H248738   6.171   3.267  15.478  0.9457  0.6111 -0.4655
 9083TIP3   OH248739   2.230   6.744   5.945 -0.4208 -0.0702 -0.5645
 9083TIP3    H148740   2.152   6.752   5.890 -0.2934 -0.4426 -0.8022
 9083TIP3    H248741   2.202   6.775   6.031 -0.7339  0.1308 -0.7393
 9084TIP3   OH248742   5.782   0.814  13.151  0.2224  0.0597 -0.2217
 9084TIP3    H148743   5.802   0.757  13.226  1.8365 -2.6134 -2.4805
 9084TIP3    H248744   5.690   0.795  13.131  0.4041 -0.8852 -0.2078
 9085TIP3   OH248745   2.174   4.131   4.328 -0.4069  0.4672  0.4425
 9085TIP3    H148746   2.174   4.186   4.406 -1.1909  2.2300 -0.7076
 9085TIP3    H248747   2.265   4.106   4.316  0.0456  1.8005  0.8813
 9086TIP3   OH248748   5.994   4.085  15.386  0.3308 -0.3304 -0.4703
 9086TIP3    H148749   6.060   4.019  15.365  0.2023 -0.3126 -0.9221
 9086TIP3    H248750   6.030   4.167  15.352  1.0971  0.0892  1.2144
 9087TIP3   OH248751   1.834   2.785  16.455 -0.2219  0.4302  0.7206
 9087TIP3    H148752   1.842   2.781  16.360  2.0337 -3.2979  0.8694
 9087TIP3    H248753   1.909   2.838  16.483 -0.4372  0.8680  0.4738
 9088TIP3   OH248754   1.979   0.002   2.793  0.1718 -0.3200 -0.4415
 9088TIP3    H148755   1.912   0.070   2.780  1.1872  0.7329 -0.4000
 9088TIP3    H248756   2.025   0.030   2.872  0.0801 -1.5430  0.0684
 9089TIP3   OH248757   5.399   2.925  10.761 -0.0640 -0.3064 -0.0275
 9089TIP3    H148758   5.388   3.020  10.757  1.8321 -0.0848 -1.4325
 9089TIP3    H248759   5.336   2.896  10.827  0.2095  2.0550  1.3797
 9090TIP3   OH248760   2.710   6.524   2.092  0.0167 -0.0396  0.2060
 9090TIP3    H148761   2.624   6.555   2.062  0.9593  1.9679 -0.6549
 9090TIP3    H248762   2.717   6.557   2.181 -1.4831 -3.2875  1.6781
 9091TIP3   OH248763   2.652   4.268   2.255 -0.1583  0.0898 -0.6540
 9091TIP3    H148764   2.702   4.189   2.238  0.5604  0.2872  0.4130
 9091TIP3    H248765   2.717   4.338   2.256 -0.6879  0.5954 -0.8863
 9092TIP3   OH248766   5.726   0.422   4.161  0.1179 -0.1406 -0.1969
 9092TIP3    H148767   5.768   0.346   4.122 -0.2661  0.6992 -2.3943
 9092TIP3    H248768   5.636   0.420   4.128 -0.0140  1.0433  0.0381
 9093TIP3   OH248769   2.176   5.919  16.156 -0.0715 -0.4580 -0.0522
 9093TIP3    H148770   2.251   5.910  16.215 -0.7307 -1.1315  0.6960
 9093TIP3    H248771   2.105   5.951  16.212 -0.3814  0.0609 -0.7312
 9094TIP3   OH248772   2.050   0.617  16.805  0.0481  0.1117  0.1585
 9094TIP3    H148773   1.964   0.591  16.773  0.9676 -1.4435 -1.1897
 9094TIP3    H248774   2.073   0.694  16.754 -0.5766  0.6079  0.6124
 9095TIP3   OH248775   2.436   4.145   1.151  0.0732  0.1487  0.6309
 9095TIP3    H148776   2.431   4.143   1.055  1.9593  0.5053  0.5019
 9095TIP3    H248777   2.348   4.120   1.179 -0.9944  1.5748 -1.1850
 9096TIP3   OH248778   5.530   4.220   0.404 -0.2460 -0.1004 -0.4501
 9096TIP3    H148779   5.523   4.260   0.490 -0.1060 -1.3288  0.1650
 9096TIP3    H248780   5.448   4.240   0.360 -0.1952  0.7927 -0.1582
 9097TIP3   OH248781   2.452   0.984  15.320  0.2953 -0.1839  0.4401
 9097TIP3    H148782   2.414   0.899  15.340  1.6598 -0.6634  1.2082
 9097TIP3    H248783   2.520   0.966  15.255  0.9449  0.2127  0.9851
 9098TIP3   OH248784   2.636   3.942  14.427 -0.3359  0.0577 -0.1375
 9098TIP3    H148785   2.620   4.002  14.353 -0.6618 -0.6116 -0.6242
 9098TIP3    H248786   2.668   3.999  14.497  1.7905  0.4759 -1.3572
 9099TIP3   OH248787   0.159   6.734  10.601 -0.6516  0.3880 -0.0006
 9099TIP3    H148788   0.246   6.772  10.595  0.2693 -1.3812  1.4233
 9099TIP3    H248789   0.148   6.688  10.518  0.0489  0.0651  0.0800
 9100TIP3   OH248790   6.361   6.124   4.951  0.0528  0.2954  0.1525
 9100TIP3    H148791   6.351   6.078   4.868 -2.0167  2.8475 -1.1551
 9100TIP3    H248792   6.308   6.204   4.942  0.5456  1.2024  3.5588
 9101TIP3   OH248793   5.633   2.643   2.317  0.2401 -0.1238  0.1088
 9101TIP3    H148794   5.551   2.682   2.286  0.1175 -0.4848 -0.0344
 9101TIP3    H248795   5.605   2.579   2.383  0.3320 -0.8717 -0.5653
 9102TIP3   OH248796   6.720   4.027  15.485  0.4151  0.5628 -0.0856
 9102TIP3    H148797   6.704   3.961  15.417 -0.0001 -0.5507  1.0580
 9102TIP3    H248798   6.748   4.105  15.436  0.5676 -0.3354 -1.4988
 9103TIP3   OH248799   0.625   1.594   3.505 -0.2590 -0.0085  0.1509
 9103TIP3    H148800   0.589   1.680   3.483 -0.3103  0.0409  0.4269
 9103TIP3    H248801   0.590   1.535   3.438  2.4725  0.7673 -2.1939
 9104TIP3   OH248802   5.039   2.792   1.584 -0.4173  0.2927 -0.3005
 9104TIP3    H148803   4.986   2.713   1.577 -1.4406  1.0022 -0.8674
 9104TIP3    H248804   4.981   2.857   1.621 -0.0074  1.1346 -1.0817
 9105TIP3   OH248805   6.281   6.705  13.242 -0.2230  0.6836 -0.2245
 9105TIP3    H148806   6.278   6.729  13.335  1.8007  0.0562  0.0297
 9105TIP3    H248807   6.332   6.775  13.201  1.0100 -0.2998 -0.4170
 9106TIP3   OH248808   3.349   1.963  14.399  0.1719 -0.2928 -0.0950
 9106TIP3    H148809   3.422   1.912  14.436  0.4175 -0.8719 -1.3260
 9106TIP3    H248810   3.315   1.908  14.328  1.4682  1.8773 -2.5738
 9107TIP3   OH248811   6.087   3.988  10.488 -0.1930 -0.3108 -0.2196
 9107TIP3    H148812   6.151   4.019  10.423 -0.3121  0.7215  0.1307
 9107TIP3    H248813   6.012   4.046  10.475 -0.3390 -0.3137  0.6167
 9108TIP3   OH248814   3.973   5.527   1.334 -0.1101 -0.5080 -0.3918
 9108TIP3    H148815   3.944   5.551   1.422 -0.1926  1.4457 -0.9101
 9108TIP3    H248816   4.060   5.567   1.326  0.9204 -2.6370 -0.4016
 9109TIP3   OH248817   3.810   1.031   6.810 -0.7760  0.5385 -0.6825
 9109TIP3    H148818   3.740   1.095   6.826 -0.8683  0.5624 -1.1642
 9109TIP3    H248819   3.879   1.055   6.872 -1.3301  0.3025  0.0330
 9110TIP3   OH248820   6.001   2.501   5.854  0.1228  0.4902 -0.1066
 9110TIP3    H148821   5.906   2.509   5.866  0.1559  1.3622 -0.3184
 9110TIP3    H248822   6.024   2.576   5.799  0.7908 -0.2682 -0.8892
 9111TIP3   OH248823   2.844   0.684  13.024  0.1941  0.1243 -0.4849
 9111TIP3    H148824   2.783   0.610  13.034  1.6581 -1.0495  0.1561
 9111TIP3    H248825   2.916   0.648  12.972  0.3184  1.5230 -1.3250
 9112TIP3   OH248826   0.161   3.051  14.287 -0.2613  0.3146 -0.1398
 9112TIP3    H148827   0.137   3.114  14.218  0.7048  0.4609 -0.3609
 9112TIP3    H248828   0.170   2.968  14.241  0.3637  0.4079 -0.1910
 9113TIP3   OH248829   1.891   4.069   5.508 -0.4305  0.3285 -0.0149
 9113TIP3    H148830   1.970   4.087   5.559 -0.7733  0.2336  0.5559
 9113TIP3    H248831   1.923   4.048   5.420  0.0803  2.0514 -0.2715
 9114TIP3   OH248832   0.021   4.398  16.753  0.5016 -0.5605 -0.4777
 9114TIP3    H148833  -0.072   4.418  16.764  1.0133  1.4528  0.6807
 9114TIP3    H248834   0.027   4.356  16.667 -1.2932  0.6856 -1.2671
 9115TIP3   OH248835   2.820   2.086   5.095 -0.7374 -0.1543  0.4562
 9115TIP3    H148836   2.829   2.092   5.000 -2.5649 -0.6916  0.2141
 9115TIP3    H248837   2.910   2.087   5.127 -0.1058  2.5456 -1.0792
 9116TIP3   OH248838   2.569   0.280   3.102 -0.4223  0.1314 -0.0226
 9116TIP3    H148839   2.650   0.274   3.152  0.3351  0.0495 -1.2359
 9116TIP3    H248840   2.514   0.340   3.153  1.6035  2.8477 -0.7905
 9117TIP3   OH248841   6.190   1.574   2.857  0.3497 -0.1911  0.3364
 9117TIP3    H148842   6.259   1.517   2.825  0.4616  0.3503 -0.4121
 9117TIP3    H248843   6.112   1.547   2.809  0.3436  0.0914  0.1795
 9118TIP3   OH248844   3.913   6.362   4.411 -0.2354 -0.3011  0.5610
 9118TIP3    H148845   3.829   6.408   4.423  0.7042  1.6663  0.0405
 9118TIP3    H248846   3.966   6.392   4.485  0.3839 -0.6029  0.2375
 9119TIP3   OH248847   0.358   1.483  11.301  0.7562  0.2071 -0.2709
 9119TIP3    H148848   0.275   1.509  11.262 -0.4597 -0.3647  1.7610
 9119TIP3    H248849   0.354   1.388  11.304  0.2969  0.2418  2.0948
 9120TIP3   OH248850   0.353   0.674  13.547 -0.1330 -0.5540  0.3500
 9120TIP3    H148851   0.295   0.712  13.613 -1.8677 -0.0712 -1.3544
 9120TIP3    H248852   0.366   0.744  13.483 -0.9000 -1.8408 -1.2928
 9121TIP3   OH248853   4.343   2.951  12.930  0.4300  0.0476 -0.0775
 9121TIP3    H148854   4.267   3.010  12.934 -0.5676 -1.2223  0.2742
 9121TIP3    H248855   4.418   3.009  12.944 -0.6495  0.9063  2.9954
 9122TIP3   OH248856   2.659   6.612  10.624 -0.1478  0.2251 -0.3809
 9122TIP3    H148857   2.577   6.575  10.659 -0.9524  1.3225 -1.0343
 9122TIP3    H248858   2.630   6.686  10.570  1.3904  1.9032  0.9762
 9123TIP3   OH248859   3.220   5.227   3.942  0.4914 -0.0069  0.1368
 9123TIP3    H148860   3.199   5.301   3.998 -1.4593 -0.3620 -0.0710
 9123TIP3    H248861   3.212   5.260   3.852  3.6128  0.5632 -0.0427
 9124TIP3   OH248862   1.373   2.249   4.733 -0.5975 -0.8548 -0.3715
 9124TIP3    H148863   1.326   2.304   4.796 -0.2870  1.3175 -1.8918
 9124TIP3    H248864   1.442   2.208   4.784  0.5141  1.9023  0.5503
 9125TIP3   OH248865   1.630   2.190  16.584  0.2180  0.5457  0.7665
 9125TIP3    H148866   1.587   2.154  16.662 -0.8946 -0.0630 -0.1061
 9125TIP3    H248867   1.635   2.116  16.523  0.7876  1.0975  0.1248
 9126TIP3   OH248868   0.086   1.874   2.886  0.1125  0.5711  0.1888
 9126TIP3    H148869   0.123   1.944   2.939 -1.7119  0.7634  1.2721
 9126TIP3    H248870   0.009   1.844   2.934 -0.2671 -0.8670 -1.2031
 9127TIP3   OH248871   4.928   6.651  16.635  0.8048  0.1514 -0.3472
 9127TIP3    H148872   4.964   6.615  16.553 -0.0532 -1.0237 -0.2241
 9127TIP3    H248873   5.001   6.648  16.696  1.2076  0.2099 -0.8155
 9128TIP3   OH248874   2.319   6.723  11.049  0.0747  0.6216 -0.5269
 9128TIP3    H148875   2.253   6.702  10.983 -0.3932  1.6816 -0.4026
 9128TIP3    H248876   2.401   6.729  10.999  0.0956 -0.6421 -0.6849
 9129TIP3   OH248877   0.371   2.365   1.210 -0.3470 -0.8989  0.5488
 9129TIP3    H148878   0.421   2.325   1.281 -0.6486 -0.8286  0.8064
 9129TIP3    H248879   0.289   2.315   1.208  0.4987 -2.3204 -1.1702
 9130TIP3   OH248880   5.776   3.239   2.355 -0.5995 -0.2219 -0.4679
 9130TIP3    H148881   5.842   3.201   2.297  0.9060  1.2244  0.2381
 9130TIP3    H248882   5.800   3.209   2.442 -0.6352  0.6474 -0.1535
 9131TIP3   OH248883   4.946   6.031   2.079  0.0575 -0.1298  0.2701
 9131TIP3    H148884   4.881   6.058   2.143 -0.9549 -0.6703 -0.4957
 9131TIP3    H248885   4.988   6.112   2.050 -1.5838  0.4623 -0.5825
 9132TIP3   OH248886   0.710   5.004  12.257  0.1665  0.5269 -0.4385
 9132TIP3    H148887   0.650   5.046  12.319  0.4890  1.3005 -0.6276
 9132TIP3    H248888   0.656   4.942  12.209 -0.2870  0.5760 -0.0049
 9133TIP3   OH248889   1.006   2.181  14.295  0.4275  0.3235  0.2632
 9133TIP3    H148890   0.985   2.175  14.202  0.5200 -1.0072  0.3151
 9133TIP3    H248891   1.098   2.157  14.301  0.1472 -0.6895  0.8029
 9134TIP3   OH248892   3.632   4.771  14.724 -0.3100  0.0444  0.5025
 9134TIP3    H148893   3.653   4.776  14.817  0.3251 -1.7023  0.4819
 9134TIP3    H248894   3.710   4.736  14.682 -0.9992 -0.3584 -0.5120
 9135TIP3   OH248895   2.566   6.076   4.881 -0.8483 -0.4413  0.4222
 9135TIP3    H148896   2.507   6.005   4.855  0.5796 -1.7587  0.6221
 9135TIP3    H248897   2.654   6.040   4.869 -0.0811  1.0539  1.2307
 9136TIP3   OH248898   5.895   1.525   3.290  0.2325 -0.0685 -0.0739
 9136TIP3    H148899   5.930   1.456   3.346 -1.1427 -0.7944 -0.0749
 9136TIP3    H248900   5.808   1.494   3.264 -0.3205  1.5513 -0.2787
 9137TIP3   OH248901   1.984   3.528   0.203  0.0010 -0.0697  0.8093
 9137TIP3    H148902   1.900   3.498   0.239  0.2946 -0.1513  1.4293
 9137TIP3    H248903   2.012   3.598   0.261 -0.5674  1.3107 -0.4968
 9138TIP3   OH248904   4.715   6.217   2.156 -0.0960 -0.7078 -0.0880
 9138TIP3    H148905   4.746   6.248   2.241  1.0516 -1.6048 -0.1519
 9138TIP3    H248906   4.663   6.290   2.121  1.0149  0.4324  0.5486
 9139TIP3   OH248907   0.933   4.716   5.875  0.0953  0.3442  0.2177
 9139TIP3    H148908   0.944   4.760   5.790 -1.5959 -0.7814 -0.6435
 9139TIP3    H248909   0.878   4.774   5.926 -1.4126 -0.3249 -0.5986
 9140TIP3   OH248910   4.944   3.591   4.885  0.1015 -0.1178  0.0125
 9140TIP3    H148911   4.996   3.546   4.819  0.6794  2.6283 -1.5738
 9140TIP3    H248912   5.001   3.663   4.915 -1.6352  1.1241  0.4951
 9141TIP3   OH248913   2.240   2.775  14.341 -0.2747  0.2760  0.1032
 9141TIP3    H148914   2.304   2.828  14.293  2.5546 -0.9781  2.1850
 9141TIP3    H248915   2.245   2.689  14.300 -0.8210  0.2261  0.1381
 9142TIP3   OH248916   3.696   3.696  16.689  0.0719  0.2720  0.0592
 9142TIP3    H148917   3.679   3.658  16.775 -1.2222  0.9649  0.1361
 9142TIP3    H248918   3.717   3.788  16.707 -0.7785  0.5616 -0.4028
 9143TIP3   OH248919   2.466   6.726   2.367  0.1333 -0.4279 -0.0353
 9143TIP3    H148920   2.488   6.815   2.392 -0.3538 -1.0251  2.8472
 9143TIP3    H248921   2.399   6.736   2.300  0.4484  1.3515 -0.1352
 9144TIP3   OH248922   0.406   2.870   1.530 -0.0423  0.0148  0.3787
 9144TIP3    H148923   0.451   2.928   1.470 -0.5402  1.2055  1.1290
 9144TIP3    H248924   0.322   2.912   1.547 -0.1456 -0.5772  1.4600
 9145TIP3   OH248925   1.868   4.284   2.208 -0.1611 -0.1589  0.0753
 9145TIP3    H148926   1.798   4.340   2.241 -0.4627 -1.2971  1.4875
 9145TIP3    H248927   1.834   4.195   2.218 -0.1308 -0.6594 -3.0835
 9146TIP3   OH248928   4.742   0.204  12.205 -0.1768  0.1380  0.1687
 9146TIP3    H148929   4.666   0.255  12.231 -0.7853  0.0077 -1.2243
 9146TIP3    H248930   4.759   0.145  12.278 -2.7727 -1.3233 -0.2774
 9147TIP3   OH248931   3.753   4.161  12.751 -0.0508 -0.0450 -0.0163
 9147TIP3    H148932   3.682   4.225  12.748  0.4634  0.5576  0.3906
 9147TIP3    H248933   3.728   4.094  12.688  0.3164  1.5039 -1.9072
 9148TIP3   OH248934   0.189   0.990   3.988  0.8243  0.1549  0.6414
 9148TIP3    H148935   0.219   0.994   3.897 -2.5517  0.0458 -0.6350
 9148TIP3    H248936   0.162   0.898   3.999 -0.6627  0.6171  1.0273
 9149TIP3   OH248937   1.432   6.812  11.301  0.4910 -0.8523 -0.0679
 9149TIP3    H148938   1.406   6.826  11.210 -1.8968  1.4005  0.8315
 9149TIP3    H248939   1.360   6.763  11.339  1.0267 -0.9677  0.8253
 9150TIP3   OH248940   1.436   1.827  12.010  0.1866  0.3817  0.5480
 9150TIP3    H148941   1.394   1.881  12.077 -0.6882 -0.8822  1.0546
 9150TIP3    H248942   1.511   1.787  12.055  0.3328  0.4953  0.4105
 9151TIP3   OH248943   0.072   5.292   0.959 -0.5821 -0.9755 -0.2059
 9151TIP3    H148944   0.052   5.355   1.028  1.2385 -0.9387  0.3368
 9151TIP3    H248945   0.008   5.311   0.890 -0.1323  1.4357 -0.0418
 9152TIP3   OH248946   2.878   6.313   0.141 -0.1365  0.5846 -0.3890
 9152TIP3    H148947   2.850   6.322   0.232 -0.3845  2.2601 -0.5958
 9152TIP3    H248948   2.809   6.356   0.091  0.3475  0.2983 -1.3206
 9153TIP3   OH248949   5.060   6.514  12.790 -0.4601 -0.1571 -0.5342
 9153TIP3    H148950   5.043   6.585  12.729 -2.5252 -0.4607 -0.3750
 9153TIP3    H248951   5.133   6.545  12.844  1.0407  0.3500 -2.7204
 9154TIP3   OH248952   2.182   0.579   5.289  0.4706  0.0148  0.3789
 9154TIP3    H148953   2.138   0.577   5.374  0.0529  1.2384  0.2026
 9154TIP3    H248954   2.119   0.618   5.229  1.2705  0.4593 -0.2010
 9155TIP3   OH248955   4.394   5.767  17.102 -0.1881  0.2105 -0.1242
 9155TIP3    H148956   4.337   5.795  17.174  1.1268  0.3688  0.8948
 9155TIP3    H248957   4.413   5.675  17.120 -0.8943 -0.1256 -1.0098
 9156TIP3   OH248958   3.872   0.389   1.490  0.1244 -0.1750  0.3845
 9156TIP3    H148959   3.902   0.346   1.410 -0.5362  0.3169 -0.1394
 9156TIP3    H248960   3.796   0.336   1.517  0.3146 -0.3084  0.6567
 9157TIP3   OH248961   3.400   4.461  16.570  0.7424  0.1048  0.2826
 9157TIP3    H148962   3.394   4.511  16.651  1.7370  0.9991 -0.1717
 9157TIP3    H248963   3.464   4.392  16.589 -1.0756 -1.4495  1.1011
 9158TIP3   OH248964   0.079   0.091  16.912 -0.0517  0.2894 -0.3287
 9158TIP3    H148965   0.162   0.050  16.889  0.4082  0.5976  0.7206
 9158TIP3    H248966   0.031   0.021  16.958  0.3380  0.6113  0.5931
 9159TIP3   OH248967   2.810   3.459  12.372 -0.5211  0.5375  0.0372
 9159TIP3    H148968   2.897   3.499  12.376 -0.6278  0.8553 -0.8216
 9159TIP3    H248969   2.809   3.410  12.290  0.1495 -2.5227  1.6716
 9160TIP3   OH248970   3.228   5.659  17.166 -0.2774 -0.4572 -0.3513
 9160TIP3    H148971   3.228   5.751  17.193  0.8877 -0.8444  1.1765
 9160TIP3    H248972   3.283   5.657  17.088 -0.5870  0.1858 -0.5919
 9161TIP3   OH248973   5.584   5.086   2.567 -0.4556  0.1359  0.3803
 9161TIP3    H148974   5.654   5.150   2.551  0.7964 -1.3735 -0.5256
 9161TIP3    H248975   5.503   5.135   2.555  0.4483  1.6717  0.2464
 9162TIP3   OH248976   3.431   3.274  15.672  0.0336  0.1014 -0.4651
 9162TIP3    H148977   3.480   3.352  15.647 -0.2338  0.3479 -0.2277
 9162TIP3    H248978   3.341   3.294  15.650 -0.2281  0.3614  0.7485
 9163TIP3   OH248979   0.399   0.474   1.820 -0.0745  0.3695 -0.0815
 9163TIP3    H148980   0.460   0.412   1.859 -1.3793 -0.6420  0.4264
 9163TIP3    H248981   0.453   0.526   1.759  0.9282 -1.7853 -1.1329
 9164TIP3   OH248982   4.242   2.841  16.457  0.3654 -0.1686 -0.3316
 9164TIP3    H148983   4.243   2.891  16.375 -1.4519 -0.1944 -0.4181
 9164TIP3    H248984   4.253   2.750  16.430 -0.5198 -0.2059 -0.5934
 9165TIP3   OH248985   3.706   2.728  11.124  0.4761 -0.4607 -0.0255
 9165TIP3    H148986   3.643   2.729  11.052  0.3235  1.2087  0.0913
 9165TIP3    H248987   3.791   2.720  11.081  0.5344  2.4211 -0.5904
 9166TIP3   OH248988   2.424   3.092  16.807  0.2031  0.0190 -0.1718
 9166TIP3    H148989   2.490   3.123  16.745  0.1395 -0.1566 -0.3288
 9166TIP3    H248990   2.392   3.010  16.769 -0.8494  0.6127 -0.6219
 9167TIP3   OH248991   2.122   2.194  16.308 -0.4451 -0.6437  0.0629
 9167TIP3    H148992   2.039   2.181  16.262  0.1047 -0.3787 -1.0311
 9167TIP3    H248993   2.142   2.287  16.297 -0.1342 -0.6495  0.5512
 9168TIP3   OH248994   1.375   0.231   1.200  0.9839 -0.1244 -0.0495
 9168TIP3    H148995   1.321   0.279   1.136 -1.7775  1.0073  2.8406
 9168TIP3    H248996   1.371   0.140   1.171 -2.7545 -0.1242 -0.0025
 9169TIP3   OH248997   4.746   0.639  15.593  0.1270 -0.3734  0.6651
 9169TIP3    H148998   4.740   0.640  15.688  0.1981 -2.7103  0.7535
 9169TIP3    H248999   4.804   0.565  15.573  0.6544  0.4636 -1.1809
 9170TIP3   OH249000   6.806   5.978  14.763  0.0047 -0.4324  0.0230
 9170TIP3    H149001   6.880   5.960  14.821  0.8866  1.3745 -0.4707
 9170TIP3    H249002   6.729   5.952  14.814  0.7723  0.8336  1.9252
 9171TIP3   OH249003   6.059   5.268   3.196 -0.1644  0.4515  0.2915
 9171TIP3    H149004   6.025   5.333   3.257  0.0442  0.8792 -0.0506
 9171TIP3    H249005   5.997   5.270   3.122 -0.2741  0.1163  0.3718
 9172TIP3   OH249006   6.355   1.804  16.180 -1.0042  0.4798 -0.4316
 9172TIP3    H149007   6.262   1.786  16.190 -0.6802 -0.9390  0.2399
 9172TIP3    H249008   6.397   1.718  16.175  0.3439  1.0715 -0.0020
 9173TIP3   OH249009   4.624   1.902   3.939 -0.0728  0.8912 -0.2860
 9173TIP3    H149010   4.635   1.967   4.009 -0.4842  0.3515  0.2992
 9173TIP3    H249011   4.666   1.941   3.863  0.7662  1.3112  0.3716
 9174TIP3   OH249012   5.741   1.931  12.205  0.8953  0.1826 -0.2835
 9174TIP3    H149013   5.820   1.893  12.168 -0.6624 -2.0160 -1.5996
 9174TIP3    H249014   5.712   1.868  12.271 -0.0358  0.7002 -0.1740
 9175TIP3   OH249015   3.056   1.834  15.689  0.0336 -0.0267  0.1053
 9175TIP3    H149016   3.028   1.749  15.657 -0.2940  0.0776  0.1120
 9175TIP3    H249017   3.079   1.883  15.610 -1.6528  0.5459 -0.0669
 9176TIP3   OH249018   0.903   1.119   3.644  0.1925 -0.2798 -0.2226
 9176TIP3    H149019   0.959   1.070   3.585  1.8345  0.5453  0.5983
 9176TIP3    H249020   0.903   1.209   3.609 -2.4669 -0.6495 -1.4916
 9177TIP3   OH249021   2.532   0.295   4.601 -0.1576 -0.2720  0.6034
 9177TIP3    H149022   2.458   0.256   4.556 -0.0652 -0.8665  0.9538
 9177TIP3    H249023   2.606   0.238   4.581  0.5093  1.0027 -0.7832
 9178TIP3   OH249024   1.242   1.858   3.151  0.3707 -0.3217  0.0783
 9178TIP3    H149025   1.265   1.951   3.153  0.6319 -0.3874  0.1030
 9178TIP3    H249026   1.321   1.813   3.179  0.5702 -0.6135 -0.9211
 9179TIP3   OH249027   5.232   2.282   3.103 -0.2283  0.8309 -0.6742
 9179TIP3    H149028   5.272   2.229   3.172  0.1244  1.1413 -0.6408
 9179TIP3    H249029   5.146   2.306   3.139  0.1843  1.4853 -0.0903
 9180TIP3   OH249030   3.435   5.895   2.900 -1.0482 -0.3800  0.3620
 9180TIP3    H149031   3.530   5.887   2.892 -0.9670  1.2690 -0.6978
 9180TIP3    H249032   3.410   5.825   2.960  1.1886  0.9389  3.0281
 9181TIP3   OH249033   0.546   2.663  13.224 -0.1830  0.7740  0.0477
 9181TIP3    H149034   0.473   2.695  13.278 -0.3799  1.5692 -0.6676
 9181TIP3    H249035   0.596   2.606  13.283 -1.4841  0.0576  0.4949
 9182TIP3   OH249036   2.663   3.238  17.130 -0.5387 -0.2906 -0.4264
 9182TIP3    H149037   2.607   3.202  17.199 -1.4534  1.0675 -0.4148
 9182TIP3    H249038   2.601   3.272  17.065  0.2389  1.3717 -0.3498
 9183TIP3   OH249039   2.651   5.440   1.001  0.1084 -0.0640  0.1005
 9183TIP3    H149040   2.651   5.518   1.057  0.1148 -0.2774  0.4046
 9183TIP3    H249041   2.721   5.385   1.037  0.9831  0.3447 -0.9137
 9184TIP3   OH249042   0.974   5.052  11.477  0.0268 -0.1572  0.0172
 9184TIP3    H149043   1.048   5.106  11.504  0.0514 -0.1438 -0.0778
 9184TIP3    H249044   0.914   5.056  11.551 -1.2218  2.2066 -1.0282
 9185TIP3   OH249045   2.401   3.286  12.532  0.0577 -0.7148  0.4252
 9185TIP3    H149046   2.322   3.262  12.484  0.2215 -0.4577  0.0259
 9185TIP3    H249047   2.421   3.209  12.585 -0.7659 -0.5834  0.9354
 9186TIP3   OH249048   6.636   6.326  13.733 -0.3546  0.8126 -0.3514
 9186TIP3    H149049   6.677   6.326  13.820 -0.2188 -2.0728 -0.3077
 9186TIP3    H249050   6.542   6.334  13.751 -0.6376 -2.5465  0.4407
 9187TIP3   OH249051   0.707   6.395   3.811 -0.0963  0.3050 -0.4305
 9187TIP3    H149052   0.641   6.347   3.862 -1.3566  0.7967 -1.5563
 9187TIP3    H249053   0.790   6.362   3.845 -0.8851 -0.1930  1.1701
 9188TIP3   OH249054   3.010   3.847  11.612 -0.1768  0.1821 -0.2873
 9188TIP3    H149055   3.096   3.874  11.645  0.1347  0.0631 -0.9897
 9188TIP3    H249056   3.017   3.853  11.517 -0.7283 -0.4792 -0.3849
 9189TIP3   OH249057   4.874   6.739   5.635 -0.5318 -0.5636  0.8375
 9189TIP3    H149058   4.788   6.715   5.667 -0.5565  0.5931  1.7221
 9189TIP3    H249059   4.917   6.656   5.615 -2.2856 -1.1280 -0.8682
 9190TIP3   OH249060   4.604   1.223   1.090  0.0400 -0.1451  0.4171
 9190TIP3    H149061   4.589   1.232   1.183 -0.5570 -0.5517  0.3629
 9190TIP3    H249062   4.562   1.140   1.066  0.5956 -0.2849 -0.1215
 9191TIP3   OH249063   3.048   0.860  12.723  0.4126  0.5571  0.3954
 9191TIP3    H149064   3.097   0.847  12.642  0.5190 -0.2039  0.5816
 9191TIP3    H249065   3.110   0.903  12.782  0.3017  1.2163  0.0502
 9192TIP3   OH249066   5.937   4.803  15.614 -0.1657  0.5464 -0.3986
 9192TIP3    H149067   5.992   4.724  15.608 -1.5229 -0.5400  0.7817
 9192TIP3    H249068   5.856   4.778  15.571  0.5980  2.5733 -3.3290
 9193TIP3   OH249069   6.229   4.260   4.790  0.2771 -0.2725  0.4253
 9193TIP3    H149070   6.235   4.166   4.773  1.6968 -0.4705  1.7696
 9193TIP3    H249071   6.137   4.274   4.814  0.3520 -1.6032  1.6385
 9194TIP3   OH249072   0.820   5.757  13.766 -0.5472  0.4643 -0.5091
 9194TIP3    H149073   0.891   5.692  13.767 -0.8080  0.1678 -0.9465
 9194TIP3    H249074   0.831   5.803  13.683 -1.1767  0.0627 -0.8269
 9195TIP3   OH249075   3.486   6.590  16.345 -0.2956 -0.0267  0.3319
 9195TIP3    H149076   3.517   6.573  16.256  0.3107 -2.5478  0.9751
 9195TIP3    H249077   3.420   6.523  16.361 -0.1641  0.1816  1.8946
 9196TIP3   OH249078   6.734   2.076   5.132 -0.3409 -0.5869  0.1336
 9196TIP3    H149079   6.792   2.066   5.056  2.2544  3.6530  1.1927
 9196TIP3    H249080   6.789   2.053   5.207 -0.8837  0.8908  1.0236
 9197TIP3   OH249081   6.380   1.603  16.600 -0.4341  0.4154 -0.3438
 9197TIP3    H149082   6.314   1.647  16.653  0.5885  0.8142  0.6370
 9197TIP3    H249083   6.455   1.593  16.658 -0.1654 -1.4666 -0.9440
 9198TIP3   OH249084   4.285   1.654   2.627 -0.9511 -0.0739 -0.6650
 9198TIP3    H149085   4.250   1.570   2.656 -0.2401  0.2031  1.1597
 9198TIP3    H249086   4.209   1.713   2.632 -0.8883 -0.0597  0.6596
 9199TIP3   OH249087   1.476   3.617   5.211  0.6507  0.5824  0.1883
 9199TIP3    H149088   1.493   3.617   5.305 -0.1111 -1.0014  0.3560
 9199TIP3    H249089   1.413   3.546   5.198  1.1625  0.4080 -1.5871
 9200TIP3   OH249090   0.200   1.797   0.411 -0.1850 -0.2033 -0.4096
 9200TIP3    H149091   0.272   1.759   0.461 -0.2375 -0.6917 -0.6927
 9200TIP3    H249092   0.237   1.873   0.367  0.1192 -0.3675 -0.4372
 9201TIP3   OH249093   3.224   3.910  10.427  0.3266  0.0597 -0.7040
 9201TIP3    H149094   3.286   3.983  10.422  1.3233 -0.3618  2.9075
 9201TIP3    H249095   3.139   3.951  10.442  1.0053  0.6132  2.1850
 9202TIP3   OH249096   3.902   2.985   6.128 -0.3590  0.0718  0.4765
 9202TIP3    H149097   3.840   2.963   6.198  0.9739  1.3173  2.1487
 9202TIP3    H249098   3.903   3.081   6.126  0.7131  0.0616 -0.2446
 9203TIP3   OH249099   3.641   0.365   5.012  0.3619 -0.7777  0.2621
 9203TIP3    H149100   3.648   0.352   4.917  0.8659 -1.2040  0.3559
 9203TIP3    H249101   3.730   0.354   5.044 -0.0543 -2.2755  0.9886
 9204TIP3   OH249102   1.999   2.820   0.221 -0.0824  0.2648 -0.0187
 9204TIP3    H149103   2.016   2.738   0.174 -0.2443  1.0245 -1.4507
 9204TIP3    H249104   1.912   2.807   0.260 -0.3321 -0.0719 -0.6613
 9205TIP3   OH249105   5.190   4.051  16.612  0.0798  0.1414  0.1090
 9205TIP3    H149106   5.261   3.994  16.582 -0.5963 -1.0525  0.6799
 9205TIP3    H249107   5.233   4.132  16.639  1.0493 -0.0205 -0.9060
 9206TIP3   OH249108   0.178   3.222   2.099  0.1827 -0.5571 -0.7574
 9206TIP3    H149109   0.158   3.135   2.065 -2.1721 -0.0382 -0.8884
 9206TIP3    H249110   0.162   3.281   2.025  0.8159  0.0851 -0.4040
 9207TIP3   OH249111   4.636   2.136   5.017 -0.1760 -0.2698 -0.5633
 9207TIP3    H149112   4.591   2.133   5.101  0.3847 -0.8763 -0.2742
 9207TIP3    H249113   4.605   2.216   4.976  0.8989  1.0040  0.9884
 9208TIP3   OH249114   5.416   0.238  11.650  0.3103 -0.2100  0.2692
 9208TIP3    H149115   5.339   0.188  11.678  2.1851 -2.5988  1.6077
 9208TIP3    H249116   5.403   0.325  11.688 -0.4779 -1.3709  2.8898
 9209TIP3   OH249117   2.520   6.632   0.028  0.2151 -0.4989  0.4850
 9209TIP3    H149118   2.487   6.662   0.113  1.6334  0.7386  0.6424
 9209TIP3    H249119   2.579   6.701  -0.001  2.5604 -2.4760  0.1777
 9210TIP3   OH249120   5.184   1.893  14.994  0.3767 -0.6037  0.2825
 9210TIP3    H149121   5.189   1.876  14.900 -0.0637  0.6423  0.0257
 9210TIP3    H249122   5.267   1.936  15.016  1.0501 -2.0611  0.7385
 9211TIP3   OH249123   6.708   0.884   3.769 -0.5090 -0.7083  0.4198
 9211TIP3    H149124   6.787   0.865   3.718 -0.9067 -0.1987 -0.3964
 9211TIP3    H249125   6.686   0.975   3.747 -1.2759 -0.8152  0.7106
 9212TIP3   OH249126   0.540   1.864   5.709 -0.0726 -0.1227 -0.1554
 9212TIP3    H149127   0.560   1.940   5.764 -0.5771  0.1863 -0.3908
 9212TIP3    H249128   0.541   1.899   5.620  2.1285 -0.8906 -0.5111
 9213TIP3   OH249129   6.134   3.767  10.864  0.6229  0.2189  0.2698
 9213TIP3    H149130   6.042   3.750  10.886  0.1601  0.0250 -1.6362
 9213TIP3    H249131   6.153   3.850  10.907 -0.9981  1.1374 -0.6785
 9214TIP3   OH249132   1.544   4.713  13.909 -0.0829 -0.3890  0.5523
 9214TIP3    H149133   1.492   4.707  13.828 -0.1136  0.7182  0.4729
 9214TIP3    H249134   1.479   4.731  13.977  0.1888  1.1947  0.4241
 9215TIP3   OH249135   5.573   6.164  16.117  0.4902  0.6913 -0.2858
 9215TIP3    H149136   5.528   6.111  16.052 -1.2184  3.4821 -1.5437
 9215TIP3    H249137   5.517   6.160  16.195  2.2997 -2.2671  1.0313
 9216TIP3   OH249138   6.238   0.529   1.945  0.1888  0.0736 -0.2370
 9216TIP3    H149139   6.193   0.476   2.011  0.8092 -0.2643 -0.0710
 9216TIP3    H249140   6.186   0.518   1.865  0.4465 -1.0117 -0.2746
 9217TIP3   OH249141   6.360   1.261  13.139  0.0736  0.5350 -0.1704
 9217TIP3    H149142   6.337   1.211  13.218  0.3347 -0.4352 -0.6892
 9217TIP3    H249143   6.455   1.254  13.133 -0.0437 -0.5718 -1.2954
 9218TIP3   OH249144   4.824   1.172   3.880  0.1406 -0.3047 -0.0263
 9218TIP3    H149145   4.894   1.132   3.830 -0.3398  1.1457 -1.9978
 9218TIP3    H249146   4.860   1.184   3.968  0.7105 -3.7328  0.3269
 9219TIP3   OH249147   3.239   1.533   3.999  0.4301 -0.2825  0.1278
 9219TIP3    H149148   3.311   1.596   4.003 -0.0356  0.4399 -1.6091
 9219TIP3    H249149   3.166   1.576   4.045  0.6353 -0.3173  0.4854
 9220TIP3   OH249150   1.229   6.115  12.537  0.0475 -0.4635  0.9483
 9220TIP3    H149151   1.252   6.055  12.467 -1.1518  0.2558 -0.0943
 9220TIP3    H249152   1.299   6.180  12.538 -0.2288 -0.1451  0.0125
 9221TIP3   OH249153   0.508   6.787  11.988  0.1401  0.0973 -0.2297
 9221TIP3    H149154   0.419   6.788  12.021 -0.0589 -0.0782 -0.7527
 9221TIP3    H249155   0.506   6.847  11.913  0.6376  0.6739  0.1984
 9222TIP3   OH249156   2.650   1.334  13.121  0.4653 -0.2607  0.0592
 9222TIP3    H149157   2.582   1.268  13.133  0.3832 -0.2736 -0.4672
 9222TIP3    H249158   2.642   1.391  13.197 -0.1389 -0.2572 -0.0052
 9223TIP3   OH249159   3.609   2.233  13.569 -0.1238  0.7896 -0.4019
 9223TIP3    H149160   3.656   2.313  13.546 -1.8057  1.8179 -0.3718
 9223TIP3    H249161   3.568   2.205  13.487 -2.0298  1.6807  0.2096
 9224TIP3   OH249162   2.706   4.838  12.880  0.3669  0.6831 -0.3358
 9224TIP3    H149163   2.653   4.904  12.925  1.6475  1.5365 -0.0210
 9224TIP3    H249164   2.793   4.845  12.921  1.0493  0.1590 -1.6357
 9225TIP3   OH249165   4.211   5.196   0.955  0.5448  0.0862  0.5978
 9225TIP3    H149166   4.272   5.260   0.991  0.0016  0.1103  1.5038
 9225TIP3    H249167   4.159   5.167   1.030 -1.5917  1.1749 -0.3786
 9226TIP3   OH249168   4.956   2.614  13.985  0.1659 -0.2719  0.2287
 9226TIP3    H149169   4.900   2.585  14.057 -0.2386  0.6956  0.3194
 9226TIP3    H249170   5.006   2.536  13.961 -0.0686 -0.7445  1.2069
 9227TIP3   OH249171   3.470   0.992  16.711  0.5273 -0.6046 -0.3711
 9227TIP3    H149172   3.412   1.065  16.731  0.9505 -0.5309  0.6233
 9227TIP3    H249173   3.467   0.985  16.615 -2.1468 -1.4833 -0.3055
 9228TIP3   OH249174   3.678   1.866   5.876  0.2682  0.1088  0.2709
 9228TIP3    H149175   3.650   1.794   5.819 -1.8778  0.2979  1.0136
 9228TIP3    H249176   3.754   1.832   5.923  1.3480 -0.4680 -1.7875
 9229TIP3   OH249177   1.675   5.105   5.680 -0.2098  0.4176 -0.2105
 9229TIP3    H149178   1.644   5.151   5.601 -0.5108 -0.1975 -0.4544
 9229TIP3    H249179   1.698   5.018   5.649 -0.6438  0.0616  0.4458
 9230TIP3   OH249180   4.691   2.862  12.727  0.2750  0.5338 -0.3592
 9230TIP3    H149181   4.689   2.957  12.718  0.9920  0.5963  0.0872
 9230TIP3    H249182   4.748   2.846  12.802 -0.9188 -0.1999  0.4151
 9231TIP3   OH249183   3.191   2.061  14.593 -0.0804 -0.2150  0.2558
 9231TIP3    H149184   3.261   2.064  14.659 -0.1549 -2.5570  0.5518
 9231TIP3    H249185   3.237   2.048  14.510 -0.0888  0.4378  0.1438
 9232TIP3   OH249186   5.382   3.887   3.447 -0.3049  0.2199  0.0809
 9232TIP3    H149187   5.376   3.874   3.542 -2.4508 -1.5544 -0.2043
 9232TIP3    H249188   5.387   3.982   3.436 -1.1462  0.5247  1.9438
 9233TIP3   OH249189   1.882   3.119   4.517 -0.0889  0.4192 -0.1095
 9233TIP3    H149190   1.951   3.146   4.455 -0.7481 -1.1519 -1.6098
 9233TIP3    H249191   1.929   3.096   4.597  1.3652 -1.9324 -1.5310
 9234TIP3   OH249192   4.638   3.471  11.590  0.0403  0.2471  0.0749
 9234TIP3    H149193   4.558   3.486  11.541  1.4973  1.0249 -2.2341
 9234TIP3    H249194   4.662   3.380  11.572 -0.3353 -0.0028  0.8089
 9235TIP3   OH249195   1.252   6.011  15.286  0.3096 -0.5447  0.3453
 9235TIP3    H149196   1.200   6.073  15.337 -0.5489 -0.7140 -0.3163
 9235TIP3    H249197   1.232   6.032  15.195 -1.3134 -2.8403  0.0819
 9236TIP3   OH249198   1.913   0.814  14.495 -0.6589 -0.7478 -0.1153
 9236TIP3    H149199   1.901   0.721  14.512  0.0213 -1.0666 -1.2955
 9236TIP3    H249200   1.827   0.845  14.467 -1.5431 -0.4367  2.6215
 9237TIP3   OH249201   0.776   1.365   4.034 -0.0567 -0.5042 -0.7091
 9237TIP3    H149202   0.809   1.455   4.038 -0.4338 -0.3704 -0.5028
 9237TIP3    H249203   0.729   1.360   3.951 -0.3121 -0.4117 -0.5709
 9238TIP3   OH249204   0.907   1.634  14.692 -0.0453 -0.5183 -0.6174
 9238TIP3    H149205   0.981   1.619  14.634  0.6148  3.7242 -1.1533
 9238TIP3    H249206   0.945   1.672  14.771 -1.5040  0.0384 -0.1352
 9239TIP3   OH249207   5.412   6.545  10.668  0.1941  0.1228 -0.3294
 9239TIP3    H149208   5.344   6.608  10.693  1.8412  2.4850 -1.3884
 9239TIP3    H249209   5.367   6.462  10.661 -2.8480  1.7431 -1.9868
 9240TIP3   OH249210   0.440   0.331  15.957  0.1004 -0.2960  0.3370
 9240TIP3    H149211   0.426   0.385  15.879 -0.4613 -0.9717 -0.0439
 9240TIP3    H249212   0.364   0.273  15.960  1.9136 -2.9492 -0.8280
 9241TIP3   OH249213   2.244   5.069  11.741  0.5193  0.0053  0.3292
 9241TIP3    H149214   2.238   5.016  11.820  0.9005  0.3266  0.5804
 9241TIP3    H249215   2.197   5.150  11.763 -0.6605 -0.4904 -0.2874
 9242TIP3   OH249216   0.159   1.090  15.352  0.2090  0.1391 -0.4373
 9242TIP3    H149217   0.230   1.152  15.367 -0.9739  1.6776 -1.0123
 9242TIP3    H249218   0.135   1.059  15.439  0.6098  0.7149 -0.1138
 9243TIP3   OH249219   3.070   3.365  15.285 -0.0928 -0.4450  0.3637
 9243TIP3    H149220   3.000   3.406  15.234 -1.4668 -1.1946  1.5622
 9243TIP3    H249221   3.031   3.284  15.317  2.3570 -2.5237 -1.5109
 9244TIP3   OH249222   1.459   4.443   1.110 -0.4023  0.3598 -0.0206
 9244TIP3    H149223   1.413   4.426   1.028  0.3742  0.8511 -0.5685
 9244TIP3    H249224   1.460   4.538   1.118 -0.4268  0.3155  0.5389
 9245TIP3   OH249225   4.438   4.805   0.551 -0.3821  0.6647  0.5535
 9245TIP3    H149226   4.433   4.851   0.634  1.1773 -0.1026  1.1141
 9245TIP3    H249227   4.496   4.859   0.497 -0.0374  0.3106  0.5644
 9246TIP3   OH249228   5.415   5.455  13.549  0.4289 -0.1702  0.0466
 9246TIP3    H149229   5.391   5.526  13.490  0.3099  1.0564  1.4953
 9246TIP3    H249230   5.438   5.382  13.492  0.1443  0.8969 -1.4821
 9247TIP3   OH249231   4.468   3.599   1.661  0.4945  0.3833 -0.7331
 9247TIP3    H149232   4.551   3.552   1.659 -0.1183 -0.8619  0.7736
 9247TIP3    H249233   4.472   3.652   1.741  0.4126  1.4381 -1.4181
 9248TIP3   OH249234   2.307   4.497  15.863  0.1303  0.2199  0.0057
 9248TIP3    H149235   2.365   4.447  15.921 -1.5408  0.1695  1.7433
 9248TIP3    H249236   2.254   4.430  15.819  1.4637  0.2526 -1.7478
 9249TIP3   OH249237   1.770   1.766  12.937  0.0208  0.1184  0.4538
 9249TIP3    H149238   1.838   1.797  12.998 -0.0692 -0.0731  0.6538
 9249TIP3    H249239   1.770   1.830  12.866  1.6579 -0.8123 -0.4575
 9250TIP3   OH249240   5.368   0.626  14.423 -0.1688 -0.6345 -0.9761
 9250TIP3    H149241   5.453   0.639  14.464 -0.2942 -0.7526 -0.6726
 9250TIP3    H249242   5.361   0.697  14.359  0.2002 -0.6875 -1.0739
 9251TIP3   OH249243   6.522   1.447  16.804 -0.1264  0.4676  0.1553
 9251TIP3    H149244   6.613   1.467  16.826  0.2321 -1.7153  0.8925
 9251TIP3    H249245   6.476   1.452  16.888 -0.2798 -0.3612  0.1267
 9252TIP3   OH249246   5.122   3.283  10.637 -0.1220 -0.2378  0.2522
 9252TIP3    H149247   5.032   3.251  10.645  0.0630 -0.3810  2.0164
 9252TIP3    H249248   5.164   3.221  10.578 -0.3511 -2.0656  1.9164
 9253TIP3   OH249249   3.247   0.971   3.153  0.0331  0.3554  0.4851
 9253TIP3    H149250   3.239   0.914   3.230 -0.0223  1.0148  0.9779
 9253TIP3    H249251   3.338   0.960   3.125 -0.0577 -0.1957  0.4001
 9254TIP3   OH249252   2.193   5.697   5.525 -0.0732  0.0910 -0.7232
 9254TIP3    H149253   2.167   5.779   5.567 -0.1446 -0.0746 -0.4480
 9254TIP3    H249254   2.274   5.719   5.479  0.8847 -0.1262  0.7956
 9255TIP3   OH249255   2.223   3.077  12.024  0.1488  0.1981 -0.0937
 9255TIP3    H149256   2.294   3.134  12.052 -0.9186  1.3166  0.3990
 9255TIP3    H249257   2.146   3.133  12.022 -0.8036 -1.0667 -0.2741
 9256TIP3   OH249258   3.201   6.796   3.280 -0.6595  0.3202  0.0225
 9256TIP3    H149259   3.138   6.777   3.349  0.3023 -0.5721  0.6871
 9256TIP3    H249260   3.150   6.838   3.211 -2.0232 -0.6451  0.4152
 9257TIP3   OH249261   0.641   4.760   4.035  0.1701 -0.4241 -0.6634
 9257TIP3    H149262   0.554   4.738   4.003 -0.2128  0.7003 -0.4283
 9257TIP3    H249263   0.626   4.809   4.116  1.0142 -0.2684 -0.5896
 9258TIP3   OH249264   3.476   5.572   1.255  0.3022  0.3051  0.0617
 9258TIP3    H149265   3.483   5.491   1.204 -0.0175  1.0561 -1.2140
 9258TIP3    H249266   3.410   5.552   1.322  1.1112 -0.8675  0.5457
 9259TIP3   OH249267   3.278   2.765  14.634  0.6253  0.5682  0.2730
 9259TIP3    H149268   3.183   2.778  14.635  0.6559  0.7817  1.0900
 9259TIP3    H249269   3.311   2.824  14.703  1.3865  0.7844 -0.2580
 9260TIP3   OH249270   3.271   2.525  12.342 -0.2356 -0.2197 -0.3100
 9260TIP3    H149271   3.254   2.437  12.308  1.0199 -0.3667 -0.5730
 9260TIP3    H249272   3.281   2.579  12.264  4.1096 -0.8188 -0.3855
 9261TIP3   OH249273   6.605   4.925   2.907 -0.4007 -0.1202 -0.2941
 9261TIP3    H149274   6.644   4.972   2.981  0.2865 -0.3169 -0.5256
 9261TIP3    H249275   6.535   4.983   2.876  0.0226  0.4607 -0.1781
 9262TIP3   OH249276   1.815   1.185  11.874  0.5350 -0.0687 -0.7934
 9262TIP3    H149277   1.855   1.111  11.827 -1.7999 -0.9042 -1.6095
 9262TIP3    H249278   1.725   1.186  11.844  0.0039  1.9559  0.6830
 9263TIP3   OH249279   5.811   2.994  16.507 -0.8556  0.3930  0.3627
 9263TIP3    H149280   5.876   2.963  16.570  0.0577 -1.3025 -1.3298
 9263TIP3    H249281   5.727   2.982  16.552 -0.2938 -1.5125  1.0227
 9264TIP3   OH249282   3.820   6.197   5.091 -0.7416 -0.6634  0.6367
 9264TIP3    H149283   3.729   6.201   5.065 -0.6405  0.4371  0.3884
 9264TIP3    H249284   3.828   6.264   5.160 -0.5854 -2.1949  2.1849
 9265TIP3   OH249285   6.597   2.558  10.935  0.4795  0.4596 -0.6247
 9265TIP3    H149286   6.613   2.525  10.846  1.4042 -1.8848  0.3199
 9265TIP3    H249287   6.505   2.538  10.952  0.4050  0.5551 -0.9140
 9266TIP3   OH249288   5.671   2.550  15.954 -0.5791 -0.3195  0.4062
 9266TIP3    H149289   5.601   2.491  15.981 -0.2687 -0.0741  1.7875
 9266TIP3    H249290   5.628   2.635  15.942 -0.5926 -0.2536  0.8940
 9267TIP3   OH249291   0.525   1.638  15.205 -0.3354 -0.2664  0.1143
 9267TIP3    H149292   0.572   1.569  15.253  0.0555  0.0802  0.2354
 9267TIP3    H249293   0.529   1.612  15.114 -0.3832 -0.5206  0.1852
 9268TIP3   OH249294   4.179   5.641  15.455 -0.2973  0.4620 -0.1791
 9268TIP3    H149295   4.242   5.698  15.410 -0.3482  0.5968 -0.0815
 9268TIP3    H249296   4.110   5.625  15.390  0.0060  0.0341 -0.4000
 9269TIP3   OH249297   0.104   2.495  15.023  0.1969 -0.4126 -0.3744
 9269TIP3    H149298   0.061   2.416  14.991 -3.0303  0.5614  1.1353
 9269TIP3    H249299   0.055   2.519  15.102  1.5544  2.6528 -0.3188
 9270TIP3   OH249300   0.346   2.670  12.717  0.0670 -0.5623  0.4435
 9270TIP3    H149301   0.428   2.706  12.683 -0.1924 -0.9456 -0.6231
 9270TIP3    H249302   0.363   2.653  12.810  0.9006  0.1965  0.4358
 9271TIP3   OH249303   5.618   4.446  15.170 -0.0582 -0.0511 -0.0542
 9271TIP3    H149304   5.550   4.403  15.221  1.0220  0.0347  1.5046
 9271TIP3    H249305   5.585   4.535  15.156  0.4466  0.5507  2.2186
 9272TIP3   OH249306   5.077   4.617  16.388  0.1525  0.0921  0.1619
 9272TIP3    H149307   5.162   4.645  16.424  0.8669 -0.0166 -1.3532
 9272TIP3    H249308   5.098   4.542  16.333 -0.8881  0.2495 -0.4735
 9273TIP3   OH249309   4.910   6.162  16.652 -0.0458 -0.3916  0.5526
 9273TIP3    H149310   4.973   6.228  16.681  0.2878 -0.3782 -0.1792
 9273TIP3    H249311   4.829   6.212  16.637 -0.5741 -0.5797  2.5387
 9274TIP3   OH249312   0.628   5.126   1.557 -0.0271 -0.5040  0.3885
 9274TIP3    H149313   0.595   5.146   1.469  0.3628  0.5399  0.4590
 9274TIP3    H249314   0.720   5.151   1.555 -0.8736  3.7990  2.2466
 9275TIP3   OH249315   5.988   6.351   3.551 -0.7775  0.4723  0.1013
 9275TIP3    H149316   5.931   6.345   3.474  0.0322  1.2905 -0.5761
 9275TIP3    H249317   5.930   6.332   3.625 -1.7975  0.6750 -0.6282
 9276TIP3   OH249318   0.960   1.429   6.069  0.3140 -0.3799 -0.0441
 9276TIP3    H149319   0.870   1.455   6.050  0.8603  1.3721 -0.4498
 9276TIP3    H249320   1.013   1.497   6.027  1.7781 -0.4503  1.6101
 9277TIP3   OH249321   4.577   1.467   3.169 -0.5643 -0.1636  0.8472
 9277TIP3    H149322   4.616   1.383   3.143 -0.7161  0.4627 -1.6048
 9277TIP3    H249323   4.629   1.495   3.245 -0.5645 -2.4699  1.7926
 9278TIP3   OH249324   0.307   5.716   2.367 -0.2881  0.0224  0.4947
 9278TIP3    H149325   0.223   5.736   2.409 -1.1503  1.2248 -1.6745
 9278TIP3    H249326   0.367   5.783   2.401 -0.6299  0.2041  0.7566
 9279TIP3   OH249327   2.976   0.737   0.212  0.0985 -0.1237 -0.6550
 9279TIP3    H149328   2.930   0.726   0.129 -0.4147 -0.9789 -0.2709
 9279TIP3    H249329   2.937   0.814   0.251  1.0331  0.8884 -1.6384
 9280TIP3   OH249330   6.211   2.124  11.327 -0.7768  0.3798 -0.2065
 9280TIP3    H149331   6.147   2.067  11.368 -0.5419 -0.3629 -0.8390
 9280TIP3    H249332   6.238   2.077  11.248  0.2186  0.8727 -0.1824
 9281TIP3   OH249333   5.862   1.530  15.794 -0.1016 -0.2364 -0.5424
 9281TIP3    H149334   5.834   1.555  15.882  2.4612  2.0314 -0.2379
 9281TIP3    H249335   5.854   1.434  15.793 -0.1039 -0.3459  2.1908
 9282TIP3   OH249336   2.975   6.452  14.503 -0.2651 -0.2176 -0.1104
 9282TIP3    H149337   2.900   6.409  14.461 -0.1509 -0.5031 -0.0218
 9282TIP3    H249338   2.935   6.523  14.554 -0.3339  0.6778 -1.3644
 9283TIP3   OH249339   5.089   2.220  15.393  0.2033 -0.1830  0.2521
 9283TIP3    H149340   5.169   2.257  15.430  0.0523 -0.7588  1.1892
 9283TIP3    H249341   5.120   2.154  15.331  0.4711 -0.5662  0.7789
 9284TIP3   OH249342   0.869   2.103  14.079 -0.1493 -0.1445  0.1937
 9284TIP3    H149343   0.803   2.083  14.013  0.3013 -1.0872  0.0095
 9284TIP3    H249344   0.864   2.030  14.141 -0.7922  0.8821  1.4077
 9285TIP3   OH249345   4.699   6.760   2.789  0.4514 -0.2288 -0.1001
 9285TIP3    H149346   4.753   6.766   2.710  1.8650  0.5733  0.8724
 9285TIP3    H249347   4.683   6.667   2.801  2.8419 -0.6548  0.3098
 9286TIP3   OH249348   0.782   5.455   4.265 -0.2181  0.5853 -0.1516
 9286TIP3    H149349   0.866   5.442   4.309  0.3916  1.3685 -1.0468
 9286TIP3    H249350   0.806   5.472   4.173 -1.4398 -0.9050 -0.7840
 9287TIP3   OH249351   3.987   5.342  14.261 -0.3698  0.2766 -0.4841
 9287TIP3    H149352   3.968   5.369  14.351  1.2275  0.7688 -0.2662
 9287TIP3    H249353   4.082   5.353  14.252 -0.1820 -1.7877 -1.5719
 9288TIP3   OH249354   5.797   0.574  11.339  0.3733 -0.6086 -0.1489
 9288TIP3    H149355   5.787   0.557  11.245  0.6899  1.3190 -0.5676
 9288TIP3    H249356   5.708   0.591  11.369  0.2815 -1.1469 -0.1068
 9289TIP3   OH249357   5.824   6.552   5.762  0.0368  0.3894 -0.5155
 9289TIP3    H149358   5.796   6.528   5.850  3.9121 -2.3153  0.2699
 9289TIP3    H249359   5.852   6.643   5.769 -0.2821  0.3987  0.9202
 9290TIP3   OH249360   0.625   1.054  13.129  0.2346  0.0162 -0.1801
 9290TIP3    H149361   0.675   1.100  13.198 -1.0172  0.2958  0.5756
 9290TIP3    H249362   0.657   0.964  13.133  0.9915  0.2810 -0.0082
 9291TIP3   OH249363   5.449   5.967  15.082 -0.5692  0.3098  0.0304
 9291TIP3    H149364   5.501   6.046  15.069  0.8105 -0.7916 -1.5111
 9291TIP3    H249365   5.378   5.974  15.019 -0.6432  0.4563  0.1282
 9292TIP3   OH249366   0.540   0.030   5.746  0.4392  0.4443  0.6096
 9292TIP3    H149367   0.624   0.004   5.708  0.0452  1.0217 -0.7076
 9292TIP3    H249368   0.519   0.113   5.704 -1.0986 -0.0015  0.4430
 9293TIP3   OH249369   0.886   2.302   6.204  0.2569 -0.2163 -0.1309
 9293TIP3    H149370   0.948   2.304   6.276 -0.1913 -1.5011  0.3244
 9293TIP3    H249371   0.852   2.212   6.204 -1.0748  0.2615 -0.8094
 9294TIP3   OH249372   0.046   6.611  13.566 -0.2994  0.3497 -0.1948
 9294TIP3    H149373  -0.032   6.611  13.622 -0.8928  0.0241 -1.0122
 9294TIP3    H249374   0.063   6.704  13.549 -0.8199  0.4000 -0.4449
 9295TIP3   OH249375   0.461   0.747  16.430  0.8513 -0.1060 -0.2283
 9295TIP3    H149376   0.418   0.819  16.476  0.5586 -1.1027  1.1257
 9295TIP3    H249377   0.532   0.788  16.381  0.4548  1.1414  0.2066
 9296TIP3   OH249378   3.491   0.395  10.928  1.0400 -0.0913 -0.6288
 9296TIP3    H149379   3.401   0.396  10.959  1.9337  0.0289  2.2416
 9296TIP3    H249380   3.501   0.309  10.887  0.1018 -0.8108  0.6077
 9297TIP3   OH249381   1.327   6.750   0.083 -0.2006  0.5859  0.3495
 9297TIP3    H149382   1.346   6.659   0.062 -1.4077  0.2709  0.5373
 9297TIP3    H249383   1.411   6.795   0.073  0.1480 -0.2990 -1.0363
 9298TIP3   OH249384   3.140   0.643   6.695 -0.0658 -0.0812  0.5007
 9298TIP3    H149385   3.220   0.695   6.703  0.7906 -1.1019 -0.9251
 9298TIP3    H249386   3.087   0.689   6.631  0.1565 -0.3152  0.1458
 9299TIP3   OH249387   4.898   0.726   1.645  0.0537 -0.0464  0.3510
 9299TIP3    H149388   4.904   0.710   1.551  1.2689  0.0959  0.3834
 9299TIP3    H249389   4.844   0.655   1.679 -2.3242  1.1448 -0.7417
 9300TIP3   OH249390   3.172   3.652   2.112  0.2661  0.0391  0.6998
 9300TIP3    H149391   3.094   3.607   2.078 -0.5782  3.2071 -2.1092
 9300TIP3    H249392   3.245   3.594   2.092 -0.7415 -0.2390 -2.7443
 9301TIP3   OH249393   6.502   2.045   2.483 -0.5105 -0.0041  0.2286
 9301TIP3    H149394   6.468   2.033   2.395  0.0897  1.4615 -0.2322
 9301TIP3    H249395   6.437   2.100   2.527  0.9671  2.5411 -0.5577
 9302TIP3   OH249396   4.654   2.212  17.198  0.1419 -0.4012 -0.4368
 9302TIP3    H149397   4.590   2.171  17.257 -0.4573 -1.1389 -1.5748
 9302TIP3    H249398   4.736   2.167  17.217  0.3919  0.6206  1.1065
 9303TIP3   OH249399   1.550   0.853  17.100 -0.2633 -0.4785  0.0010
 9303TIP3    H149400   1.553   0.762  17.131 -1.3506 -0.4332  0.2719
 9303TIP3    H249401   1.494   0.898  17.163  0.6258  0.4981  0.1352
 9304TIP3   OH249402   0.236   3.748  11.992 -0.3134  0.1935 -0.5602
 9304TIP3    H149403   0.164   3.748  12.055 -0.6729  0.4360 -0.9652
 9304TIP3    H249404   0.207   3.808  11.923  0.5102  0.7264 -0.4601
 9305TIP3   OH249405   0.658   6.403  11.425 -0.0965  0.2325 -0.2325
 9305TIP3    H149406   0.724   6.421  11.492 -1.5272  1.0982  1.0042
 9305TIP3    H249407   0.590   6.354  11.471 -1.8797  2.2598 -0.5739
 9306TIP3   OH249408   5.366   2.233   3.922  0.0584  0.1562  0.9066
 9306TIP3    H149409   5.329   2.144   3.924  0.4790 -0.0721 -0.5291
 9306TIP3    H249410   5.427   2.235   3.996  1.7668 -1.5480 -0.3508
 9307TIP3   OH249411   4.372   0.261  15.373  0.1742 -0.7209  0.0453
 9307TIP3    H149412   4.389   0.303  15.289 -0.5329  0.1353  0.3156
 9307TIP3    H249413   4.291   0.212  15.359 -0.3565  0.0287  0.4219
 9308TIP3   OH249414   5.185   2.218  15.973  0.0887 -0.7365  0.6227
 9308TIP3    H149415   5.247   2.271  15.923  2.5846 -2.7451  1.3703
 9308TIP3    H249416   5.207   2.236  16.064  0.2962 -2.2584  0.8942
 9309TIP3   OH249417   1.512   4.514   2.582  0.3795  0.2772 -0.0008
 9309TIP3    H149418   1.475   4.586   2.634  0.3270 -0.4240  0.9438
 9309TIP3    H249419   1.563   4.463   2.645  1.2292  0.0330 -0.8659
 9310TIP3   OH249420   5.258   5.500  13.990  0.5532  0.0213 -0.0285
 9310TIP3    H149421   5.351   5.496  13.964  0.9286 -2.3065  1.3806
 9310TIP3    H249422   5.217   5.431  13.938  0.4377 -1.6197  2.1411
 9311TIP3   OH249423   3.578   3.864   1.327 -0.2633 -0.1873 -0.0904
 9311TIP3    H149424   3.586   3.770   1.345  0.7668  0.0287  0.6707
 9311TIP3    H249425   3.622   3.906   1.401 -1.7272  0.9447  0.1823
 9312TIP3   OH249426   3.042   4.361   6.622  0.4437  0.2515 -0.2921
 9312TIP3    H149427   3.008   4.287   6.571 -0.9566  1.0411 -0.5716
 9312TIP3    H249428   3.039   4.330   6.712 -1.2977  0.3539 -0.2834
 9313TIP3   OH249429   0.626   2.343  16.687 -0.4761  0.0593  0.3198
 9313TIP3    H149430   0.643   2.353  16.781 -1.8110  0.2297  0.5690
 9313TIP3    H249431   0.703   2.299  16.653 -0.1920 -0.4751  1.6030
 9314TIP3   OH249432   0.040   5.423  12.247  0.3166  0.0419 -0.2816
 9314TIP3    H149433   0.071   5.511  12.227  1.3978 -0.4193 -0.7057
 9314TIP3    H249434  -0.018   5.400  12.174  1.5562 -0.3206 -1.1907
 9315TIP3   OH249435   6.142   3.162  16.596 -0.2825 -0.4055  0.4678
 9315TIP3    H149436   6.104   3.240  16.557 -1.7993 -1.0579  0.5721
 9315TIP3    H249437   6.198   3.195  16.666  0.7415  0.6644 -0.7992
 9316TIP3   OH249438   1.097   4.168  14.776 -0.3868 -0.1313 -0.2824
 9316TIP3    H149439   1.048   4.090  14.802  0.5914 -0.3023  1.1480
 9316TIP3    H249440   1.090   4.226  14.852  1.2240  0.0152 -0.2228
 9317TIP3   OH249441   3.503   6.190  13.363  0.4801  0.4365  0.5544
 9317TIP3    H149442   3.414   6.192  13.330  1.0614 -0.7632 -1.2042
 9317TIP3    H249443   3.541   6.273  13.334  0.5006  0.0959 -0.4234
 9318TIP3   OH249444   6.678   5.788  16.212  0.0560 -0.1405 -0.5381
 9318TIP3    H149445   6.745   5.853  16.235  0.3441 -0.5524 -0.1957
 9318TIP3    H249446   6.706   5.753  16.128  0.9710 -1.2054  0.1759
 9319TIP3   OH249447   0.662   4.811  12.050 -0.1541 -0.0470  0.2268
 9319TIP3    H149448   0.753   4.811  12.020 -0.5224  0.7047 -0.9632
 9319TIP3    H249449   0.644   4.719  12.069  0.9314 -0.1686  0.7751
 9320TIP3   OH249450   4.890   3.254  14.778 -0.5679 -0.0763 -0.2482
 9320TIP3    H149451   4.841   3.186  14.731 -1.3927 -0.3563  0.9683
 9320TIP3    H249452   4.940   3.299  14.709 -2.3731  0.0889 -1.5313
 9321TIP3   OH249453   0.362   2.460  14.354 -0.3167  0.0718 -0.4893
 9321TIP3    H149454   0.445   2.445  14.399 -1.4102 -2.4131  0.9234
 9321TIP3    H249455   0.303   2.493  14.421 -0.7353  0.9137 -1.2539
 9322TIP3   OH249456   1.355   1.248  14.411  0.8897  0.4127  0.3178
 9322TIP3    H149457   1.304   1.197  14.473  0.7810 -2.1398 -1.6584
 9322TIP3    H249458   1.306   1.329  14.398 -0.2298  0.0036  1.8350
 9323TIP3   OH249459   5.300   6.780  14.159  0.7180 -0.5794  0.2447
 9323TIP3    H149460   5.312   6.869  14.125  1.8522 -0.8975 -0.2435
 9323TIP3    H249461   5.206   6.770  14.169  0.4918  0.2471 -0.8881
 9324TIP3   OH249462   2.849   2.618  15.260  0.3070  0.2884  0.3452
 9324TIP3    H149463   2.801   2.601  15.341  2.0082 -0.8140  1.1739
 9324TIP3    H249464   2.855   2.532  15.217  0.8598  0.5580 -0.1309
 9325TIP3   OH249465   3.206   0.334   4.206  0.2315 -0.2874 -0.3636
 9325TIP3    H149466   3.245   0.421   4.198 -0.5398 -0.0467 -1.9314
 9325TIP3    H249467   3.164   0.334   4.292 -1.0860  1.4930 -0.9443
 9326TIP3   OH249468   6.516   4.411  12.316  0.1354  0.1331 -0.0670
 9326TIP3    H149469   6.561   4.355  12.378 -0.7979  0.5652  1.0334
 9326TIP3    H249470   6.555   4.498  12.329  0.9178 -0.0466 -1.0972
 9327TIP3   OH249471   5.375   1.457   0.393  0.2280 -0.0918  0.5449
 9327TIP3    H149472   5.426   1.536   0.375 -1.3861  0.6920 -0.9563
 9327TIP3    H249473   5.333   1.474   0.477  0.9383  0.0480  0.8813
 9328TIP3   OH249474   4.931   4.163  15.691 -0.4266  0.0046 -0.2288
 9328TIP3    H149475   5.027   4.162  15.696 -0.4496  1.4285  2.1670
 9328TIP3    H249476   4.908   4.256  15.689 -1.7655 -0.2523  1.1163
 9329TIP3   OH249477   5.297   5.236  15.871  0.1748  0.0524  0.1545
 9329TIP3    H149478   5.208   5.204  15.887  0.5636 -1.0128  0.2419
 9329TIP3    H249479   5.312   5.299  15.941  0.3647 -1.5589  1.6380
 9330TIP3   OH249480   6.561   5.352  14.353 -0.3871  0.5382 -0.0292
 9330TIP3    H149481   6.600   5.390  14.274  0.6780  0.2960  0.3734
 9330TIP3    H249482   6.505   5.421  14.387 -1.7080  0.2964 -1.5620
 9331TIP3   OH249483   0.254   5.314  10.535  0.0074 -0.0522  0.1510
 9331TIP3    H149484   0.318   5.365  10.485  1.2765 -0.3904  1.3659
 9331TIP3    H249485   0.224   5.247  10.474  1.7542 -0.6444 -0.1094
 9332TIP3   OH249486   2.382   6.740   1.109  0.0863  0.0550  0.2845
 9332TIP3    H149487   2.299   6.771   1.144 -0.2141  1.0688 -1.2260
 9332TIP3    H249488   2.359   6.697   1.027  0.9577 -0.6455  0.3871
 9333TIP3   OH249489   2.757   6.093  14.618  0.2218  0.0709 -0.2410
 9333TIP3    H149490   2.836   6.113  14.669  0.0112 -0.7514  0.4481
 9333TIP3    H249491   2.773   6.131  14.532  1.6600 -0.6122 -0.3146
 9334TIP3   OH249492   0.669   1.606   5.489 -0.1714 -0.2915  0.0267
 9334TIP3    H149493   0.758   1.633   5.512  0.8005 -2.2973 -1.0446
 9334TIP3    H249494   0.661   1.630   5.396 -0.0305 -1.6885 -0.3767
 9335TIP3   OH249495   4.937   2.148  11.567  1.3417 -0.3786 -0.0758
 9335TIP3    H149496   5.018   2.124  11.523  1.5137 -0.2961  0.1909
 9335TIP3    H249497   4.874   2.161  11.496  1.9109  0.8952 -0.3720
 9336TIP3   OH249498   4.738   0.519   1.784  0.3550  0.2667 -0.2033
 9336TIP3    H149499   4.674   0.581   1.819 -3.0829 -2.4270 -1.1413
 9336TIP3    H249500   4.778   0.480   1.862  0.4487  1.5425  0.4260
 9337TIP3   OH249501   2.889   1.267   3.958 -0.6952 -0.0922  0.0427
 9337TIP3    H149502   2.970   1.238   3.918 -0.1568 -0.4563  1.3391
 9337TIP3    H249503   2.820   1.218   3.913 -0.1882  0.0356 -0.8909
 9338TIP3   OH249504   0.636   3.278   1.248 -0.5862  0.0354  0.3127
 9338TIP3    H149505   0.682   3.255   1.167 -0.4762  0.9330  0.1139
 9338TIP3    H249506   0.705   3.307   1.308 -0.7681  0.3119  0.3920
 9339TIP3   OH249507   2.774   2.398  16.492 -0.3398  0.6132  0.2073
 9339TIP3    H149508   2.770   2.438  16.580  0.0980  2.1905 -0.4466
 9339TIP3    H249509   2.857   2.351  16.492  0.0183  1.2202  0.4149
 9340TIP3   OH249510   2.725   2.399   4.161  0.3225  0.2745  0.3884
 9340TIP3    H149511   2.666   2.347   4.106  0.4826 -0.8490  1.2306
 9340TIP3    H249512   2.705   2.490   4.139  0.0834 -0.1306 -1.1822
 9341TIP3   OH249513   4.489   6.378  12.757 -0.2420 -0.4900 -0.2779
 9341TIP3    H149514   4.468   6.448  12.820  0.0994 -0.1525 -0.5361
 9341TIP3    H249515   4.416   6.317  12.764 -1.3190  0.6519 -1.1497
 9342TIP3   OH249516   6.066   3.473   0.041  0.3552 -0.0322  0.2204
 9342TIP3    H149517   6.051   3.516   0.125 -0.4792 -0.8675  0.5273
 9342TIP3    H249518   6.000   3.403   0.038  0.5070 -0.1550 -1.0336
 9343TIP3   OH249519   6.826   2.188   4.580  0.8347 -0.4345 -0.3729
 9343TIP3    H149520   6.800   2.108   4.626  0.0400 -0.8121 -1.4350
 9343TIP3    H249521   6.748   2.243   4.581  0.7743 -0.4789 -1.3048
 9344TIP3   OH249522   5.152   1.172   1.035  0.0750  0.1393  1.0122
 9344TIP3    H149523   5.179   1.087   1.069  1.9009  0.2019 -0.1468
 9344TIP3    H249524   5.115   1.217   1.111 -1.0208 -1.6892  1.6279
 9345TIP3   OH249525   5.846   4.945  14.288  0.1359  0.1474  0.0581
 9345TIP3    H149526   5.931   4.990  14.301  0.0132 -0.0034  1.6716
 9345TIP3    H249527   5.863   4.855  14.316 -0.5087  0.0863  0.2588
 9346TIP3   OH249528   5.619   6.200  15.129  0.3483 -0.0622 -0.0422
 9346TIP3    H149529   5.593   6.282  15.170  0.9217  0.3659 -0.5302
 9346TIP3    H249530   5.686   6.163  15.187 -0.9002 -0.8976  0.9266
 9347TIP3   OH249531   0.436   3.401  11.083 -0.0230 -0.3503  0.2182
 9347TIP3    H149532   0.448   3.494  11.103 -1.1574  0.1565 -1.2665
 9347TIP3    H249533   0.497   3.384  11.012 -0.5004 -0.4760 -0.1670
 9348TIP3   OH249534   0.639   0.007   3.122  0.4357  0.1464 -0.1075
 9348TIP3    H149535   0.704  -0.026   3.060 -0.0384  0.5270 -0.8176
 9348TIP3    H249536   0.645   0.102   3.115 -0.1808  0.1873 -0.1714
 9349TIP3   OH249537   0.340   2.251   2.589 -0.2089 -0.3240  0.3163
 9349TIP3    H149538   0.398   2.254   2.666 -1.1454  0.9998  1.0157
 9349TIP3    H249539   0.267   2.195   2.617  0.7926 -2.2635 -0.6761
 9350TIP3   OH249540   0.813   4.506   2.783 -0.0517  0.3049 -0.8701
 9350TIP3    H149541   0.732   4.542   2.747 -1.5447 -1.2368  0.7087
 9350TIP3    H249542   0.831   4.559   2.860  1.3836  1.6202 -2.0396
 9351TIP3   OH249543   6.493   4.579  14.121 -1.4436 -0.2501 -0.9572
 9351TIP3    H149544   6.579   4.614  14.097 -0.4500 -2.7291 -1.2725
 9351TIP3    H249545   6.432   4.623  14.061 -0.2603  0.7159 -1.4905
 9352TIP3   OH249546   4.092   4.439  11.188 -0.3573 -0.7450  0.1024
 9352TIP3    H149547   4.111   4.365  11.129 -0.1511 -0.6320  0.0262
 9352TIP3    H249548   4.154   4.428  11.260 -0.0911 -0.4507 -0.0809
 9353TIP3   OH249549   5.921   4.879   1.964 -0.3653 -0.7530  0.1424
 9353TIP3    H149550   6.008   4.839   1.964  0.1837  0.2573 -1.8739
 9353TIP3    H249551   5.864   4.811   1.928 -0.8139 -2.0001  2.9567
 9354TIP3   OH249552   1.387   2.465   0.088 -0.7616  0.0826 -0.1949
 9354TIP3    H149553   1.332   2.389   0.068 -1.3007  0.2037  0.7919
 9354TIP3    H249554   1.457   2.461   0.022 -0.7449 -1.3032 -0.1302
 9355TIP3   OH249555   5.781   2.575  16.968 -0.2239  0.0022  0.0769
 9355TIP3    H149556   5.843   2.648  16.968 -0.9550  0.6570 -0.7624
 9355TIP3    H249557   5.695   2.617  16.977 -0.6241 -0.7846 -0.0280
 9356TIP3   OH249558   6.199   6.002   4.161 -0.6749 -0.5695  0.4394
 9356TIP3    H149559   6.289   5.974   4.151 -0.5122  0.3532 -0.8841
 9356TIP3    H249560   6.205   6.095   4.185 -1.2042 -1.3467  4.2590
 9357TIP3   OH249561   6.563   4.125   2.984 -0.2502  0.1811 -0.6287
 9357TIP3    H149562   6.634   4.080   2.939 -0.1241  1.1191 -1.4061
 9357TIP3    H249563   6.573   4.217   2.959 -1.5647  0.3748 -0.5203
 9358TIP3   OH249564   2.328   5.503  11.840  0.3943  0.2508 -0.5468
 9358TIP3    H149565   2.249   5.525  11.790 -0.2432 -0.6913  0.0278
 9358TIP3    H249566   2.383   5.455  11.778  0.9038  1.6109 -1.1963
 9359TIP3   OH249567   3.770   0.322  13.162 -0.1805 -0.0018 -0.2750
 9359TIP3    H149568   3.769   0.417  13.175 -2.7379  0.0150 -0.1900
 9359TIP3    H249569   3.732   0.309  13.075 -2.4015 -1.0156  0.7812
 9360TIP3   OH249570   3.940   0.768   1.902 -0.4054  0.5042  0.8581
 9360TIP3    H149571   3.895   0.825   1.839 -0.0157 -0.9888 -0.8345
 9360TIP3    H249572   4.020   0.815   1.923 -0.3060  0.8177 -0.1473
 9361TIP3   OH249573   1.039   1.420  13.017 -0.6158 -0.2350 -0.1616
 9361TIP3    H149574   1.022   1.329  13.040 -1.8824 -0.0651 -0.3432
 9361TIP3    H249575   1.026   1.425  12.923  1.8295 -0.3414 -0.5637
 9362TIP3   OH249576   0.467   4.188   2.066  0.4362 -0.0920 -0.3524
 9362TIP3    H149577   0.408   4.252   2.107  1.3483  0.5031  0.0692
 9362TIP3    H249578   0.435   4.180   1.976 -0.4170  0.0467 -0.0739
 9363TIP3   OH249579   4.144   5.379  11.910 -0.4713 -0.0017 -0.0296
 9363TIP3    H149580   4.112   5.316  11.846 -1.5234  1.3889 -0.9436
 9363TIP3    H249581   4.163   5.458  11.859 -1.2024  1.1082  1.3258
 9364TIP3   OH249582   2.372   2.978   3.731  0.0510  0.4012 -0.6847
 9364TIP3    H149583   2.333   2.917   3.794 -0.0023 -1.6974 -2.6426
 9364TIP3    H249584   2.442   2.928   3.690 -0.0155  1.6521 -2.4089
 9365TIP3   OH249585   5.824   1.809  14.976  0.2162 -0.0410  0.0329
 9365TIP3    H149586   5.877   1.888  14.981 -1.1543  0.9427 -0.2876
 9365TIP3    H249587   5.866   1.755  14.910  0.9854  0.5683  0.0171
 9366TIP3   OH249588   3.022   4.470  15.272  0.6256  0.0644 -0.4502
 9366TIP3    H149589   3.003   4.520  15.351  0.8526  1.0025 -0.9796
 9366TIP3    H249590   3.074   4.529  15.218  1.1217 -0.8350 -0.9819
 9367TIP3   OH249591   0.990   2.205  11.354 -0.2505 -0.1282 -0.0737
 9367TIP3    H149592   1.015   2.153  11.430  0.8486 -0.6970 -0.7921
 9367TIP3    H249593   0.894   2.210  11.358 -0.6151 -3.6691 -0.8308
 9368TIP3   OH249594   0.350   0.247   6.073  0.1001 -0.6404 -0.1274
 9368TIP3    H149595   0.384   0.291   6.151  1.1084 -0.5620 -0.5963
 9368TIP3    H249596   0.326   0.318   6.013  1.2300 -0.7058 -0.6756
 9369TIP3   OH249597   3.476   5.098   3.034  0.2095 -0.3927 -0.0364
 9369TIP3    H149598   3.460   5.074   2.942 -2.0912 -0.8646  0.4194
 9369TIP3    H249599   3.570   5.115   3.038  0.3505 -0.1190 -2.5306
 9370TIP3   OH249600   1.788   3.327  11.169  0.2597  0.4936  0.1534
 9370TIP3    H149601   1.760   3.358  11.255 -1.2186 -0.0661 -0.0936
 9370TIP3    H249602   1.883   3.317  11.177  0.6529  3.7692  0.6172
 9371TIP3   OH249603   1.874   3.918  14.704 -0.3354 -0.4056  0.4516
 9371TIP3    H149604   1.834   3.843  14.748 -0.6652 -0.3818  0.2006
 9371TIP3    H249605   1.962   3.889  14.682  0.2422 -0.0244  2.1403
 9372TIP3   OH249606   1.427   5.347  11.363 -0.7121 -0.4160  0.2023
 9372TIP3    H149607   1.382   5.411  11.308 -1.1689 -1.8758 -1.2050
 9372TIP3    H249608   1.520   5.357  11.341 -0.6219  0.5886  0.9399
 9373TIP3   OH249609   2.005   0.335   5.910  0.1655  0.4415 -0.3500
 9373TIP3    H149610   1.985   0.401   5.844 -0.6715  0.8164  0.2637
 9373TIP3    H249611   1.936   0.344   5.975  0.1476 -0.9090 -0.1531
 9374TIP3   OH249612   6.515   1.406  14.441  0.1430 -0.1817  0.2555
 9374TIP3    H149613   6.487   1.390  14.531 -1.8685  1.0803 -0.0973
 9374TIP3    H249614   6.441   1.449  14.399  2.0170  1.8018 -1.2634
 9375TIP3   OH249615   6.168   3.325   1.980  0.2967  0.2224  0.2997
 9375TIP3    H149616   6.245   3.337   2.036  0.1282 -0.0809  0.5990
 9375TIP3    H249617   6.167   3.403   1.924  1.3221 -0.1810 -0.3049
 9376TIP3   OH249618   4.436   2.093   0.098  0.0746 -0.2886  0.9472
 9376TIP3    H149619   4.365   2.100   0.034  0.0677  2.7948  1.1601
 9376TIP3    H249620   4.406   2.026   0.159 -1.0850 -1.4544 -0.8003
 9377TIP3   OH249621   4.423   5.353   3.580  0.0531  0.2405  0.4456
 9377TIP3    H149622   4.373   5.297   3.520  2.2399 -0.5392 -0.7434
 9377TIP3    H249623   4.432   5.436   3.533 -2.8196  1.5801  2.0315
 9378TIP3   OH249624   4.835   3.645   3.336  0.1011  0.0543 -0.5992
 9378TIP3    H149625   4.822   3.562   3.382 -0.7943  0.1165 -0.7366
 9378TIP3    H249626   4.822   3.624   3.244  0.7122  0.1797 -0.7217
 9379TIP3   OH249627   1.502   6.797  16.521 -0.3673 -0.0442  0.5696
 9379TIP3    H149628   1.495   6.714  16.475  0.6686 -0.4402  1.1104
 9379TIP3    H249629   1.582   6.790  16.573 -0.1950  1.3392  0.5315
 9380TIP3   OH249630   6.178   6.012  16.762  0.1205 -0.3251  0.7809
 9380TIP3    H149631   6.147   6.103  16.761  1.1173  0.0276 -0.2183
 9380TIP3    H249632   6.100   5.960  16.781 -0.4183  0.7514  1.6224
 9381TIP3   OH249633   1.857   4.948   1.329 -0.0556 -0.5206  0.1140
 9381TIP3    H149634   1.932   4.933   1.271  0.1574 -1.5494  0.6382
 9381TIP3    H249635   1.785   4.899   1.288 -0.2000 -0.3079  0.1119
 9382TIP3   OH249636   5.224   2.367  16.913  0.4852 -0.1584 -0.4896
 9382TIP3    H149637   5.244   2.303  16.846 -0.5709  1.0659 -2.0449
 9382TIP3    H249638   5.129   2.364  16.923  0.6244 -0.4466  1.1319
 9383TIP3   OH249639   0.547   6.652   1.064 -0.5072 -0.1734 -0.5719
 9383TIP3    H149640   0.503   6.594   1.127 -0.9536  0.9286  0.1688
 9383TIP3    H249641   0.477   6.708   1.030  0.3872  2.5407  1.6286
 9384TIP3   OH249642   1.874   1.476   3.813 -0.4677  0.0170 -0.4143
 9384TIP3    H149643   1.793   1.527   3.807 -0.2485  0.7478  1.8144
 9384TIP3    H249644   1.921   1.514   3.888  0.7950 -1.9463 -0.1279
 9385TIP3   OH249645   6.496   6.238   0.814  0.7524 -0.4756  0.0399
 9385TIP3    H149646   6.590   6.231   0.798  0.8973 -1.8223  1.2779
 9385TIP3    H249647   6.464   6.148   0.806 -0.6038  0.0951 -1.2733
 9386TIP3   OH249648   5.420   1.421   0.702 -0.3090 -0.4030 -0.1834
 9386TIP3    H149649   5.446   1.370   0.778  0.3419  2.1783  1.4442
 9386TIP3    H249650   5.325   1.426   0.708 -0.3938 -1.4985 -0.4495
 9387TIP3   OH249651   0.521   4.941   5.663 -0.4927 -0.2206  0.0130
 9387TIP3    H149652   0.434   4.939   5.624 -0.4843  0.7676 -0.0930
 9387TIP3    H249653   0.521   4.868   5.725 -1.4172 -0.1902  0.0663
 9388TIP3   OH249654   5.380   0.451  16.051  0.1767 -0.1649 -0.3318
 9388TIP3    H149655   5.399   0.365  16.013 -0.8223  0.0389 -1.3471
 9388TIP3    H249656   5.338   0.431  16.135 -1.1178 -0.7243 -1.0755
 9389TIP3   OH249657   1.228   5.920  10.729  0.3366  0.4964 -0.0584
 9389TIP3    H149658   1.307   5.866  10.722  1.4619  2.0426  0.2046
 9389TIP3    H249659   1.179   5.882  10.802  1.6076  0.4245  0.7947
 9390TIP3   OH249660   1.711   3.455   3.928 -0.1894 -0.5511  0.4586
 9390TIP3    H149661   1.738   3.424   4.014 -0.3480 -0.0087  0.7084
 9390TIP3    H249662   1.615   3.457   3.932 -0.2365 -1.3828 -0.0377
 9391TIP3   OH249663   0.460   6.184   1.717  0.3254  0.0760 -0.5108
 9391TIP3    H149664   0.468   6.129   1.638  0.0540 -1.2342  0.3498
 9391TIP3    H249665   0.386   6.147   1.765  0.9129  0.4069  0.6940
 9392TIP3   OH249666   5.616   3.165  13.107  0.7515 -0.1625  0.1088
 9392TIP3    H149667   5.638   3.257  13.116  0.6859 -0.1022 -0.2997
 9392TIP3    H249668   5.638   3.126  13.191  2.9325 -0.2046 -0.4209
 9393TIP3   OH249669   2.253   0.162  13.342 -0.2768  0.7989 -0.3157
 9393TIP3    H149670   2.213   0.204  13.266 -1.9258  0.8199  0.5300
 9393TIP3    H249671   2.246   0.226  13.412  2.4305  1.2997 -0.3890
 9394TIP3   OH249672   0.798   1.119   2.334 -0.7604  0.1761 -0.8350
 9394TIP3    H149673   0.870   1.080   2.382 -0.3810  1.6197 -0.1723
 9394TIP3    H249674   0.803   1.079   2.247 -1.8808 -2.9821  0.4449
 9395TIP3   OH249675   0.713   1.865  12.052  0.0753 -0.1924  0.0562
 9395TIP3    H149676   0.746   1.777  12.036 -0.8788 -0.2920 -1.5105
 9395TIP3    H249677   0.761   1.894  12.130  1.3598 -1.5845 -0.1609
 9396TIP3   OH249678   5.808   2.860  13.060  0.4665  0.8075 -0.2104
 9396TIP3    H149679   5.729   2.826  13.018  0.5112 -0.2860  0.5446
 9396TIP3    H249680   5.821   2.946  13.020 -0.7656  0.7595 -0.7749
 9397TIP3   OH249681   4.444   2.407   4.275  0.0456  0.3546 -0.4228
 9397TIP3    H149682   4.357   2.370   4.292 -0.2465 -0.0399 -2.4948
 9397TIP3    H249683   4.503   2.355   4.330 -0.9468  0.1991  0.5264
 9398TIP3   OH249684   2.965   4.855  17.034 -0.1397  0.2004 -0.3399
 9398TIP3    H149685   2.967   4.878  16.941  0.9026 -0.0807 -0.4043
 9398TIP3    H249686   3.052   4.879  17.066 -0.8680  1.3917  0.8499
 9399TIP3   OH249687   1.560   2.636   4.928 -0.4359 -0.1218  0.2433
 9399TIP3    H149688   1.574   2.729   4.943 -0.1525 -0.0661 -0.3499
 9399TIP3    H249689   1.639   2.606   4.885  0.0207 -0.9195  1.5641
 9400TIP3   OH249690   4.737   6.628  12.717 -0.1458 -0.2950  0.0288
 9400TIP3    H149691   4.747   6.564  12.788  1.9563 -0.2466 -0.1525
 9400TIP3    H249692   4.775   6.585  12.641 -2.2751 -0.3047 -1.1016
 9401TIP3   OH249693   0.593   2.077  15.152  0.0813  0.2714  0.2423
 9401TIP3    H149694   0.547   2.076  15.235  0.3967  0.2734  0.4180
 9401TIP3    H249695   0.640   1.994  15.149 -0.9594 -0.3079 -0.5195
 9402TIP3   OH249696   5.916   3.771   1.872  0.2517 -0.3439  0.5610
 9402TIP3    H149697   6.001   3.814   1.873  0.6113 -0.8704 -1.9168
 9402TIP3    H249698   5.872   3.805   1.795 -1.4420 -0.7593  1.2934
 9403TIP3   OH249699   6.699   0.011   4.933 -0.0860  0.2321  0.0867
 9403TIP3    H149700   6.603   0.004   4.932 -0.0309 -0.9267  0.9633
 9403TIP3    H249701   6.720   0.035   5.024  0.4197  1.2883 -0.2959
 9404TIP3   OH249702   0.647   2.482  13.401  0.0942  0.1674 -0.0104
 9404TIP3    H149703   0.736   2.485  13.434 -0.1459  0.0723  0.6514
 9404TIP3    H249704   0.594   2.454  13.475 -0.6742  1.5412  0.0031
 9405TIP3   OH249705   6.259   1.808   1.676  0.2150  0.4717 -0.1277
 9405TIP3    H149706   6.181   1.754   1.694 -0.5512  1.7408  0.5356
 9405TIP3    H249707   6.293   1.830   1.763  0.1244  1.5793 -0.3580
 9406TIP3   OH249708   1.730   3.501   0.329  0.2378 -0.6817  0.2191
 9406TIP3    H149709   1.661   3.435   0.342 -1.0568  0.3403 -1.1563
 9406TIP3    H249710   1.762   3.519   0.418 -2.7936  0.3525  1.2416
 9407TIP3   OH249711   1.703   0.541  13.761  0.0802 -0.0542  0.1804
 9407TIP3    H149712   1.619   0.542  13.715  0.3616  1.3459 -0.3390
 9407TIP3    H249713   1.711   0.451  13.794 -1.1454 -0.4827 -0.6291
 9408TIP3   OH249714   5.893   2.665   3.749  0.6546  0.4764  0.0303
 9408TIP3    H149715   5.888   2.755   3.780 -0.2435  0.6112 -0.4594
 9408TIP3    H249716   5.950   2.669   3.672  0.2628  0.7083 -0.2501
 9409TIP3   OH249717   0.176   0.282  14.662 -0.2437 -0.3821 -0.2950
 9409TIP3    H149718   0.209   0.372  14.658 -0.6216 -0.1568  1.1859
 9409TIP3    H249719   0.139   0.274  14.750 -0.1229 -2.0205 -0.3689
 9410TIP3   OH249720   3.646   0.855  17.082  0.0060  0.1586 -0.0927
 9410TIP3    H149721   3.551   0.848  17.073  0.2176 -0.3875 -2.9522
 9410TIP3    H249722   3.675   0.766  17.101  0.1114 -0.3387 -2.3181
 9411TIP3   OH249723   3.143   0.875   3.397 -0.4739  0.6180  0.1476
 9411TIP3    H149724   3.050   0.897   3.395 -0.3805  1.3503  2.0088
 9411TIP3    H249725   3.163   0.864   3.490  0.7494 -2.0308 -0.3346
 9412TIP3   OH249726   6.163   0.359   2.131  0.2786 -0.1897 -0.6693
 9412TIP3    H149727   6.119   0.375   2.215 -0.6200 -0.8200 -1.0042
 9412TIP3    H249728   6.092   0.341   2.070  0.9754 -0.5846 -1.3751
 9413TIP3   OH249729   0.960   4.318  14.297  0.2712  0.0409 -0.3233
 9413TIP3    H149730   0.970   4.316  14.201  1.3690  0.4971 -0.2356
 9413TIP3    H249731   0.985   4.230  14.325  0.7920  0.1666 -0.3876
 9414TIP3   OH249732   0.779   1.590  10.130  0.0275  0.1827 -0.0814
 9414TIP3    H149733   0.761   1.642  10.208  1.6437  0.5975  0.0417
 9414TIP3    H249734   0.709   1.525  10.129 -0.9210  1.1279  0.8343
 9415TIP3   OH249735   4.768   6.753   1.960  0.1850  0.2693 -0.6473
 9415TIP3    H149736   4.790   6.832   2.010  3.2523 -1.4967  1.1596
 9415TIP3    H249737   4.682   6.727   1.992  0.6193  1.0618  1.3283
 9416TIP3   OH249738   6.612   1.368   2.658 -0.0317  0.2201  0.2325
 9416TIP3    H149739   6.545   1.400   2.598 -2.1623 -0.1831  2.2547
 9416TIP3    H249740   6.673   1.441   2.666 -0.1881  0.6141 -1.6519
 9417TIP3   OH249741   6.583   1.803   2.247 -0.1665 -0.5523  0.2412
 9417TIP3    H149742   6.655   1.835   2.301  0.2667 -0.1593 -0.5498
 9417TIP3    H249743   6.624   1.779   2.164 -1.0409  0.3580 -0.4770
 9418TIP3   OH249744   0.407   5.194  11.760  0.3363 -0.2804 -0.0970
 9418TIP3    H149745   0.337   5.147  11.715  0.1458  0.1059 -0.2044
 9418TIP3    H249746   0.488   5.155  11.726  0.1808 -0.4722 -0.2466
 9419TIP3   OH249747   5.389   1.158   6.496 -0.0719  0.1388 -0.5944
 9419TIP3    H149748   5.468   1.135   6.544 -1.9485 -1.8028  1.8821
 9419TIP3    H249749   5.398   1.114   6.411  1.2361 -0.4787 -0.1540
 9420TIP3   OH249750   6.654   5.332  14.834 -0.0359 -0.3813  0.5850
 9420TIP3    H149751   6.677   5.416  14.794 -0.2667  0.3062  1.8237
 9420TIP3    H249752   6.560   5.323  14.821  0.1095 -0.8155 -0.1962
 9421TIP3   OH249753   5.929   2.356   3.751  0.3348 -0.1269  0.0322
 9421TIP3    H149754   5.942   2.450   3.744  0.6959 -0.2242 -0.7066
 9421TIP3    H249755   5.838   2.346   3.778  0.1897  0.4273 -0.2443
 9422TIP3   OH249756   5.714   1.410   1.571  0.9458 -0.1689  0.9097
 9422TIP3    H149757   5.621   1.434   1.567  0.8688 -0.6842 -1.5654
 9422TIP3    H249758   5.716   1.318   1.546  2.1809 -0.0036  0.3395
 9423TIP3   OH249759   2.489   2.001   0.120 -0.4094 -0.5595  0.1177
 9423TIP3    H149760   2.538   1.959   0.050 -2.6263 -0.3115 -1.6955
 9423TIP3    H249761   2.553   2.015   0.189  1.5785 -2.0253 -1.3194
 9424TIP3   OH249762   0.337   1.343  15.370 -0.4436  0.0690 -0.1605
 9424TIP3    H149763   0.349   1.402  15.296 -0.4443  0.1823 -0.0696
 9424TIP3    H249764   0.255   1.371  15.410 -0.5994 -0.1846 -0.2951
 9425TIP3   OH249765   4.987   6.191   2.363 -0.4220  0.2921  0.3196
 9425TIP3    H149766   4.895   6.216   2.360 -1.0558 -1.4114  2.6781
 9425TIP3    H249767   5.035   6.273   2.360 -1.9780  1.2196 -0.8990
 9426TIP3   OH249768   4.897   5.300  13.123  0.3611 -0.8602  0.0642
 9426TIP3    H149769   4.804   5.323  13.127  0.5113 -0.4959  2.3793
 9426TIP3    H249770   4.942   5.383  13.112  0.4182 -1.1241 -2.1236
 9427TIP3   OH249771   5.761   0.560  16.392 -0.7251 -0.2820  0.3321
 9427TIP3    H149772   5.726   0.589  16.308 -0.4772 -0.9570 -0.0103
 9427TIP3    H249773   5.831   0.622  16.412 -1.8184  0.8451  0.8285
 9428TIP3   OH249774   3.839   0.218   4.230  0.5173 -0.1172  0.2406
 9428TIP3    H149775   3.828   0.290   4.167  2.9721  0.6152  0.5248
 9428TIP3    H249776   3.903   0.251   4.293 -1.4775 -1.0102  2.9216
 9429TIP3   OH249777   0.005   4.274   5.120 -0.5619  0.3130 -0.3371
 9429TIP3    H149778  -0.039   4.189   5.113  0.0518  0.0903 -1.8625
 9429TIP3    H249779   0.030   4.280   5.212 -0.3617 -1.3062 -0.2512
 9430TIP3   OH249780   0.187   5.503  15.704  0.2205 -0.6617  0.0034
 9430TIP3    H149781   0.098   5.476  15.681 -0.4963  1.3519  0.2539
 9430TIP3    H249782   0.232   5.421  15.724 -1.9465 -1.6354  1.2268
 9431TIP3   OH249783   5.007   3.517   1.295 -0.1526 -0.1100 -0.2126
 9431TIP3    H149784   4.946   3.462   1.345  0.7857 -0.2462  0.8299
 9431TIP3    H249785   4.997   3.604   1.334  2.4367 -0.7171  2.0892
 9432TIP3   OH249786   6.701   3.491  14.181  0.6506  0.7349  0.2361
 9432TIP3    H149787   6.694   3.466  14.273 -2.0514  0.1127 -0.0605
 9432TIP3    H249788   6.715   3.586  14.184 -0.1120  0.8329  1.2800
 9433TIP3   OH249789   5.584   4.210  12.710 -0.0018 -0.2759 -0.6274
 9433TIP3    H149790   5.641   4.268  12.760 -1.4170  0.2653  0.4393
 9433TIP3    H249791   5.602   4.122  12.744 -0.2555 -0.0288  0.1588
 9434TIP3   OH249792   4.072   3.756  13.237  0.8936 -0.3672 -0.1629
 9434TIP3    H149793   4.055   3.850  13.245 -0.0509 -0.5334 -0.1457
 9434TIP3    H249794   4.056   3.721  13.324  2.3580 -0.3944  0.1261
 9435TIP3   OH249795   5.522   3.242   5.836  0.0781  0.0251  0.6565
 9435TIP3    H149796   5.578   3.281   5.904  0.4552 -2.4108  1.8606
 9435TIP3    H249797   5.546   3.150   5.836 -1.0690 -0.3357 -1.7325
 9436TIP3   OH249798   4.312   6.583  10.936  0.3756  0.1535  0.1985
 9436TIP3    H149799   4.362   6.533  10.871 -2.1618 -1.3552 -0.7313
 9436TIP3    H249800   4.269   6.651  10.884 -0.0634  0.2193  0.6507
 9437TIP3   OH249801   5.796   5.695  15.256 -0.0106 -0.0214  0.2867
 9437TIP3    H149802   5.757   5.780  15.235 -0.7009 -0.3200  0.3453
 9437TIP3    H249803   5.771   5.639  15.182 -0.4761 -0.4569  0.7629
 9438TIP3   OH249804   1.244   2.523   4.238 -0.0836 -0.0886 -0.0023
 9438TIP3    H149805   1.212   2.444   4.193  0.0575  0.3913 -0.9711
 9438TIP3    H249806   1.277   2.491   4.322  0.9828 -1.2314 -0.8229
 9439TIP3   OH249807   1.666   3.749  11.750  0.1095  0.3572  0.3348
 9439TIP3    H149808   1.591   3.732  11.807  2.6262 -0.5740  3.7194
 9439TIP3    H249809   1.687   3.663  11.713  0.3099  0.3470  0.4727
 9440TIP3   OH249810   4.592   4.534  14.162 -0.3784 -0.0043 -0.0203
 9440TIP3    H149811   4.508   4.572  14.134 -0.7199  0.2921  1.3532
 9440TIP3    H249812   4.578   4.509  14.253  0.5810 -1.3053 -0.1955
 9441TIP3   OH249813   5.213   5.294   0.771 -0.3557 -0.7909  0.6112
 9441TIP3    H149814   5.205   5.201   0.748 -0.7173 -0.7208  0.4390
 9441TIP3    H249815   5.255   5.293   0.857  1.6475 -1.0255 -0.3140
 9442TIP3   OH249816   3.541   2.753   5.391  0.0499 -0.1110 -0.3944
 9442TIP3    H149817   3.462   2.770   5.339  0.8726  1.1255 -1.2855
 9442TIP3    H249818   3.539   2.818   5.461 -0.0187 -0.4757 -0.0500
 9443TIP3   OH249819   3.743   0.557  13.482  0.1784 -0.0822 -0.3458
 9443TIP3    H149820   3.826   0.605  13.489  1.3155 -1.7905 -1.4498
 9443TIP3    H249821   3.687   0.597  13.549  1.3590  2.1082 -0.5745
 9444TIP3   OH249822   1.133   4.013   2.604  0.3834  0.2477 -0.1097
 9444TIP3    H149823   1.106   3.935   2.555 -2.5804 -0.0268  1.7000
 9444TIP3    H249824   1.197   3.981   2.668 -0.8325 -0.7743  0.6424
 9445TIP3   OH249825   5.366   3.638   0.701 -0.1998 -0.0691 -0.0348
 9445TIP3    H149826   5.335   3.620   0.613  1.3251  0.4291 -0.7180
 9445TIP3    H249827   5.430   3.569   0.719 -1.1914 -0.7363  1.0961
 9446TIP3   OH249828   6.415   4.309  14.046 -0.0856 -0.2510  0.2526
 9446TIP3    H149829   6.491   4.288  13.992 -0.0249 -1.4046  0.7492
 9446TIP3    H249830   6.427   4.401  14.071  0.8174 -0.2441 -0.1779
 9447TIP3   OH249831   6.074   3.887   5.186 -0.1023  0.1788 -0.1287
 9447TIP3    H149832   6.057   3.952   5.254  1.8246 -0.7274  1.3269
 9447TIP3    H249833   6.164   3.858   5.203  0.5405  0.0454 -3.2198
 9448TIP3   OH249834   4.485   6.435   3.117 -0.1077 -0.2683 -0.3843
 9448TIP3    H149835   4.513   6.393   3.197  2.6244 -0.7577 -1.4896
 9448TIP3    H249836   4.494   6.368   3.049 -0.5925  0.6416 -1.3911
 9449TIP3   OH249837   5.518   4.866   0.368  0.0239 -0.1326  0.5279
 9449TIP3    H149838   5.583   4.866   0.298  0.6693 -0.9746  1.1076
 9449TIP3    H249839   5.507   4.958   0.391 -1.8992  0.4306 -2.1894
 9450TIP3   OH249840   2.506   3.755   0.136  0.2641  0.5113  0.0611
 9450TIP3    H149841   2.511   3.687   0.069 -2.4126 -1.5873  1.7551
 9450TIP3    H249842   2.597   3.769   0.163  1.2002 -0.0856 -2.4596
 9451TIP3   OH249843   2.138   4.178   3.162  0.3126  0.3495 -0.5506
 9451TIP3    H149844   2.100   4.230   3.092 -0.2134  0.7706  0.0354
 9451TIP3    H249845   2.212   4.230   3.194  0.3445  0.3155 -0.5685
 9452TIP3   OH249846   1.189   2.246   1.556 -0.1870  0.3717 -0.1309
 9452TIP3    H149847   1.162   2.335   1.534  0.9862  0.4330 -1.4371
 9452TIP3    H249848   1.200   2.203   1.471  0.8733 -0.5362  0.4471
 9453TIP3   OH249849   4.881   2.690   1.972  0.5156 -0.6157 -0.3518
 9453TIP3    H149850   4.914   2.609   2.010 -0.2184 -0.5419  0.4629
 9453TIP3    H249851   4.787   2.674   1.958  0.6251 -0.3841 -1.4660
 9454TIP3   OH249852   4.525   3.229   0.676  0.2107  0.0608  0.2696
 9454TIP3    H149853   4.490   3.258   0.592  0.2097 -1.4892 -0.2980
 9454TIP3    H249854   4.480   3.283   0.742 -2.2632 -0.9366 -0.5073
 9455TIP3   OH249855   0.475   2.357  12.251 -0.5586  0.1993 -0.4130
 9455TIP3    H149856   0.438   2.282  12.298  0.7712 -1.0833 -1.2921
 9455TIP3    H249857   0.408   2.380  12.186 -0.0933 -1.8103 -1.7026
 9456TIP3   OH249858   3.942   6.712   3.047 -0.0941 -0.1193 -0.2024
 9456TIP3    H149859   3.859   6.720   3.094  0.3272 -0.3096  0.5895
 9456TIP3    H249860   4.009   6.712   3.116  0.6000  0.5622 -0.8648
 9457TIP3   OH249861   1.893   1.310  12.331  0.5399  0.0603 -0.2308
 9457TIP3    H149862   1.975   1.292  12.378  0.6653  0.5698 -0.2522
 9457TIP3    H249863   1.825   1.277  12.390  0.7554 -0.3541 -0.2067
 9458TIP3   OH249864   0.193   4.250   2.233 -0.4107 -0.0145 -0.6852
 9458TIP3    H149865   0.185   4.167   2.187  0.0674 -0.2208 -0.4038
 9458TIP3    H249866   0.226   4.311   2.167  2.2419 -0.7816 -0.1507
 9459TIP3   OH249867   2.646   1.356  15.517  0.2835 -0.2657  0.3244
 9459TIP3    H149868   2.719   1.332  15.459  0.1691 -1.5912  0.6808
 9459TIP3    H249869   2.586   1.406  15.462  0.4560 -1.0048 -0.5527
 9460TIP3   OH249870   3.702   3.510   1.095 -0.2483  0.1831 -0.6861
 9460TIP3    H149871   3.780   3.552   1.061 -0.2454  0.2198 -0.6329
 9460TIP3    H249872   3.728   3.476   1.180 -0.5972  1.1479 -0.1813
 9461TIP3   OH249873   2.118   5.791   5.127  0.6456 -0.4840  0.5345
 9461TIP3    H149874   2.069   5.848   5.186 -0.3393 -1.1639  0.3845
 9461TIP3    H249875   2.060   5.717   5.111  1.7859 -1.3878  0.4840
 9462TIP3   OH249876   0.770   4.530   4.036  0.7904  0.1754  0.4650
 9462TIP3    H149877   0.698   4.467   4.036  1.4255 -0.7648 -2.7505
 9462TIP3    H249878   0.728   4.615   4.025  0.0997 -0.3172 -0.8836
 9463TIP3   OH249879   2.352   4.267   1.510 -0.1898 -0.1539  0.1614
 9463TIP3    H149880   2.409   4.286   1.435  1.4186 -0.8409  1.1418
 9463TIP3    H249881   2.284   4.210   1.475 -0.0018  0.2886 -0.9596
 9464TIP3   OH249882   4.605   5.827  16.590  0.5991  0.3518 -0.0522
 9464TIP3    H149883   4.577   5.919  16.585  2.2234  0.8190 -1.2213
 9464TIP3    H249884   4.543   5.780  16.534  0.6048  0.9485 -0.5684
 9465TIP3   OH249885   0.347   1.563  11.895 -0.7178  0.2826  0.4506
 9465TIP3    H149886   0.288   1.612  11.837 -1.2693  0.4463  1.1423
 9465TIP3    H249887   0.347   1.613  11.977 -0.1468 -0.0892  0.6827
 9466TIP3   OH249888   2.315   0.117  15.658  0.0998  0.6404 -0.0973
 9466TIP3    H149889   2.346   0.174  15.728  0.2237 -0.1022  0.4553
 9466TIP3    H249890   2.249   0.061  15.699 -0.0898  0.4452 -0.6555
 9467TIP3   OH249891   6.241   3.705   2.442 -0.1710 -0.0771 -0.2639
 9467TIP3    H149892   6.255   3.679   2.351  1.3748 -0.1997 -0.0032
 9467TIP3    H249893   6.174   3.774   2.437  1.1433  1.1554 -1.6716
 9468TIP3   OH249894   5.898   6.549  14.269  0.6139 -0.3753 -0.1107
 9468TIP3    H149895   5.845   6.619  14.229  0.0020 -0.8342 -0.1155
 9468TIP3    H249896   5.976   6.594  14.302  0.1808  0.3280 -0.0233
 9469TIP3   OH249897   1.934   2.714  12.454 -0.2184  0.2251  0.1837
 9469TIP3    H149898   2.026   2.691  12.441  0.3851  2.3174  0.3291
 9469TIP3    H249899   1.898   2.642  12.506  0.7420 -1.7033 -1.6762
 9470TIP3   OH249900   4.525   2.415   4.002  0.8095 -1.1766 -0.6967
 9470TIP3    H149901   4.511   2.411   4.097 -0.1912 -1.2005 -0.8371
 9470TIP3    H249902   4.620   2.425   3.992  0.8030  0.1423  0.3413
 9471TIP3   OH249903   5.305   3.163   2.399 -0.1683  0.5254 -0.0177
 9471TIP3    H149904   5.259   3.206   2.326  0.6312 -1.1596 -1.6030
 9471TIP3    H249905   5.257   3.081   2.412 -0.7046  1.0924  1.8620
 9472TIP3   OH249906   2.699   6.590   2.413 -0.6092 -0.5929  0.3654
 9472TIP3    H149907   2.782   6.629   2.440 -0.8105 -0.3991  0.7112
 9472TIP3    H249908   2.643   6.665   2.392 -0.7247 -0.7191  0.2217
 9473TIP3   OH249909   6.359   5.917   1.541 -0.1783  0.0109  0.1888
 9473TIP3    H149910   6.444   5.962   1.534  1.1511 -2.5636 -1.8484
 9473TIP3    H249911   6.316   5.936   1.458 -1.1277  0.2834  0.7236
 9474TIP3   OH249912   0.381   2.667   6.690  0.5886 -0.5440 -0.3043
 9474TIP3    H149913   0.334   2.745   6.720 -1.9795 -1.5698 -1.4165
 9474TIP3    H249914   0.468   2.700   6.665 -0.6028  2.0809 -1.2769
 9475TIP3   OH249915   1.076   2.576   0.886  0.5127  0.2404  0.1601
 9475TIP3    H149916   1.094   2.664   0.852  0.1722  0.2410 -0.0264
 9475TIP3    H249917   1.129   2.518   0.830  0.6517  0.3157  0.2118
 9476TIP3   OH249918   2.536   0.859  16.105  0.1763 -0.3317 -0.0722
 9476TIP3    H149919   2.558   0.852  16.012 -1.8804 -0.5928 -0.5976
 9476TIP3    H249920   2.619   0.847  16.151  1.1803 -0.5496 -1.8550
 9477TIP3   OH249921   2.689   1.271   1.776 -0.7628  0.1165  0.1748
 9477TIP3    H149922   2.723   1.183   1.764 -0.9902 -0.0263  0.5826
 9477TIP3    H249923   2.760   1.319   1.818 -1.0499 -0.1740  1.0017
 9478TIP3   OH249924   5.766   0.632  16.989  0.0678  0.6513 -0.1593
 9478TIP3    H149925   5.683   0.627  16.941  0.1737  1.0865 -0.3883
 9478TIP3    H249926   5.740   0.632  17.082 -0.1650  0.4267 -0.2234
 9479TIP3   OH249927   3.280   4.524   6.099  0.1925  0.0139 -0.5579
 9479TIP3    H149928   3.200   4.473   6.098  0.7274 -0.8657 -0.0384
 9479TIP3    H249929   3.259   4.601   6.153 -0.8253  0.7212 -1.9203
 9480TIP3   OH249930   1.781   1.894   5.438  0.0427 -0.1145 -0.3136
 9480TIP3    H149931   1.703   1.851   5.473 -0.4365  1.5330  0.7495
 9480TIP3    H249932   1.787   1.863   5.348 -0.4360 -2.1230  0.2848
 9481TIP3   OH249933   0.233   6.570   0.677 -0.4125  0.2950  0.1486
 9481TIP3    H149934   0.225   6.658   0.643 -2.2969 -0.0698 -0.4671
 9481TIP3    H249935   0.206   6.577   0.769  1.1553  0.6385  0.6095
 9482TIP3   OH249936   3.665   3.550   0.433  0.2216  0.0806 -0.0385
 9482TIP3    H149937   3.710   3.489   0.375 -0.1513  0.5419 -0.8427
 9482TIP3    H249938   3.572   3.532   0.419  0.1383 -0.2859  0.9579
 9483TIP3   OH249939   0.276   4.096  16.660 -0.2585  0.0428 -0.3181
 9483TIP3    H149940   0.193   4.137  16.681  0.3518  1.7089 -1.0039
 9483TIP3    H249941   0.297   4.126  16.572  0.8765 -0.6752 -0.3200
 9484TIP3   OH249942   1.752   1.843   0.434  0.3224  0.2093 -0.0125
 9484TIP3    H149943   1.846   1.846   0.455  0.8600 -0.4368 -2.1022
 9484TIP3    H249944   1.728   1.751   0.445 -0.5669  0.6420  2.2586
 9485TIP3   OH249945   4.776   1.844   6.123  0.4577  0.1985  0.4131
 9485TIP3    H149946   4.847   1.813   6.179  0.8050  1.1975  0.5403
 9485TIP3    H249947   4.776   1.939   6.133  1.0020  0.5057 -1.8311
 9486TIP3   OH249948   0.173   0.635   3.742  0.3217 -0.3629  0.2318
 9486TIP3    H149949   0.140   0.637   3.652 -0.6529  0.5901  0.5874
 9486TIP3    H249950   0.265   0.660   3.734 -0.1711  1.4644 -0.3626
 9487TIP3   OH249951   1.884   2.342  13.298  0.5161 -0.0282 -0.9603
 9487TIP3    H149952   1.831   2.326  13.220  0.1847  0.8003 -0.9137
 9487TIP3    H249953   1.880   2.437  13.311  2.0027  0.0677 -0.9596
 9488TIP3   OH249954   1.752   3.374  13.947  0.1305 -0.2307 -0.2836
 9488TIP3    H149955   1.761   3.385  14.042 -0.5530 -1.4662 -0.0485
 9488TIP3    H249956   1.766   3.462  13.911  2.4457 -0.1134  0.7704
 9489TIP3   OH249957   2.094   4.014   3.855  0.2627  0.4714 -0.6888
 9489TIP3    H149958   2.020   3.953   3.861  0.3071  0.5289  1.5595
 9489TIP3    H249959   2.169   3.959   3.833 -0.0936  0.0856 -0.9646
 9490TIP3   OH249960   6.597   2.746  11.697  0.0484  0.0826 -0.2362
 9490TIP3    H149961   6.578   2.701  11.614 -0.4903  0.8183 -0.5256
 9490TIP3    H249962   6.682   2.711  11.724 -0.2527 -0.9499 -0.5521
 9491TIP3   OH249963   5.218   6.175   0.841  0.2315 -0.1235 -0.1709
 9491TIP3    H149964   5.188   6.210   0.925 -1.7062 -1.7515 -0.1022
 9491TIP3    H249965   5.250   6.087   0.862  0.1052 -0.3945 -1.0720
 9492TIP3   OH249966   0.477   0.825  11.456  0.4896  0.6245 -0.0552
 9492TIP3    H149967   0.435   0.755  11.506  1.0780 -0.2276 -0.7261
 9492TIP3    H249968   0.463   0.904  11.509  2.2984 -0.4467  2.2056
 9493TIP3   OH249969   1.611   0.128  11.433 -0.6710  0.5100 -0.0371
 9493TIP3    H149970   1.686   0.133  11.374 -0.4441  0.4711  0.2463
 9493TIP3    H249971   1.550   0.067  11.389 -0.4776  0.4298 -0.1977
 9494TIP3   OH249972   5.601   6.448  13.325 -0.1730  0.4508 -0.1252
 9494TIP3    H149973   5.631   6.536  13.346  0.4781 -0.1161  1.4589
 9494TIP3    H249974   5.633   6.432  13.236  1.1826  1.1832  0.2137
 9495TIP3   OH249975   5.476   5.406   5.733 -0.3924 -0.5212  0.0523
 9495TIP3    H149976   5.486   5.478   5.795  0.8062  0.0467 -0.7721
 9495TIP3    H249977   5.414   5.346   5.776 -1.2784  0.8886  0.8296
 9496TIP3   OH249978   3.728   4.608  13.244 -0.0431 -0.1100 -0.2259
 9496TIP3    H149979   3.676   4.562  13.309  1.0184 -1.8437 -0.5406
 9496TIP3    H249980   3.757   4.540  13.184 -1.1274  1.4629 -2.6538
 9497TIP3   OH249981   3.065   2.513   5.004  0.2626  0.2220 -0.0056
 9497TIP3    H149982   2.985   2.465   4.983 -1.1742  2.7558 -0.6271
 9497TIP3    H249983   3.098   2.542   4.919 -0.2124  2.2797  0.4757
 9498TIP3   OH249984   4.055   3.243   2.946 -0.6461  0.1108 -0.1741
 9498TIP3    H149985   4.065   3.178   3.015 -2.1332 -1.2028 -1.1290
 9498TIP3    H249986   4.059   3.327   2.992  1.4725 -0.6019  1.0596
 9499TIP3   OH249987   1.588   0.361  13.527  0.3841 -0.5166  0.0435
 9499TIP3    H149988   1.577   0.440  13.474  0.0186 -1.0341 -0.6551
 9499TIP3    H249989   1.635   0.300  13.471  1.1894 -0.5969  0.7892
 9500TIP3   OH249990   2.988   3.139   1.948 -0.2845  0.5390  0.2148
 9500TIP3    H149991   2.961   3.113   2.036 -2.5447  0.6536 -0.3744
 9500TIP3    H249992   3.047   3.070   1.919  1.0195  0.8353  2.0375
 9501TIP3   OH249993   5.367   5.603  13.072 -0.7810 -0.0400  0.2240
 9501TIP3    H149994   5.437   5.576  13.012  0.7324  1.4485  1.2183
 9501TIP3    H249995   5.400   5.684  13.112 -2.1208 -0.4677  2.3652
 9502TIP3   OH249996   2.097   5.713   3.413  0.1422  0.3085 -0.4585
 9502TIP3    H149997   2.099   5.639   3.473  0.1461 -0.6828 -1.6465
 9502TIP3    H249998   2.042   5.778   3.457  0.2691 -0.3254  0.6719
 9503TIP3   OH249999   0.970   3.062   2.278  0.2540 -0.3551 -0.3855
 9503TIP3    H150000   0.965   3.089   2.186 -1.4116 -1.0395 -0.5317
 9503TIP3    H250001   0.917   3.126   2.325 -2.3073 -2.2718 -0.5060
 9504TIP3   OH250002   2.586   5.864   2.513  0.1663 -0.2970 -0.2869
 9504TIP3    H150003   2.552   5.946   2.547  2.3589  0.8524 -0.6779
 9504TIP3    H250004   2.675   5.859   2.547  0.7907 -1.4738 -1.9455
 9505TIP3   OH250005   6.186   5.925   1.287 -0.4734  0.4413  0.1640
 9505TIP3    H150006   6.231   5.888   1.212 -0.6026  0.7061 -0.0454
 9505TIP3    H250007   6.163   6.014   1.260 -0.1333  0.6914  0.6725
 9506TIP3   OH250008   6.643   4.247  12.624  0.8010  0.3940 -0.3974
 9506TIP3    H150009   6.690   4.197  12.691 -0.0229 -1.5418 -1.1863
 9506TIP3    H250010   6.696   4.239  12.545 -0.0133 -0.4359 -0.8794
 9507TIP3   OH250011   1.256   4.108  16.366 -0.2589 -0.1215 -0.2666
 9507TIP3    H150012   1.242   4.165  16.442  3.9172 -1.0356  1.4338
 9507TIP3    H250013   1.328   4.150  16.318  1.2337 -2.6140 -0.3319
 9508TIP3   OH250014   3.859   2.786   5.360  0.0465  0.1748 -0.7547
 9508TIP3    H150015   3.931   2.724   5.366 -0.4435 -0.3651 -0.2234
 9508TIP3    H250016   3.794   2.743   5.304 -1.9256 -1.5542  2.5362
 9509TIP3   OH250017   3.542   3.768  13.463  0.1175 -0.3761  0.9401
 9509TIP3    H150018   3.638   3.763  13.460  0.0232 -2.3725 -1.0546
 9509TIP3    H250019   3.521   3.850  13.418  0.8681 -0.1090  1.0625
 9510TIP3   OH250020   1.376   3.089  15.294  0.4629  0.4435 -0.5249
 9510TIP3    H150021   1.385   3.076  15.200 -0.9941  1.3502 -0.8313
 9510TIP3    H250022   1.283   3.071  15.312  0.6540  0.5730  0.6880
 9511TIP3   OH250023   4.355   5.603  11.446  0.2979  0.5247  0.0742
 9511TIP3    H150024   4.341   5.604  11.352  0.2138  1.2890  0.0872
 9511TIP3    H250025   4.448   5.583  11.457  0.2682  0.2449 -0.1570
 9512TIP3   OH250026   3.525   0.875   5.533 -0.3744 -0.1890 -0.1770
 9512TIP3    H150027   3.546   0.866   5.440  0.8078  1.1491 -0.0861
 9512TIP3    H250028   3.606   0.851   5.578 -0.6201  0.1427  0.4489
 9513TIP3   OH250029   4.472   5.089   5.277  0.2899 -0.2861 -0.3640
 9513TIP3    H150030   4.401   5.113   5.218 -0.7572  2.3159  1.7180
 9513TIP3    H250031   4.551   5.125   5.237 -0.5075  2.1371  0.0678
 9514TIP3   OH250032   0.048   2.851   4.535  0.0319 -0.6912 -0.5637
 9514TIP3    H150033  -0.026   2.811   4.489  0.2086 -0.3953 -1.1161
 9514TIP3    H250034   0.046   2.812   4.622 -2.5659  1.4349  0.4591
 9515TIP3   OH250035   2.379   1.432   4.231 -0.0504 -0.0583 -0.2576
 9515TIP3    H150036   2.426   1.378   4.168 -0.7628 -0.0989 -0.7715
 9515TIP3    H250037   2.309   1.376   4.263 -1.0815  0.6702 -1.1324
 9516TIP3   OH250038   1.200   4.142   4.016  0.6588  0.6143 -0.2219
 9516TIP3    H150039   1.221   4.147   3.923 -1.0758 -2.4285 -0.9122
 9516TIP3    H250040   1.108   4.169   4.021  0.7484  0.7938  0.6400
 9517TIP3   OH250041   4.579   5.602  13.376 -0.1147 -0.4924  0.1395
 9517TIP3    H150042   4.607   5.693  13.387  0.6869 -0.4864 -1.6042
 9517TIP3    H250043   4.661   5.552  13.375 -0.3866 -0.9562 -1.0570
 9518TIP3   OH250044   6.003   0.576   3.889  0.4339  0.4198  0.7932
 9518TIP3    H150045   5.941   0.634   3.844  0.7412  0.9479  1.0434
 9518TIP3    H250046   5.995   0.599   3.981  1.5341  1.0234  0.7541
 9519TIP3   OH250047   6.730   0.049   5.201 -0.1866 -0.1641  0.6231
 9519TIP3    H150048   6.815   0.008   5.218 -0.2000 -1.4724 -1.9371
 9519TIP3    H250049   6.694   0.068   5.288  1.6755 -1.7414  1.8196
 9520TIP3   OH250050   5.252   1.085  14.137 -0.5233  0.4368 -0.6214
 9520TIP3    H150051   5.339   1.110  14.171 -0.7516 -0.7317  0.9435
 9520TIP3    H250052   5.202   1.167  14.139 -0.4485  0.5133  1.7958
 9521TIP3   OH250053   4.095   5.006  17.053  0.5993 -0.4709 -0.4378
 9521TIP3    H150054   4.086   4.942  16.982 -0.2752 -0.7607 -0.0821
 9521TIP3    H250055   4.008   5.044  17.062  1.0902  0.7152 -0.5768
 9522TIP3   OH250056   5.422   2.483   3.135  0.4601 -0.0726  0.2954
 9522TIP3    H150057   5.499   2.468   3.080  0.4530 -0.5536  0.4046
 9522TIP3    H250058   5.358   2.418   3.105  0.4341 -0.2940  0.8160
 9523TIP3   OH250059   4.522   1.237  12.193  0.3125  0.0708 -0.4993
 9523TIP3    H150060   4.428   1.256  12.193  0.4430  0.8069  0.4606
 9523TIP3    H250061   4.539   1.203  12.281  1.2976  2.0362  0.1349
 9524TIP3   OH250062   4.930   5.927  16.781  0.0331 -0.2802  0.3144
 9524TIP3    H150063   4.990   5.866  16.740 -1.2986 -0.7310 -1.0318
 9524TIP3    H250064   4.943   6.010  16.734 -0.9203 -0.5846 -0.5168
 9525TIP3   OH250065   4.036   4.498  13.859 -0.0662 -0.3320  0.2794
 9525TIP3    H150066   4.101   4.548  13.809 -0.1065 -0.3205  0.2381
 9525TIP3    H250067   3.964   4.559  13.873 -0.2735 -0.4887 -0.0876
 9526TIP3   OH250068   1.399   1.321  12.030  0.3854 -0.0601 -0.0335
 9526TIP3    H150069   1.433   1.409  12.014  0.3028  0.7574  3.4555
 9526TIP3    H250070   1.477   1.269  12.050  0.1808  0.1918  1.5336
 9527TIP3   OH250071   0.122   2.929   1.582 -0.0208  0.1312 -0.4280
 9527TIP3    H150072   0.142   2.839   1.606  2.5669  0.5121 -0.8289
 9527TIP3    H250073   0.115   2.976   1.665 -1.4540 -0.4123 -0.2160
 9528TIP3   OH250074   3.903   6.125  11.367 -0.0953  0.2759 -0.1017
 9528TIP3    H150075   3.808   6.129  11.376 -0.1290  0.0863 -0.3743
 9528TIP3    H250076   3.921   6.174  11.286  0.0578  0.5024  0.0682
 9529TIP3   OH250077   1.178   1.072  11.432 -0.1364 -0.2148  0.0398
 9529TIP3    H150078   1.234   1.080  11.509 -1.4006  2.0219  0.7916
 9529TIP3    H250079   1.168   0.977  11.420  1.7034 -0.6375  1.3780
 9530TIP3   OH250080   6.180   5.626   3.076  0.7097  0.3123  0.2091
 9530TIP3    H150081   6.252   5.573   3.111  1.8715  2.4616  1.2075
 9530TIP3    H250082   6.122   5.641   3.150  0.0821 -0.0075 -0.2044
 9531TIP3   OH250083   4.100   0.276   5.440 -0.1544  0.2821  0.1777
 9531TIP3    H150084   4.123   0.326   5.518 -1.4820  0.1208  0.7076
 9531TIP3    H250085   4.020   0.318   5.407 -0.1939 -0.2928 -0.4929
 9532TIP3   OH250086   4.173   0.504   1.202 -0.6248  0.3363  0.0754
 9532TIP3    H150087   4.259   0.474   1.174 -0.2174  0.7626  0.8230
 9532TIP3    H250088   4.136   0.548   1.126  0.2724  1.1050  0.0644
 9533TIP3   OH250089   4.806   0.807   5.740  0.0454  0.2595 -0.1292
 9533TIP3    H150090   4.807   0.893   5.782 -0.9809  1.0111 -1.5718
 9533TIP3    H250091   4.898   0.788   5.723  0.2729  1.1183  0.0924
 9534TIP3   OH250092   0.953   2.518   0.335 -0.1333 -0.7197 -0.6218
 9534TIP3    H150093   0.865   2.487   0.311 -0.3672 -0.7603  0.2436
 9534TIP3    H250094   0.962   2.602   0.289 -0.3810 -1.0006 -1.1964
 9535TIP3   OH250095   0.156   2.754   4.006  0.3594 -0.1620  0.0946
 9535TIP3    H150096   0.092   2.701   4.054  0.7368 -0.4308  0.3090
 9535TIP3    H250097   0.133   2.845   4.028  0.2203 -0.2643  0.3848
 9536TIP3   OH250098   0.547   6.143  11.068 -0.1000  0.3627  0.0716
 9536TIP3    H150099   0.620   6.104  11.117  0.3543  1.3048  0.1688
 9536TIP3    H250100   0.532   6.083  10.995 -2.2474 -2.2876  2.4913
 9537TIP3   OH250101   4.848   5.328  16.303  0.8045  0.1781 -0.0139
 9537TIP3    H150102   4.753   5.316  16.308  0.4632  1.9124 -1.2906
 9537TIP3    H250103   4.884   5.240  16.310 -1.2268 -1.5092 -5.5223
 9538TIP3   OH250104   4.493   4.677  16.738 -0.4322  0.7535 -0.0967
 9538TIP3    H150105   4.517   4.600  16.686 -1.9743 -0.9942  1.6003
 9538TIP3    H250106   4.434   4.726  16.681 -0.1904  0.1893 -0.8621
 9539TIP3   OH250107   0.480   1.973   4.729 -0.2270 -0.2867 -0.1364
 9539TIP3    H150108   0.508   2.055   4.770  1.3394 -0.8612  0.0058
 9539TIP3    H250109   0.399   1.995   4.684  0.7019  1.6010 -0.9865
 9540TIP3   OH250110   6.252   1.261  16.327  0.2592 -0.0922 -0.1915
 9540TIP3    H150111   6.315   1.327  16.355 -2.1711  2.3969 -0.1146
 9540TIP3    H250112   6.290   1.224  16.247  1.4075  2.0222 -0.7142
 9541TIP3   OH250113   3.939   0.398   0.716 -0.2908  0.1321  0.1749
 9541TIP3    H150114   3.845   0.413   0.720 -0.1848  1.1543 -0.7793
 9541TIP3    H250115   3.952   0.317   0.765 -1.4791  0.7472  1.6031
 9542TIP3   OH250116   0.838   0.809   3.305  0.2229 -0.5260 -0.4203
 9542TIP3    H150117   0.881   0.771   3.382 -0.5539 -0.6632 -0.0353
 9542TIP3    H250118   0.751   0.834   3.337 -0.3475 -1.1549 -1.3991
 9543TIP3   OH250119   4.200   5.005   5.258  0.3525  0.0943 -0.0507
 9543TIP3    H150120   4.240   4.923   5.227 -0.0598  0.0697 -0.5258
 9543TIP3    H250121   4.177   5.052   5.178  1.9944  1.3900  0.1852
 9544TIP3   OH250122   2.014   6.173   2.901 -0.0239  0.2731 -0.0694
 9544TIP3    H150123   2.033   6.117   2.825 -2.6973  0.8213 -1.2432
 9544TIP3    H250124   2.080   6.242   2.897  0.8210 -0.5554 -0.9873
 9545TIP3   OH250125   0.229   6.799  12.022 -0.4238 -0.2371  0.5141
 9545TIP3    H150126   0.158   6.806  12.086 -0.2022 -1.1684  0.8824
 9545TIP3    H250127   0.187   6.763  11.944 -0.4257 -0.4989  0.6321
 9546TIP3   OH250128   2.837   0.394   4.185 -1.3627 -0.5397  1.1246
 9546TIP3    H150129   2.866   0.314   4.228 -1.1513 -0.1274  1.7522
 9546TIP3    H250130   2.756   0.369   4.140 -0.6236 -1.4329  0.2303
 9547TIP3   OH250131   3.429   6.480   6.747  0.4104  0.4719  0.4920
 9547TIP3    H150132   3.444   6.545   6.816  1.8787  1.5759 -0.7789
 9547TIP3    H250133   3.343   6.504   6.710  1.1099  2.0395 -0.2356
 9548TIP3   OH250134   4.515   1.219  16.514  0.4941  0.4825  0.2359
 9548TIP3    H150135   4.508   1.150  16.581  0.1240  1.4004  1.1644
 9548TIP3    H250136   4.508   1.172  16.431  3.3043 -1.0142  0.7096
 9549TIP3   OH250137   3.234   6.233  15.428  0.4665  0.0882  0.3397
 9549TIP3    H150138   3.215   6.166  15.493 -1.1885  0.8121  0.6500
 9549TIP3    H250139   3.253   6.185  15.348  0.2312 -0.7724  0.7960
 9550TIP3   OH250140   4.095   6.369  14.239  0.4844 -0.8418  0.3872
 9550TIP3    H150141   4.046   6.441  14.279  0.4835 -0.8576  0.4145
 9550TIP3    H250142   4.180   6.371  14.283  0.5589 -0.7221  0.2358
 9551TIP3   OH250143   6.106   6.318   0.572  0.5861  0.5230 -0.3104
 9551TIP3    H150144   6.199   6.339   0.576  0.7075 -0.0912  0.5335
 9551TIP3    H250145   6.064   6.385   0.627  0.6950 -0.0079  0.4280
 9552TIP3   OH250146   4.058   1.062  16.242  0.0373 -0.2666 -0.1180
 9552TIP3    H150147   4.012   0.993  16.194  0.3862  0.4808 -1.5866
 9552TIP3    H250148   4.027   1.143  16.201 -0.3834  0.4682  1.5875
 9553TIP3   OH250149   6.693   4.601   3.043  0.2434  0.2938 -0.1794
 9553TIP3    H150150   6.748   4.664   3.088  0.3711  0.5950 -0.7476
 9553TIP3    H250151   6.665   4.646   2.963  1.1531 -0.7102 -1.1067
 9554TIP3   OH250152   5.517   0.244  16.698 -0.1446  0.2183 -0.1777
 9554TIP3    H150153   5.598   0.272  16.739 -0.3335  1.4290 -0.5812
 9554TIP3    H250154   5.519   0.284  16.611 -0.1799 -1.5316 -1.0209
 9555TIP3   OH250155   3.462   3.812   2.876  0.4252 -0.5464  0.3285
 9555TIP3    H150156   3.512   3.888   2.846 -0.5577 -0.1347 -0.3306
 9555TIP3    H250157   3.520   3.767   2.937  0.8402  1.0109  1.1109
 9556TIP3   OH250158   2.912   5.183   4.649 -0.0122 -0.1748  0.2315
 9556TIP3    H150159   2.903   5.161   4.742 -1.1234 -1.5705 -0.1743
 9556TIP3    H250160   2.967   5.113   4.614 -1.8804 -1.2534 -0.6761
 9557TIP3   OH250161   3.527   3.786  15.191  0.4730  0.1004  0.0782
 9557TIP3    H150162   3.552   3.847  15.121 -0.5599  1.5588  0.9285
 9557TIP3    H250163   3.451   3.740  15.156 -0.1682  0.9729  0.2940
 9558TIP3   OH250164   1.193   0.928   5.504  0.4203  0.4741  0.1832
 9558TIP3    H150165   1.195   1.003   5.445  2.5624  1.4785  1.4031
 9558TIP3    H250166   1.251   0.864   5.463  1.1512  0.7913  0.7095
 9559TIP3   OH250167   0.499   1.764   1.707  0.2613 -0.5009  0.0419
 9559TIP3    H150168   0.486   1.684   1.657  1.2888  1.4630 -3.7258
 9559TIP3    H250169   0.593   1.768   1.724  0.4728  0.6157 -1.2409
 9560TIP3   OH250170   3.395   0.802   1.460 -0.1737  0.2699 -0.8389
 9560TIP3    H150171   3.474   0.790   1.407  0.1127 -2.3928  0.0237
 9560TIP3    H250172   3.417   0.874   1.519  1.1357  0.4334 -1.4739
 9561TIP3   OH250173   6.504   0.623  12.292 -0.1628 -0.1448  0.5946
 9561TIP3    H150174   6.538   0.703  12.332  1.6972 -0.0881 -0.9828
 9561TIP3    H250175   6.579   0.563  12.292 -0.9681 -1.1762 -0.0528
 9562TIP3   OH250176   6.442   6.774   2.567  0.3230  0.2743 -0.1147
 9562TIP3    H150177   6.522   6.824   2.551  0.8519 -1.1548 -2.2145
 9562TIP3    H250178   6.424   6.728   2.485  0.0790 -3.2963  1.7412
 9563TIP3   OH250179   1.265   5.606   1.753 -0.0227 -0.8586 -0.3184
 9563TIP3    H150180   1.304   5.607   1.840  0.0780 -0.6241 -0.3649
 9563TIP3    H250181   1.312   5.674   1.705 -1.8144  0.8682  0.2252
 9564TIP3   OH250182   6.536   1.933  15.182  0.1951  0.0687  0.3827
 9564TIP3    H150183   6.480   1.903  15.253 -0.7949 -0.4356 -0.5849
 9564TIP3    H250184   6.621   1.893  15.199  0.2405  0.7284  1.7949
 9565TIP3   OH250185   4.927   2.861  16.624  0.2513 -0.2947 -0.4373
 9565TIP3    H150186   5.013   2.820  16.619  1.1453  1.5870 -3.8568
 9565TIP3    H250187   4.936   2.929  16.690  1.3720 -0.1947 -0.6729
 9566TIP3   OH250188   2.236   0.087   0.356 -0.2939  0.3597 -0.3755
 9566TIP3    H150189   2.275   0.004   0.329  1.8888  0.8642  0.9393
 9566TIP3    H250190   2.278   0.106   0.440 -2.5553  1.6217  0.5415
 9567TIP3   OH250191   5.106   1.815   2.858  0.0320  0.6569 -0.0428
 9567TIP3    H150192   5.137   1.886   2.802 -1.4788  1.2555 -0.1660
 9567TIP3    H250193   5.150   1.737   2.825  0.0991  1.2047 -1.2900
 9568TIP3   OH250194   3.435   3.538   3.053 -0.0657  0.4154  0.7131
 9568TIP3    H150195   3.426   3.487   2.973  0.7268  1.9803 -0.4225
 9568TIP3    H250196   3.353   3.524   3.100 -0.2594 -1.0752 -0.0351
 9569TIP3   OH250197   4.636   3.585  15.777 -0.4876 -0.4199 -0.4771
 9569TIP3    H150198   4.671   3.518  15.836 -2.8295 -1.1925  0.1437
 9569TIP3    H250199   4.580   3.536  15.717 -1.4815  0.8780 -0.6305
 9570TIP3   OH250200   0.213   2.488  13.046  0.0650  0.0421  0.3009
 9570TIP3    H150201   0.273   2.424  13.085  1.2548  0.8954 -0.0800
 9570TIP3    H250202   0.268   2.563  13.025 -1.0182  0.5905 -0.7074
 9571TIP3   OH250203   4.454   4.810   0.029  0.0386 -0.1301  0.1234
 9571TIP3    H150204   4.493   4.834  -0.055 -0.4987  0.8504  0.1366
 9571TIP3    H250205   4.529   4.796   0.087  0.4010 -0.1615 -0.3446
 9572TIP3   OH250206   4.333   2.137   6.087 -0.5678  0.2269  0.1800
 9572TIP3    H150207   4.294   2.178   6.164  2.2958  0.0208  1.8564
 9572TIP3    H250208   4.375   2.209   6.040 -4.9388  1.0142 -3.2572
 9573TIP3   OH250209   4.165   5.735   5.023  0.2464 -0.4799  0.0359
 9573TIP3    H150210   4.152   5.798   4.952  1.4706  0.2601  0.4298
 9573TIP3    H250211   4.077   5.714   5.053 -0.2406 -0.0142 -1.0145
 9574TIP3   OH250212   4.986   0.199  15.022 -0.0669  0.4597 -0.1364
 9574TIP3    H150213   5.035   0.179  14.942  1.0800  2.2318  0.0664
 9574TIP3    H250214   4.904   0.151  15.012  1.8565 -3.1785 -0.2056
 9575TIP3   OH250215   5.693   0.802   5.982 -0.0676  0.0462 -0.0104
 9575TIP3    H150216   5.690   0.770   5.891 -0.1069 -0.5431  0.1939
 9575TIP3    H250217   5.607   0.779   6.018 -0.3098  0.9032 -0.0229
 9576TIP3   OH250218   5.493   5.219  16.076 -0.7682  0.0914 -0.1294
 9576TIP3    H150219   5.509   5.304  16.035 -2.5988 -0.2564 -1.7338
 9576TIP3    H250220   5.542   5.157  16.022  0.5144  0.0768  1.0010
 9577TIP3   OH250221   0.750   2.440  12.020  0.1804 -0.0953  0.0211
 9577TIP3    H150222   0.808   2.499  11.972  1.3069 -1.4340 -0.3206
 9577TIP3    H250223   0.803   2.362  12.037 -0.3953 -0.0066  2.7856
 9578TIP3   OH250224   2.239   1.078   1.972 -0.8376  0.7869  0.0692
 9578TIP3    H150225   2.151   1.096   2.005 -1.3721  1.4814 -1.6213
 9578TIP3    H250226   2.225   1.033   1.889  0.3462  2.3091 -1.0185
 9579TIP3   OH250227   3.210   6.037   3.858 -0.2687  0.1024  0.2597
 9579TIP3    H150228   3.301   6.052   3.882  0.3711 -2.3811 -0.3110
 9579TIP3    H250229   3.193   6.099   3.787  1.0654  0.4550  0.2250
 9580TIP3   OH250230   5.678   5.803   2.128  0.0303 -0.3743  0.2647
 9580TIP3    H150231   5.692   5.738   2.196  1.9375 -1.1675 -0.8241
 9580TIP3    H250232   5.607   5.767   2.075  0.0237 -0.7970  0.5596
 9581TIP3   OH250233   4.204   6.737   0.111  0.6176  0.2441  0.0653
 9581TIP3    H150234   4.130   6.683   0.085  2.5681 -2.5534 -0.1404
 9581TIP3    H250235   4.185   6.823   0.074 -2.2663 -0.4541 -0.3477
 9582TIP3   OH250236   3.791   6.178   5.453 -0.0395 -0.1250  0.4074
 9582TIP3    H150237   3.787   6.273   5.463  0.9542 -0.0109 -0.1446
 9582TIP3    H250238   3.881   6.155   5.474 -0.7240 -1.1961  2.3496
 9583TIP3   OH250239   5.374   4.902  15.825 -0.0466 -0.3241  0.5322
 9583TIP3    H150240   5.411   4.982  15.786 -3.6900  3.2671  3.5483
 9583TIP3    H250241   5.449   4.860  15.868  1.9720  1.6039 -0.8277
 9584TIP3   OH250242   3.381   2.485  16.965  0.2356  0.0564  0.4651
 9584TIP3    H150243   3.413   2.425  16.897  0.0898  0.3476  0.1378
 9584TIP3    H250244   3.329   2.550  16.917 -1.9657 -1.1380  1.1095
 9585TIP3   OH250245   0.369   3.092  12.578 -0.8014  0.1698 -0.1297
 9585TIP3    H150246   0.395   3.019  12.633 -1.9540  1.2563  1.9936
 9585TIP3    H250247   0.276   3.079  12.562 -0.7472  0.5217 -0.7981
 9586TIP3   OH250248   6.521   6.209  14.376  0.6239 -0.2607 -0.2791
 9586TIP3    H150249   6.587   6.163  14.428 -0.3556 -0.7147  0.5953
 9586TIP3    H250250   6.438   6.188  14.419 -0.1957 -0.4240 -1.8800
 9587TIP3   OH250251   5.341   5.014  11.673  0.1250  0.6051 -0.2977
 9587TIP3    H150252   5.363   5.044  11.585  0.3954  0.6268 -0.2244
 9587TIP3    H250253   5.426   5.005  11.717  0.2556 -1.9729 -0.8715
 9588TIP3   OH250254   1.025   3.000  12.044  0.4888 -0.3179 -0.3800
 9588TIP3    H150255   0.970   2.960  11.977 -0.6200  0.9556 -0.2926
 9588TIP3    H250256   1.107   2.952  12.040  1.2398  0.9386 -4.0641
 9589TIP3   OH250257   0.967   4.725   0.535 -0.0280  0.3775  0.0694
 9589TIP3    H150258   0.945   4.662   0.466  2.1867  0.3739 -0.7414
 9589TIP3    H250259   0.899   4.792   0.530  0.0455  0.3607 -2.1345
 9590TIP3   OH250260   5.103   3.705   0.781  0.1111  0.9659 -0.3980
 9590TIP3    H150261   5.182   3.658   0.751  0.3932  1.4110 -0.3696
 9590TIP3    H250262   5.096   3.683   0.874  0.6918  1.5943 -0.1982
 9591TIP3   OH250263   2.534   2.164   2.443 -0.0515 -0.1061  0.5695
 9591TIP3    H150264   2.568   2.081   2.477  0.0593  0.1318  1.0497
 9591TIP3    H250265   2.594   2.230   2.477 -0.9471  0.3128  1.3749
 9592TIP3   OH250266   3.117   2.017   1.463  0.4304  0.4464  0.3246
 9592TIP3    H150267   3.184   1.950   1.451  0.5490  0.2939  1.6779
 9592TIP3    H250268   3.116   2.034   1.557  0.1933  2.1464  0.0510
 9593TIP3   OH250269   5.753   4.665  13.754 -0.0915 -0.6129  0.1812
 9593TIP3    H150270   5.827   4.644  13.697 -1.2180 -0.3526 -1.4476
 9593TIP3    H250271   5.686   4.699  13.695  0.1288  3.8062  2.1047
 9594TIP3   OH250272   3.424   6.514  13.755  0.1144  0.4893 -0.2674
 9594TIP3    H150273   3.397   6.561  13.677 -0.4577  1.4644  0.4949
 9594TIP3    H250274   3.471   6.438  13.722 -1.3150  0.1282 -1.5971
 9595TIP3   OH250275   1.156   5.684   4.215 -0.5564 -0.0110  0.1193
 9595TIP3    H150276   1.067   5.720   4.211 -0.7416 -0.4417  0.2740
 9595TIP3    H250277   1.178   5.663   4.124  0.1169  1.8112 -0.1820
 9596TIP3   OH250278   4.728   3.783   1.100 -0.0973 -0.0453  0.1147
 9596TIP3    H150279   4.688   3.736   1.173  1.0913 -2.1537 -0.5128
 9596TIP3    H250280   4.812   3.814   1.134 -0.0790  0.0377 -0.0048
 9597TIP3   OH250281   2.208   5.999  10.701  0.2389  0.0898 -0.1046
 9597TIP3    H150282   2.166   6.003  10.615  0.2459 -0.9660 -0.1701
 9597TIP3    H250283   2.141   6.028  10.762 -0.3604 -0.8366 -0.2928
 9598TIP3   OH250284   4.916   0.511  12.405  0.0759 -0.0978 -0.0943
 9598TIP3    H150285   4.883   0.519  12.495  1.2435  1.4173  0.2304
 9598TIP3    H250286   4.963   0.428  12.405  0.6325  0.1987  0.8940
 9599TIP3   OH250287   0.225   4.815  15.392  0.0114  0.2700 -0.5114
 9599TIP3    H150288   0.185   4.750  15.449  1.8930 -0.8571 -0.3921
 9599TIP3    H250289   0.310   4.778  15.369  0.0930  1.5369 -2.5468
 9600TIP3   OH250290   2.816   5.453   0.183  0.4825 -0.5513  0.1464
 9600TIP3    H150291   2.832   5.372   0.135  1.4510 -0.4571  0.2958
 9600TIP3    H250292   2.884   5.513   0.151 -1.2801  0.8064 -1.3089
 9601TIP3   OH250293   2.742   0.923  12.344  0.6937  0.4021  0.1970
 9601TIP3    H150294   2.819   0.872  12.319  0.1471 -0.2518 -0.1689
 9601TIP3    H250295   2.778   1.008  12.371  1.4901  0.3547 -0.6535
 9602TIP3   OH250296   5.699   4.971  15.762 -0.1123 -0.4369  0.2117
 9602TIP3    H150297   5.706   5.066  15.766 -2.2193 -0.2828  1.8098
 9602TIP3    H250298   5.659   4.953  15.677 -0.0577  0.1141  0.0689
 9603TIP3   OH250299   4.210   0.439   2.103 -0.8227  0.0964  0.7954
 9603TIP3    H150300   4.178   0.487   2.026  1.1696  2.9866  1.5567
 9603TIP3    H250301   4.144   0.455   2.170 -1.2468 -0.0944  0.4268
 9604TIP3   OH250302   1.006   1.077  16.620 -0.0336 -0.3541  0.5903
 9604TIP3    H150303   1.099   1.087  16.644 -0.1846 -0.5081  1.2834
 9604TIP3    H250304   0.996   1.126  16.538  0.4109  0.6236  1.0993
 9605TIP3   OH250305   0.610   1.495  15.751  0.2179 -0.1216  0.2701
 9605TIP3    H150306   0.669   1.454  15.688 -0.9767  0.5853 -1.4180
 9605TIP3    H250307   0.544   1.539  15.696 -2.0427 -1.1028  2.0162
 9606TIP3   OH250308   5.448   0.470   4.790  0.4623 -0.5167 -0.2343
 9606TIP3    H150309   5.527   0.487   4.739  2.0926 -1.8054  1.7378
 9606TIP3    H250310   5.463   0.385   4.831 -1.3731 -0.1739  1.2815
 9607TIP3   OH250311   2.147   0.056   3.551  0.0128  0.0777  0.0419
 9607TIP3    H150312   2.109  -0.031   3.561 -0.2958  0.0528 -1.2349
 9607TIP3    H250313   2.123   0.083   3.462 -1.7915  2.3767  1.1134
 9608TIP3   OH250314   4.214   5.532   1.564  0.0676 -0.3263 -0.0239
 9608TIP3    H150315   4.155   5.605   1.586 -0.8111 -0.6683 -1.1469
 9608TIP3    H250316   4.299   5.573   1.551 -0.3144  0.4416 -0.1763
 9609TIP3   OH250317   6.235   0.648   4.796  0.3984  0.0580 -0.3701
 9609TIP3    H150318   6.194   0.568   4.829  0.4037 -0.2470 -1.0850
 9609TIP3    H250319   6.329   0.628   4.797  0.4988  0.5263  0.6647
 9610TIP3   OH250320   2.323   1.672   3.377 -0.2969 -0.0938  0.5914
 9610TIP3    H150321   2.284   1.585   3.384  1.2284 -0.9263 -0.5148
 9610TIP3    H250322   2.298   1.703   3.290 -0.0073  0.1341  0.5842
 9611TIP3   OH250323   6.643   2.597   3.597  0.1357  0.2094  0.2025
 9611TIP3    H150324   6.625   2.663   3.664 -0.1228  0.1081  0.2337
 9611TIP3    H250325   6.650   2.646   3.516 -0.9327  0.1819  0.0879
 9612TIP3   OH250326   2.311   3.264   4.578  0.2235 -0.0289 -0.3336
 9612TIP3    H150327   2.284   3.354   4.558 -0.7051 -0.8321 -3.2701
 9612TIP3    H250328   2.387   3.274   4.635 -0.0494  2.6007 -0.2967
 9613TIP3   OH250329   1.329   4.860  12.508  0.1660 -0.0636  0.1390
 9613TIP3    H150330   1.385   4.813  12.569  1.8160  0.9620 -0.5077
 9613TIP3    H250331   1.326   4.805  12.430 -0.2298 -0.4014  0.3921
 9614TIP3   OH250332   6.162   3.045  11.981 -0.1907 -0.1403 -0.3517
 9614TIP3    H150333   6.106   3.014  11.910  0.6423  0.5767 -1.3440
 9614TIP3    H250334   6.244   3.068  11.938  0.5608 -0.3053  0.9429
 9615TIP3   OH250335   3.251   2.686   2.501 -0.4485 -0.5426 -0.5172
 9615TIP3    H150336   3.197   2.674   2.579 -0.8399  1.3904 -0.4549
 9615TIP3    H250337   3.341   2.689   2.535 -0.4847 -1.2326 -0.3381
 9616TIP3   OH250338   2.723   3.977   0.110 -0.4538 -0.2867 -0.0497
 9616TIP3    H150339   2.645   3.961   0.056  0.8251 -1.2865 -1.7187
 9616TIP3    H250340   2.793   3.930   0.064  0.9140 -0.3456  1.9958
 9617TIP3   OH250341   4.378   3.769  14.053 -0.2551  0.1230  0.0367
 9617TIP3    H150342   4.356   3.704  14.119  0.7193  1.0297  1.2933
 9617TIP3    H250343   4.384   3.719  13.971  0.4056 -1.3537  0.9469
 9618TIP3   OH250344   2.697   2.675   5.215  0.2122 -0.0825  0.2399
 9618TIP3    H150345   2.685   2.589   5.256 -0.7566  1.6965  4.1788
 9618TIP3    H250346   2.635   2.676   5.142  0.2590 -2.6545  0.0780
 9619TIP3   OH250347   6.163   1.097   3.121  0.7606  0.5346 -0.0263
 9619TIP3    H150348   6.172   1.148   3.202  2.8628  1.1507 -0.5815
 9619TIP3    H250349   6.219   1.021   3.133 -1.7303 -1.3805  0.4668
 9620TIP3   OH250350   0.895   4.060  15.609  0.3828 -0.0073 -0.1488
 9620TIP3    H150351   0.874   4.097  15.523  0.3588 -0.5482 -0.3782
 9620TIP3    H250352   0.915   4.137  15.663  2.0728  0.2717 -1.0873
 9621TIP3   OH250353   0.690   0.262  12.727 -0.3648 -0.8277  0.2310
 9621TIP3    H150354   0.620   0.327  12.727  0.7270  0.3929 -0.7858
 9621TIP3    H250355   0.644   0.178  12.734 -1.9375 -0.0663 -0.3635
 9622TIP3   OH250356   4.025   6.152  15.614 -0.1693  0.3732  0.2507
 9622TIP3    H150357   4.062   6.179  15.530 -1.6514 -1.1472 -0.9742
 9622TIP3    H250358   4.005   6.059  15.602 -2.4162  0.6253  1.5315
 9623TIP3   OH250359   5.917   1.038  12.524 -0.5978 -0.1385 -0.5826
 9623TIP3    H150360   5.986   1.043  12.457 -1.2828  1.2948 -1.2345
 9623TIP3    H250361   5.839   1.071  12.480 -1.6195 -1.3244  0.2749
 9624TIP3   OH250362   0.086   0.921  16.263 -0.5922 -0.3335  0.1172
 9624TIP3    H150363  -0.001   0.929  16.224  0.1138 -0.9834 -1.7106
 9624TIP3    H250364   0.141   0.978  16.210  0.2810 -0.6415  0.6687
 9625TIP3   OH250365   5.790   2.611   1.404 -0.2149  0.2877  0.0489
 9625TIP3    H150366   5.823   2.693   1.442 -0.3387  0.4244 -0.1327
 9625TIP3    H250367   5.833   2.542   1.453 -0.5400  0.4620  0.5949
 9626TIP3   OH250368   4.651   6.405  11.517 -0.1507  0.1122  0.9461
 9626TIP3    H150369   4.629   6.428  11.427 -0.8492 -1.3467  0.7146
 9626TIP3    H250370   4.706   6.327  11.509  0.6014  0.5294  1.7642
 9627TIP3   OH250371   0.222   0.473   2.067  0.5673  0.5230 -0.3701
 9627TIP3    H150372   0.187   0.561   2.075 -1.1097 -0.2769  2.3883
 9627TIP3    H250373   0.264   0.456   2.151 -2.0417 -2.3919  0.5508
 9628TIP3   OH250374   3.681   1.098   6.536  0.3507 -0.0522  0.1302
 9628TIP3    H150375   3.633   1.016   6.547 -1.2549  0.5537 -1.6952
 9628TIP3    H250376   3.700   1.127   6.625 -0.2249 -1.7435  0.8369
 9629TIP3   OH250377   3.172   1.578   0.368 -0.3635 -0.5553  0.0715
 9629TIP3    H150378   3.258   1.588   0.327  0.2888 -2.0940  0.9996
 9629TIP3    H250379   3.127   1.660   0.348  1.0827  0.0286 -0.9714
 9630TIP3   OH250380   3.419   4.560  13.849  0.2089 -0.2439  0.2553
 9630TIP3    H150381   3.337   4.607  13.865  0.7451  0.3878  1.1791
 9630TIP3    H250382   3.442   4.582  13.758 -0.0791  0.4408  0.3495
 9631TIP3   OH250383   1.353   3.432  15.295  0.1628  0.0088 -0.2202
 9631TIP3    H150384   1.429   3.425  15.353 -0.2221  0.2425  0.3198
 9631TIP3    H250385   1.295   3.362  15.324  0.3310 -0.4217 -0.8879
 9632TIP3   OH250386   0.742   2.544   5.785 -0.1400 -0.0419 -0.7780
 9632TIP3    H150387   0.822   2.556   5.837 -1.0851  0.4927  0.6139
 9632TIP3    H250388   0.671   2.550   5.849 -1.2950 -0.8146 -1.9338
 9633TIP3   OH250389   5.290   4.556  12.658  0.2178 -0.4603  0.0566
 9633TIP3    H150390   5.223   4.490  12.672  0.1039 -0.2342  0.6144
 9633TIP3    H250391   5.251   4.637  12.690  1.3197 -0.6083  1.9004
 9634TIP3   OH250392   4.114   2.476  13.838  0.3450  0.5929 -0.0537
 9634TIP3    H150393   4.024   2.456  13.863  0.8072  0.4540  1.6284
 9634TIP3    H250394   4.106   2.520  13.753 -1.2881  0.4912  0.0159
 9635TIP3   OH250395   5.246   3.153   0.144 -0.2549 -0.0411 -0.0240
 9635TIP3    H150396   5.246   3.061   0.171 -1.0215  0.2605  1.0767
 9635TIP3    H250397   5.173   3.160   0.083 -1.4752  0.2349  1.4227
 9636TIP3   OH250398   6.178   3.582  16.376  0.5219 -0.3848  0.2060
 9636TIP3    H150399   6.200   3.624  16.459  1.1954  2.9470 -1.4579
 9636TIP3    H250400   6.257   3.592  16.323  0.5678 -3.5939 -0.5193
 9637TIP3   OH250401   2.797   2.005  13.672  0.0437  0.3078  0.5252
 9637TIP3    H150402   2.820   2.064  13.600  1.2756  0.2252  0.8324
 9637TIP3    H250403   2.772   2.064  13.744  2.4536  0.5773  1.2412
 9638TIP3   OH250404   0.208   4.542  15.185 -0.4660  0.6994  0.4846
 9638TIP3    H150405   0.273   4.611  15.171 -2.0371  2.1003 -0.2756
 9638TIP3    H250406   0.218   4.484  15.110  0.8488  0.0750  1.1115
 9639TIP3   OH250407   5.313   0.461  12.973  0.4271 -0.1936 -0.1492
 9639TIP3    H150408   5.258   0.445  13.050  0.6982  0.8134  0.2707
 9639TIP3    H250409   5.309   0.556  12.960 -0.5640 -0.4565 -2.1037
 9640TIP3   OH250410   1.188   0.247  15.244  0.4510 -0.8294  0.0141
 9640TIP3    H150411   1.279   0.269  15.267  0.9215  0.9518 -3.0013
 9640TIP3    H250412   1.193   0.215  15.154 -1.8353 -1.7921  0.1588
 9641TIP3   OH250413   0.341   5.687   3.445  0.2321  0.2939 -0.1984
 9641TIP3    H150414   0.311   5.651   3.529  1.0311  1.4194  0.6063
 9641TIP3    H250415   0.417   5.633   3.422 -0.5270 -0.6009 -0.6870
 9642TIP3   OH250416   0.754   1.004   3.045  0.7336  0.0382  0.6043
 9642TIP3    H150417   0.665   0.972   3.027  0.7568  0.9340 -1.3727
 9642TIP3    H250418   0.810   0.927   3.035  0.3860 -0.1128 -0.2568
 9643TIP3   OH250419   5.582   4.213  16.409  0.1609  0.0147  0.0116
 9643TIP3    H150420   5.610   4.304  16.419 -0.7420  0.4639 -1.3527
 9643TIP3    H250421   5.487   4.215  16.420  0.1910 -0.8660  0.5356
 9644TIP3   OH250422   2.818   6.469  11.739  0.1005  0.2499  0.2670
 9644TIP3    H150423   2.759   6.413  11.790 -0.3324  0.0635 -0.4295
 9644TIP3    H250424   2.832   6.421  11.658  2.1483 -0.2767  0.8590
 9645TIP3   OH250425   2.651   5.401   0.378 -0.2425 -0.2768 -0.7600
 9645TIP3    H150426   2.708   5.419   0.303 -1.1669 -0.3452 -1.5012
 9645TIP3    H250427   2.623   5.310   0.366 -0.1788 -0.3730 -0.1831
 9646TIP3   OH250428   1.507   5.783   3.841 -0.2651 -0.5772  0.6324
 9646TIP3    H150429   1.510   5.815   3.931 -1.3797  0.4405  0.3232
 9646TIP3    H250430   1.415   5.785   3.817  0.0791 -0.2247 -0.7593
 9647TIP3   OH250431   6.802   6.473  11.148 -0.0016  0.1995 -0.1182
 9647TIP3    H150432   6.783   6.541  11.083  0.3143 -0.1713 -0.6001
 9647TIP3    H250433   6.756   6.503  11.227 -2.7002 -0.6891 -1.2411
 9648TIP3   OH250434   3.206   5.176  15.987 -0.0589  0.1793  0.0244
 9648TIP3    H150435   3.113   5.158  15.976  0.0516 -0.5412  0.1549
 9648TIP3    H250436   3.212   5.228  16.067 -0.2044 -1.4599  1.1557
 9649TIP3   OH250437   3.763   5.231   2.465  0.1866  0.2602  0.0245
 9649TIP3    H150438   3.775   5.208   2.557  1.2696  0.0212 -0.1680
 9649TIP3    H250439   3.738   5.149   2.422  0.1610  0.2730  0.0143
 9650TIP3   OH250440   2.497   5.765  16.083  0.2015 -0.3105 -0.2625
 9650TIP3    H150441   2.490   5.670  16.079 -1.7653 -0.1814 -0.9749
 9650TIP3    H250442   2.504   5.785  16.176 -0.9955 -1.0842  0.0060
 9651TIP3   OH250443   6.407   4.207  12.802 -0.0938 -0.4127  0.1315
 9651TIP3    H150444   6.379   4.115  12.811 -0.8015 -0.2255 -0.0940
 9651TIP3    H250445   6.445   4.212  12.715 -2.3965  0.0821 -0.9033
 9652TIP3   OH250446   6.696   2.126  12.235  0.0769 -0.5129 -0.2135
 9652TIP3    H150447   6.650   2.140  12.153  0.6520 -0.2128 -0.4911
 9652TIP3    H250448   6.747   2.046  12.221  2.1864  0.9164 -1.0837
 9653TIP3   OH250449   3.868   5.444  14.497 -0.4313  0.4212 -0.3994
 9653TIP3    H150450   3.849   5.525  14.449  0.2582  0.0754 -1.2971
 9653TIP3    H250451   3.906   5.473  14.580 -2.4906  1.0580  0.3869
 9654TIP3   OH250452   5.503   5.846   0.716 -0.2813  0.3646  1.1652
 9654TIP3    H150453   5.420   5.861   0.761  0.1527  1.3374  1.6737
 9654TIP3    H250454   5.541   5.934   0.705 -0.2130  0.1340 -0.8150
 9655TIP3   OH250455   5.964   6.309  10.448  0.6416 -0.3876 -0.2674
 9655TIP3    H150456   5.948   6.399  10.477  2.4978  0.5451 -1.9008
 9655TIP3    H250457   5.884   6.284  10.401 -0.6580 -0.3651  1.7951
 9656TIP3   OH250458   2.186   0.272  13.598 -0.1115  0.5541 -0.4036
 9656TIP3    H150459   2.148   0.233  13.676  2.0917 -0.0712  0.4371
 9656TIP3    H250460   2.261   0.323  13.631  0.6282  0.6041 -2.0592
 9657TIP3   OH250461   0.361   6.011   1.217  0.3255  0.1220  0.3360
 9657TIP3    H150462   0.314   5.928   1.213 -0.1127  0.2570  2.1019
 9657TIP3    H250463   0.452   5.986   1.234  0.6038 -0.0595 -1.2863
 9658TIP3   OH250464   1.271   1.969  13.428 -1.1772 -0.1386  0.6489
 9658TIP3    H150465   1.343   1.933  13.479  1.3826  0.8055 -2.0042
 9658TIP3    H250466   1.226   1.892  13.392  0.9049 -0.8274 -0.6526
 9659TIP3   OH250467   0.227   6.819  11.231 -0.0497  0.6143  0.1561
 9659TIP3    H150468   0.254   6.856  11.146 -0.8905 -0.3595 -0.5580
 9659TIP3    H250469   0.257   6.728  11.228  0.7150  0.8187  1.2911
 9660TIP3   OH250470   3.257   6.504   3.533  0.0380  0.1196 -0.3625
 9660TIP3    H150471   3.166   6.515   3.561  0.1058 -1.0482  0.3856
 9660TIP3    H250472   3.309   6.520   3.612  0.3558 -1.0999 -0.3018
 9661TIP3   OH250473   6.433   4.408  13.553  0.1847 -0.5031 -0.2165
 9661TIP3    H150474   6.487   4.343  13.509 -2.0524 -1.4314 -1.7458
 9661TIP3    H250475   6.414   4.369  13.638  1.2316 -0.5079  0.0306
 9662TIP3   OH250476   0.933   5.502  12.520 -0.4641 -0.0970 -0.4604
 9662TIP3    H150477   0.883   5.421  12.512 -0.5403 -0.0353 -0.6035
 9662TIP3    H250478   1.024   5.473  12.530 -0.4990 -0.2014 -0.4403
 9663TIP3   OH250479   3.744   2.385   5.145 -0.3841 -0.1689  0.3915
 9663TIP3    H150480   3.728   2.343   5.230  0.2377  0.2632  0.7255
 9663TIP3    H250481   3.738   2.479   5.163 -1.8105 -0.0759 -0.3578
 9664TIP3   OH250482   5.243   2.965   6.565 -0.4928 -0.0558 -0.0989
 9664TIP3    H150483   5.313   2.951   6.629 -0.8408 -0.8318  0.1344
 9664TIP3    H250484   5.217   3.056   6.576 -0.1878 -0.0380  0.5022
 9665TIP3   OH250485   3.674   3.153   5.388  0.3734  0.4042 -0.2103
 9665TIP3    H150486   3.635   3.240   5.378 -1.3834 -0.3625 -0.3973
 9665TIP3    H250487   3.701   3.128   5.300  0.2576  0.4823 -0.2682
 9666TIP3   OH250488   4.825   2.497   3.961  0.0151  0.3021 -0.0899
 9666TIP3    H150489   4.910   2.535   3.938  0.2604  0.2995  0.8008
 9666TIP3    H250490   4.838   2.403   3.953 -0.6552  0.3493 -2.5164
 9667TIP3   OH250491   0.675   5.456  13.368  0.5825 -0.5560 -0.7052
 9667TIP3    H150492   0.764   5.492  13.365  1.0438 -1.5504  0.4455
 9667TIP3    H250493   0.651   5.446  13.276  0.0847  3.3601 -1.2083
 9668TIP3   OH250494   6.580   3.503   1.441  0.4241  0.3078  0.4356
 9668TIP3    H150495   6.650   3.438   1.431  1.1381  1.3175 -1.6903
 9668TIP3    H250496   6.626   3.585   1.459 -0.3867  0.5286  1.5957
 9669TIP3   OH250497   1.152   2.044  17.203 -0.0473 -0.3380  0.2663
 9669TIP3    H150498   1.215   2.107  17.169 -1.2922  0.5457 -0.5109
 9669TIP3    H250499   1.082   2.042  17.138 -2.1789  0.8511  2.3351
 9670TIP3   OH250500   3.957   0.807  13.128 -0.0725  0.6743  0.1855
 9670TIP3    H150501   3.865   0.812  13.154 -0.3229  2.1182 -0.8571
 9670TIP3    H250502   3.959   0.844  13.039  1.3520 -0.3299 -0.2394
 9671TIP3   OH250503   1.654   4.091   2.707  0.0731  0.3492 -0.2248
 9671TIP3    H150504   1.738   4.074   2.663 -0.2752 -0.1221 -0.7108
 9671TIP3    H250505   1.616   4.005   2.721 -0.3894  0.5677 -0.1062
 9672TIP3   OH250506   3.180   6.197   6.691  0.4170 -0.1118 -0.3551
 9672TIP3    H150507   3.243   6.134   6.728  0.0220 -0.9636 -1.0913
 9672TIP3    H250508   3.101   6.185   6.744  0.3021 -0.3415 -0.5720
 9673TIP3   OH250509   6.447   5.202   4.091 -0.7758 -0.1248  0.0519
 9673TIP3    H150510   6.509   5.274   4.095  1.7629 -2.1965  0.7924
 9673TIP3    H250511   6.451   5.172   4.000 -0.5494 -0.3791  0.1456
 9674TIP3   OH250512   5.532   0.625  16.863  0.8632  0.4613  0.5360
 9674TIP3    H150513   5.439   0.649  16.869 -0.1781 -2.9886  0.6876
 9674TIP3    H250514   5.551   0.628  16.769 -0.1114 -0.8725  0.2613
 9675TIP3   OH250515   4.173   4.071  11.995  0.2170  0.2430  0.2821
 9675TIP3    H150516   4.241   4.138  11.999  0.8176 -0.0117 -2.9139
 9675TIP3    H250517   4.221   3.988  11.991 -0.3645 -0.0876  0.0777
 9676TIP3   OH250518   6.742   2.470  11.302  0.7003 -0.4022  0.2059
 9676TIP3    H150519   6.765   2.544  11.245  0.2012 -0.2722  0.1735
 9676TIP3    H250520   6.748   2.394  11.245 -3.7389  0.0702 -1.2050
 9677TIP3   OH250521   0.747   4.321   3.454  0.1857 -0.0894 -0.2313
 9677TIP3    H150522   0.720   4.381   3.385  0.3411  0.1089 -0.1204
 9677TIP3    H250523   0.843   4.325   3.455  0.1873 -0.1179 -0.0321
 9678TIP3   OH250524   6.503   5.025   1.278  0.3145  0.5041  0.5840
 9678TIP3    H150525   6.535   5.017   1.367 -0.9759  0.7660  1.0922
 9678TIP3    H250526   6.486   4.935   1.250  3.3086  0.1559 -0.4383
 9679TIP3   OH250527   6.307   6.811  13.497  0.0647 -0.2027  0.1188
 9679TIP3    H150528   6.282   6.867  13.570  0.4629 -1.2246  1.0557
 9679TIP3    H250529   6.386   6.767  13.526  0.1922 -0.6700 -0.9081
 9680TIP3   OH250530   2.565   1.489   2.633 -0.1041  0.3087 -0.4451
 9680TIP3    H150531   2.559   1.506   2.539  0.6507 -0.3555 -0.6224
 9680TIP3    H250532   2.656   1.461   2.646 -0.5185 -0.7511  0.2902
 9681TIP3   OH250533   0.668   1.176   0.603 -0.2089  0.2571 -0.9937
 9681TIP3    H150534   0.687   1.093   0.560  0.8961  0.1516 -0.3547
 9681TIP3    H250535   0.620   1.151   0.683  0.4426  0.1948 -0.6169
 9682TIP3   OH250536   3.100   2.795  13.069  0.4201  0.7434 -0.0060
 9682TIP3    H150537   3.030   2.759  13.123  1.9343  0.0937  1.6221
 9682TIP3    H250538   3.113   2.731  13.000  1.1094 -0.4428  1.1818
 9683TIP3   OH250539   2.620   4.765   0.923 -0.1102 -0.1706 -0.4572
 9683TIP3    H150540   2.671   4.808   0.854 -0.0710 -0.4266 -0.5869
 9683TIP3    H250541   2.554   4.830   0.947 -0.9239 -0.5421 -1.6176
 9684TIP3   OH250542   5.622   1.495   2.097 -0.0809 -0.5476 -0.1036
 9684TIP3    H150543   5.589   1.444   2.171 -0.2565 -0.7337 -0.3086
 9684TIP3    H250544   5.664   1.571   2.138 -0.4428 -0.4924  0.1753
 9685TIP3   OH250545   6.645   5.959  13.351  0.1493 -0.0510 -0.5878
 9685TIP3    H150546   6.678   5.872  13.370 -2.2894 -0.7782  0.8581
 9685TIP3    H250547   6.560   5.944  13.310  0.3421  1.6717 -1.7185
 9686TIP3   OH250548   0.829   5.512   0.827  0.5801 -0.6432 -0.2776
 9686TIP3    H150549   0.739   5.483   0.809  0.6276 -0.3499 -1.0435
 9686TIP3    H250550   0.823   5.607   0.836  0.7266 -0.6838  0.2427
 9687TIP3   OH250551   2.514   1.876  11.561 -0.1425 -0.0401  0.1779
 9687TIP3    H150552   2.525   1.915  11.647  0.0553 -0.1532  0.2051
 9687TIP3    H250553   2.575   1.923  11.505 -0.8094  0.5519 -0.0729
 9688TIP3   OH250554   5.568   5.437   0.279 -0.2360 -0.6386 -0.5292
 9688TIP3    H150555   5.551   5.431   0.184 -1.6491 -0.8660 -0.2869
 9688TIP3    H250556   5.538   5.352   0.313  0.0989 -0.4840  0.1434
 9689TIP3   OH250557   0.603   2.468   5.200 -0.4623 -0.1661  0.1566
 9689TIP3    H150558   0.570   2.557   5.211 -1.3469 -0.4014 -0.4533
 9689TIP3    H250559   0.542   2.413   5.249  1.2228 -0.2811  2.2418
 9690TIP3   OH250560   5.691   0.059   5.526 -0.0251 -0.3410 -0.2261
 9690TIP3    H150561   5.601   0.071   5.554  0.2601 -0.3336  0.7098
 9690TIP3    H250562   5.737   0.137   5.558 -0.0027  0.5502 -2.2133
 9691TIP3   OH250563   5.146   3.350   3.573  0.5979 -0.2241  0.1898
 9691TIP3    H150564   5.141   3.270   3.625  1.7037  0.4946  1.4552
 9691TIP3    H250565   5.239   3.365   3.560  0.3701  0.2708 -0.9821
 9692TIP3   OH250566   1.289   2.204   3.322  0.0740 -0.2968  0.3939
 9692TIP3    H150567   1.282   2.262   3.397 -0.2524 -0.6816  0.6615
 9692TIP3    H250568   1.220   2.233   3.262  0.4444  0.1197  0.1641
 9693TIP3   OH250569   3.139   2.964   4.075  0.0623 -0.5498  0.0300
 9693TIP3    H150570   3.066   2.989   4.019 -0.0567 -0.4341  0.2353
 9693TIP3    H250571   3.190   3.045   4.086 -1.7670  0.3643  2.8931
 9694TIP3   OH250572   4.630   0.966  13.686 -0.1679 -0.0966 -0.1863
 9694TIP3    H150573   4.558   0.965  13.750  1.8495  0.1849  2.2318
 9694TIP3    H250574   4.678   0.885  13.702  0.3349 -0.0595 -1.4308
 9695TIP3   OH250575   5.142   3.113   3.434  0.3211 -0.2713  0.8689
 9695TIP3    H150576   5.202   3.188   3.430  1.8053 -1.4517 -0.9433
 9695TIP3    H250577   5.063   3.142   3.389  0.3353  0.6285  1.4089
 9696TIP3   OH250578   0.954   2.000  10.545  0.2245  0.2009  0.0853
 9696TIP3    H150579   0.872   2.045  10.565  0.7493  1.0427  0.4068
 9696TIP3    H250580   1.022   2.057  10.582  1.1141  0.7542 -2.2254
 9697TIP3   OH250581   0.489   1.370  12.899  0.4718 -0.1351  0.2118
 9697TIP3    H150582   0.427   1.352  12.969  1.1370  1.9454  1.4185
 9697TIP3    H250583   0.472   1.301  12.834 -2.4404 -0.1787  0.8700
 9698TIP3   OH250584   5.775   3.991  15.070  0.5605  0.2646 -0.1880
 9698TIP3    H150585   5.767   4.081  15.101  1.7753  1.2685 -2.5361
 9698TIP3    H250586   5.685   3.963  15.053  0.2023  1.2207  0.0815
 9699TIP3   OH250587   4.795   3.809  17.187 -0.0323 -0.0532  0.5680
 9699TIP3    H150588   4.887   3.786  17.183 -0.0960 -0.1777 -0.6692
 9699TIP3    H250589   4.792   3.894  17.231  0.5158 -0.7558  2.0165
 9700TIP3   OH250590   1.674   4.215   0.773  0.3189  0.2147  0.1308
 9700TIP3    H150591   1.691   4.186   0.863 -0.2625  1.7443  0.7823
 9700TIP3    H250592   1.760   4.214   0.731  0.5663 -0.7511  0.6172
 9701TIP3   OH250593   5.959   4.101   4.458  0.2647  0.3695 -0.4889
 9701TIP3    H150594   5.943   4.080   4.366  0.6640  0.5673 -0.6088
 9701TIP3    H250595   5.995   4.189   4.456 -2.1171  1.4246  0.0710
 9702TIP3   OH250596   6.458   6.665  14.077  0.3613  0.1012  0.8364
 9702TIP3    H150597   6.470   6.650  14.171 -0.8374 -0.4143  0.9294
 9702TIP3    H250598   6.364   6.651  14.063  0.3331  1.1864 -0.2579
 9703TIP3   OH250599   1.461   0.476  15.612 -0.4030  0.4235 -0.1954
 9703TIP3    H150600   1.375   0.434  15.606 -0.5969  0.6617  0.7633
 9703TIP3    H250601   1.442   0.567  15.632  0.0636  0.5617 -0.3690
 9704TIP3   OH250602   0.258   2.885  14.587 -0.5136 -0.3720  0.5411
 9704TIP3    H150603   0.335   2.847  14.629  1.1320  2.1526  0.0408
 9704TIP3    H250604   0.245   2.969  14.631 -0.9631  0.7163 -1.5381
 9705TIP3   OH250605   4.564   6.459  14.075 -0.0300 -0.5299  0.6538
 9705TIP3    H150606   4.547   6.493  13.987  1.3460 -0.9772  0.1867
 9705TIP3    H250607   4.641   6.507  14.105 -0.5533 -0.2906  1.6888
 9706TIP3   OH250608   4.745   4.163  13.234  0.6909 -0.3085 -0.5645
 9706TIP3    H150609   4.767   4.139  13.324 -0.6350 -1.5319 -0.5331
 9706TIP3    H250610   4.684   4.095  13.205  0.1884  0.7082 -1.9957
 9707TIP3   OH250611   4.015   1.623   4.492 -0.1712  0.0779 -0.1326
 9707TIP3    H150612   3.976   1.601   4.577  0.5738  0.7641  0.3965
 9707TIP3    H250613   4.011   1.542   4.442 -1.4345 -0.1107  0.2335
 9708TIP3   OH250614   5.852   0.256   0.329  0.3489  0.5416 -0.5290
 9708TIP3    H150615   5.769   0.226   0.291  0.0205  0.5796  0.1580
 9708TIP3    H250616   5.898   0.297   0.255  0.5000 -0.9810 -1.3266
 9709TIP3   OH250617   1.698   1.255  11.078  0.1849 -0.4451 -0.3477
 9709TIP3    H150618   1.670   1.342  11.048  0.9367 -0.4582 -1.1311
 9709TIP3    H250619   1.647   1.194  11.025 -1.1034 -0.5145  0.9186
 9710TIP3   OH250620   3.827   3.060  13.364 -0.1108 -0.1045 -0.2949
 9710TIP3    H150621   3.861   3.073  13.275 -0.1599  0.1537 -0.2755
 9710TIP3    H250622   3.747   3.009  13.350 -0.6198  0.7263 -0.4791
 9711TIP3   OH250623   6.372   4.104   3.296  0.2338 -0.0191 -0.2434
 9711TIP3    H150624   6.463   4.077   3.304  0.3352  0.6162  0.8939
 9711TIP3    H250625   6.361   4.127   3.203  2.0956  2.8481  0.1207
 9712TIP3   OH250626   4.764   1.990   1.442 -0.4841  0.2052 -0.2846
 9712TIP3    H150627   4.854   2.011   1.466 -0.6695 -0.8450  1.5229
 9712TIP3    H250628   4.772   1.930   1.369  0.2070  1.2901 -1.1388
 9713TIP3   OH250629   2.431   4.402   4.958  0.5034 -0.4311 -0.1544
 9713TIP3    H150630   2.491   4.450   4.901 -1.7988  0.8795 -1.6631
 9713TIP3    H250631   2.434   4.450   5.042 -0.3909  1.3385 -1.0694
 9714TIP3   OH250632   4.050   3.727  13.911  0.1944 -0.2825  0.3634
 9714TIP3    H150633   3.982   3.720  13.844  0.4038  1.9721 -0.1831
 9714TIP3    H250634   4.132   3.717  13.864  0.3113  0.4464  0.3888
 9715TIP3   OH250635   3.295   2.330   5.612 -0.4359  0.2510 -0.2691
 9715TIP3    H150636   3.349   2.260   5.576 -0.0680  0.3987 -0.0067
 9715TIP3    H250637   3.349   2.370   5.680 -1.3343 -0.3659  0.8245
 9716TIP3   OH250638   5.722   0.978  14.270 -0.0550  0.7292 -0.3775
 9716TIP3    H150639   5.702   1.006  14.360  0.3849 -0.6904  0.1813
 9716TIP3    H250640   5.681   0.892  14.262 -1.8184  1.6427 -2.2254
 9717TIP3   OH250641   3.863   2.686  13.466 -0.1036  0.1535 -0.0544
 9717TIP3    H150642   3.816   2.769  13.464  0.4595  0.5220  1.3358
 9717TIP3    H250643   3.953   2.709  13.442 -0.4376 -0.4733 -2.2036
 9718TIP3   OH250644   5.908   5.055   4.967 -0.0645  0.3399 -0.4905
 9718TIP3    H150645   5.927   5.139   5.009 -2.9522  1.1522 -0.6023
 9718TIP3    H250646   5.900   5.076   4.874 -0.1039 -0.1963 -0.6095
 9719TIP3   OH250647   0.183   3.507   2.636  0.1749 -0.2800 -0.4549
 9719TIP3    H150648   0.099   3.519   2.592 -1.2675  2.8339  2.6607
 9719TIP3    H250649   0.244   3.565   2.590 -0.7562  1.2994  0.2347
 9720TIP3   OH250650   4.433   0.114  16.170 -0.2518  0.2075  0.5095
 9720TIP3    H150651   4.465   0.114  16.079  1.3434 -1.7225  0.9906
 9720TIP3    H250652   4.482   0.185  16.212 -0.3040  0.5048  0.0725
 9721TIP3   OH250653   1.307   1.516  14.373  0.2982 -0.3099  0.4279
 9721TIP3    H150654   1.395   1.546  14.394 -0.3380  1.2278  1.0361
 9721TIP3    H250655   1.311   1.491  14.281  0.9343  1.5380 -0.0837
 9722TIP3   OH250656   4.704   4.099  17.124  0.3814  0.0667 -1.0313
 9722TIP3    H150657   4.751   4.174  17.159 -2.1029  0.8424  0.9918
 9722TIP3    H250658   4.633   4.137  17.071 -1.6067 -0.6556  0.9268
 9723TIP3   OH250659   6.284   4.004  13.921 -0.1408  0.5598 -0.0356
 9723TIP3    H150660   6.356   3.953  13.885  1.6765  1.4429  2.1662
 9723TIP3    H250661   6.312   4.095  13.912 -1.1814  0.9517  0.4878
 9724TIP3   OH250662   4.489   4.831  14.467  0.3859  0.2010  0.3237
 9724TIP3    H150663   4.419   4.774  14.435  0.9296 -1.2039  1.5154
 9724TIP3    H250664   4.549   4.772  14.512  2.3357  1.3724 -0.6163
 9725TIP3   OH250665   2.252   4.805  16.282  0.4320  0.1493  0.2434
 9725TIP3    H150666   2.309   4.834  16.352  2.4523  0.7201 -1.5354
 9725TIP3    H250667   2.286   4.848  16.203 -1.7626 -0.4075 -1.1113
 9726TIP3   OH250668   2.636   1.161   2.164 -0.0902  0.6300  0.1398
 9726TIP3    H150669   2.674   1.115   2.239  0.7002 -0.4862 -0.9238
 9726TIP3    H250670   2.631   1.253   2.193  0.1414  0.2203  1.5726
 9727TIP3   OH250671   0.987   6.462  15.875 -0.6929 -0.2461  0.5431
 9727TIP3    H150672   0.893   6.456  15.893 -0.8858  1.8960  0.5286
 9727TIP3    H250673   1.025   6.491  15.958 -0.3025  0.6096  0.0725
 9728TIP3   OH250674   3.719   2.019  15.023 -0.1158  0.6621 -0.0734
 9728TIP3    H150675   3.810   2.022  14.994 -0.1258  2.9530 -0.0439
 9728TIP3    H250676   3.721   2.052  15.113 -0.8702 -0.3070  0.3244
 9729TIP3   OH250677   0.561   3.904   3.980 -0.6770  0.5793 -0.1155
 9729TIP3    H150678   0.606   3.972   3.931 -0.1105 -0.6103 -1.3154
 9729TIP3    H250679   0.631   3.851   4.018 -1.1100  0.7742  1.0117
 9730TIP3   OH250680   5.619   1.180   1.842 -0.1206  0.3494 -0.0896
 9730TIP3    H150681   5.678   1.187   1.767 -2.0438 -0.1933 -1.7435
 9730TIP3    H250682   5.581   1.093   1.834 -0.2993  0.2375  1.6102
 9731TIP3   OH250683   5.502   4.919   1.436  0.4879  0.0280  0.1869
 9731TIP3    H150684   5.516   4.840   1.489  1.8743 -0.6117 -1.0716
 9731TIP3    H250685   5.417   4.953   1.466  0.1422 -1.5919  1.1696
 9732TIP3   OH250686   3.415   2.480   5.833  0.8564 -0.7728  0.8253
 9732TIP3    H150687   3.433   2.573   5.848  1.2967 -1.0648  2.2904
 9732TIP3    H250688   3.439   2.438   5.916 -0.0772 -2.0899  0.4504
 9733TIP3   OH250689   6.809   0.818   2.744 -0.3946  0.0043 -0.3701
 9733TIP3    H150690   6.901   0.828   2.719 -0.6956  1.7190 -0.8846
 9733TIP3    H250691   6.804   0.852   2.833 -0.3747 -0.9597  0.0120
 9734TIP3   OH250692   5.906   0.333  16.456 -0.6409 -0.0580 -0.5109
 9734TIP3    H150693   5.869   0.415  16.422  0.8187  0.3342 -1.2471
 9734TIP3    H250694   5.995   0.357  16.484 -0.2421 -1.3527 -0.6016
 9735TIP3   OH250695   4.509   3.567   0.869  0.1136 -0.3541 -0.2409
 9735TIP3    H150696   4.452   3.509   0.819  2.5959 -1.5546 -1.8983
 9735TIP3    H250697   4.560   3.614   0.802 -0.5003  2.4404  1.1008
 9736TIP3   OH250698   1.030   1.981  16.442  0.2158  0.1706  0.5462
 9736TIP3    H150699   0.982   1.906  16.408 -0.5280  0.4298  1.0185
 9736TIP3    H250700   1.086   1.944  16.510  2.4432 -0.5257 -1.4943
 9737TIP3   OH250701   6.686   1.383   2.922 -0.2062 -0.3452  0.1344
 9737TIP3    H150702   6.660   1.367   2.832 -1.9901 -2.0298  0.8740
 9737TIP3    H250703   6.605   1.376   2.972  0.3686  2.5030  1.7156
 9738TIP3   OH250704   2.364   2.022  16.177  0.1124  0.4909 -0.0974
 9738TIP3    H150705   2.299   2.027  16.248 -0.3816 -1.2017 -0.3811
 9738TIP3    H250706   2.316   1.985  16.103  1.3322 -0.5276 -0.4051
 9739TIP3   OH250707   1.021   2.565  16.425 -0.6094 -0.1615  0.1826
 9739TIP3    H150708   0.953   2.498  16.422  0.7662 -1.7570  1.9042
 9739TIP3    H250709   1.035   2.589  16.334 -1.9536 -1.3766 -0.3851
 9740TIP3   OH250710   4.298   3.935  12.940 -0.2428 -0.0441 -0.0860
 9740TIP3    H150711   4.392   3.943  12.928  0.2560 -0.3756  2.9188
 9740TIP3    H250712   4.282   3.841  12.952 -0.9570  0.0166 -0.4622
 9741TIP3   OH250713   6.743   5.359   1.548 -0.2187  0.1516 -0.3190
 9741TIP3    H150714   6.716   5.400   1.631 -1.6558  0.9541 -1.1427
 9741TIP3    H250715   6.661   5.343   1.502  0.5102 -1.0622 -1.2477
 9742TIP3   OH250716   5.327   3.490   1.138  0.0226 -0.2234  0.0000
 9742TIP3    H150717   5.293   3.444   1.062  0.2807  0.2740 -0.4214
 9742TIP3    H250718   5.309   3.431   1.212 -0.5156 -0.5660 -0.3966
 9743TIP3   OH250719   6.759   0.501   3.814 -0.4367  0.1615  0.3339
 9743TIP3    H150720   6.829   0.566   3.802 -0.4318  0.1312  0.1941
 9743TIP3    H250721   6.716   0.497   3.728 -1.2302  0.8921  0.6818
 9744TIP3   OH250722   4.562   0.533   6.349 -0.2736 -0.1960 -0.1635
 9744TIP3    H150723   4.520   0.448   6.333 -0.4408 -0.3377  0.9511
 9744TIP3    H250724   4.496   0.584   6.397 -0.2864  0.6844 -1.0765
 9745TIP3   OH250725   2.227   5.356   2.866 -0.4006 -0.5207 -0.8761
 9745TIP3    H150726   2.197   5.418   2.800 -0.7784 -0.8167 -0.9855
 9745TIP3    H250727   2.277   5.291   2.817 -0.2548 -0.4636 -0.8023
 9746TIP3   OH250728   6.400   3.074  11.339  0.6311 -0.2971  0.5289
 9746TIP3    H150729   6.318   3.123  11.337  0.7917  0.5046  4.6429
 9746TIP3    H250730   6.374   2.983  11.320 -1.0548  0.0790  0.8741
 9747TIP3   OH250731   4.383   3.290   1.820 -0.2678  0.0364 -0.4339
 9747TIP3    H150732   4.441   3.254   1.752 -1.2876  0.0702 -1.3452
 9747TIP3    H250733   4.436   3.358   1.863 -0.2077  1.4022 -2.5088
 9748TIP3   OH250734   3.046   0.752  17.030  0.4321  0.0245  0.1134
 9748TIP3    H150735   3.107   0.708  17.089  0.2963  0.0821  0.2961
 9748TIP3    H250736   3.061   0.710  16.945  0.8297  0.1428  0.1242
 9749TIP3   OH250737   2.535   6.769   1.878  0.0804 -0.2334 -0.7928
 9749TIP3    H150738   2.542   6.848   1.931 -0.3849 -1.1597  0.6776
 9749TIP3    H250739   2.483   6.796   1.802 -0.7105  0.6870  0.0560
 9750TIP3   OH250740   5.977   2.996   4.363 -0.4181  0.2956  0.4525
 9750TIP3    H150741   5.957   2.913   4.319  0.4967  0.7620 -0.8902
 9750TIP3    H250742   5.913   3.058   4.327 -1.1187  0.2008  1.4747
 9751TIP3   OH250743   5.296   1.189   0.083 -0.1042  0.2113  0.1007
 9751TIP3    H150744   5.267   1.098   0.071 -1.2219  0.4783  0.6333
 9751TIP3    H250745   5.387   1.181   0.112  0.4941 -0.6494 -1.7999
 9752TIP3   OH250746   4.466   4.766   3.637 -0.2947 -0.2205  0.2446
 9752TIP3    H150747   4.425   4.835   3.585  0.0320  1.6411  2.3048
 9752TIP3    H250748   4.449   4.685   3.589  0.9609  1.4489 -3.3037
 9753TIP3   OH250749   6.010   4.648   1.542 -0.6652 -0.5106  0.4000
 9753TIP3    H150750   5.926   4.624   1.580 -1.9289  0.2319 -1.7996
 9753TIP3    H250751   6.000   4.739   1.514  1.2393 -0.0528  1.0234
 9754TIP3   OH250752   3.180   6.245  16.905  0.2279  0.2252  0.0626
 9754TIP3    H150753   3.119   6.291  16.964  2.1278  0.9090  1.6088
 9754TIP3    H250754   3.166   6.152  16.924  0.7571  0.4330  1.6093
 9755TIP3   OH250755   2.574   1.675   5.505  0.3939 -0.0174 -0.1749
 9755TIP3    H150756   2.487   1.695   5.469 -0.2608 -0.2733  1.1967
 9755TIP3    H250757   2.628   1.657   5.428 -1.0829 -1.1092 -1.0165
 9756TIP3   OH250758   5.551   0.824   0.102 -0.1014  0.0045  0.4777
 9756TIP3    H150759   5.521   0.840   0.192  1.2926  1.8318  0.6952
 9756TIP3    H250760   5.473   0.838   0.048 -0.6697  0.1930  1.3134
 9757TIP3   OH250761   4.460   1.033  15.758  1.0532  0.1197  0.1810
 9757TIP3    H150762   4.412   0.994  15.831 -1.0433  1.5029 -0.3863
 9757TIP3    H250763   4.552   1.027  15.785  0.5311 -1.5641  1.8323
 9758TIP3   OH250764   0.621   6.182  16.144  0.4507  0.4667 -0.2556
 9758TIP3    H150765   0.644   6.098  16.104 -2.0968  0.1843 -1.3075
 9758TIP3    H250766   0.698   6.205  16.197  1.8171 -1.7650 -1.1170
 9759TIP3   OH250767   3.650   2.368  15.316 -0.3679 -0.2634 -0.4435
 9759TIP3    H150768   3.697   2.420  15.380  1.7653 -1.7616 -0.6943
 9759TIP3    H250769   3.671   2.410  15.232  0.6735 -0.9901 -0.5652
 9760TIP3   OH250770   5.127   4.170   3.844 -0.2316  0.0219  0.0712
 9760TIP3    H150771   5.046   4.219   3.831 -0.4700  0.4267  2.5068
 9760TIP3    H250772   5.193   4.237   3.864  0.6381 -0.3312 -1.4664
 9761TIP3   OH250773   5.961   1.558  11.275 -0.1237 -0.5413  0.2889
 9761TIP3    H150774   6.019   1.596  11.209 -1.7388  2.1607  0.2762
 9761TIP3    H250775   5.899   1.504  11.225  0.6977 -1.2518  0.0165
 9762TIP3   OH250776   5.996   0.450  17.069  0.3457 -0.2060  0.0888
 9762TIP3    H150777   6.063   0.518  17.078  0.5904 -0.5662  1.1509
 9762TIP3    H250778   5.972   0.453  16.977  1.1794  0.5428 -0.1253
 9763TIP3   OH250779   1.289   0.774   3.165 -0.1374  0.0529  0.6439
 9763TIP3    H150780   1.306   0.701   3.223 -1.2814 -0.4371  0.3902
 9763TIP3    H250781   1.278   0.735   3.079 -2.2263  0.2973  0.7341
 9764TIP3   OH250782   6.598   4.399  16.339 -0.1879 -0.0448  0.5045
 9764TIP3    H150783   6.578   4.354  16.421 -1.0643 -1.6036 -0.5047
 9764TIP3    H250784   6.694   4.393  16.331  0.1932  2.0510  2.3990
 9765TIP3   OH250785   6.339   5.042  16.937  0.4332 -0.0066 -0.0492
 9765TIP3    H150786   6.344   4.957  16.894  2.0753 -0.0415  0.1422
 9765TIP3    H250787   6.416   5.089  16.906 -0.0518  1.1333  0.4272
 9766TIP3   OH250788   1.540   6.212  15.462 -0.0875 -0.0014 -0.0480
 9766TIP3    H150789   1.499   6.201  15.376 -0.6478 -0.7971  0.3057
 9766TIP3    H250790   1.491   6.153  15.519  0.8555 -0.1454  0.6267
 9767TIP3   OH250791   6.558   6.346   1.976 -0.0387 -0.2617  0.4707
 9767TIP3    H150792   6.635   6.291   1.989  0.1248  0.0955  1.0841
 9767TIP3    H250793   6.565   6.376   1.886  1.0637  0.5150  0.7881
 9768TIP3   OH250794   3.035   1.422   3.664 -0.1820 -0.3423  0.1262
 9768TIP3    H150795   3.045   1.412   3.569  2.0700  0.4581  0.2071
 9768TIP3    H250796   3.102   1.365   3.701  1.5127  2.0645  1.0459
 9769TIP3   OH250797   6.181   3.739  14.308 -0.1012  0.4249 -0.1789
 9769TIP3    H150798   6.171   3.800  14.381  0.3196  0.6354 -0.2883
 9769TIP3    H250799   6.094   3.702  14.294 -0.1140  0.1484  0.6278
 9770TIP3   OH250800   4.148   1.283  14.428 -0.0512  0.6605 -0.3006
 9770TIP3    H150801   4.150   1.360  14.372  1.5354  0.0762 -1.0860
 9770TIP3    H250802   4.103   1.217  14.376  0.1501  0.5381 -0.3187
 9771TIP3   OH250803   6.456   0.391   1.557  0.0042 -0.0692  0.6412
 9771TIP3    H150804   6.507   0.421   1.481  0.6424 -1.4553  0.4839
 9771TIP3    H250805   6.440   0.470   1.608 -0.0485  0.8183 -0.7156
 9772TIP3   OH250806   2.394   3.769   0.896  0.4356 -0.1093  0.0867
 9772TIP3    H150807   2.423   3.768   0.804 -1.2903  0.5144 -0.4943
 9772TIP3    H250808   2.366   3.859   0.911 -0.6812 -0.5612  0.7768
 9773TIP3   OH250809   3.727   2.896  12.102 -0.4365 -0.0551  0.5512
 9773TIP3    H150810   3.788   2.948  12.050 -0.9932 -0.8386 -0.9401
 9773TIP3    H250811   3.719   2.813  12.054 -1.7507 -0.4280  1.3554
 9774TIP3   OH250812   4.833   2.987   3.733 -0.3417 -0.0738 -0.0976
 9774TIP3    H150813   4.923   2.972   3.703 -1.2549 -2.8946 -1.8000
 9774TIP3    H250814   4.842   3.011   3.825  2.0910 -1.9086  0.2362
 9775TIP3   OH250815   3.368   0.805  16.882 -0.1594  0.1975 -0.2972
 9775TIP3    H150816   3.406   0.877  16.832 -1.8890  0.8010 -0.8142
 9775TIP3    H250817   3.363   0.732  16.820 -0.0619  0.1823 -0.2880
 9776TIP3   OH250818   4.479   6.611   6.425 -0.5474  0.2140  0.4732
 9776TIP3    H150819   4.497   6.640   6.336 -0.5857  0.3181  0.4994
 9776TIP3    H250820   4.471   6.516   6.419 -0.2401  0.1911  0.4180
 9777TIP3   OH250821   6.501   0.231   5.146 -0.6762 -0.2507 -0.3177
 9777TIP3    H150822   6.426   0.214   5.204 -0.2095 -3.2051 -0.3988
 9777TIP3    H250823   6.561   0.158   5.163  2.1008  1.8335 -0.5025
 9778TIP3   OH250824   6.739   0.332  14.375  0.1938  0.0706 -0.0066
 9778TIP3    H150825   6.721   0.425  14.387  1.0726  0.6214 -2.5481
 9778TIP3    H250826   6.821   0.328  14.327  0.1880 -2.0303  0.0474
 9779TIP3   OH250827   4.152   5.357   4.766 -0.6268  0.5124  0.2702
 9779TIP3    H150828   4.169   5.451   4.772  0.2572  0.3895 -0.1238
 9779TIP3    H250829   4.061   5.347   4.795 -0.6277  1.4447  0.6299
 9780TIP3   OH250830   0.319   3.545   1.226  0.3699  0.0522  0.3369
 9780TIP3    H150831   0.275   3.498   1.155 -0.2069 -0.9356  1.3332
 9780TIP3    H250832   0.352   3.477   1.284  0.8654  0.8464  1.0176
 9781TIP3   OH250833   3.123   6.082   0.426  0.4284 -0.1870 -0.1885
 9781TIP3    H150834   3.177   6.009   0.455  0.9601 -0.0619 -0.8405
 9781TIP3    H250835   3.033   6.051   0.435  0.6620 -1.0274 -0.7337
 9782TIP3   OH250836   3.859   1.979   3.047  0.3777  0.0190  0.0031
 9782TIP3    H150837   3.843   1.885   3.058  1.1909 -0.3589 -1.7406
 9782TIP3    H250838   3.792   2.021   3.101 -0.5814 -1.5464  0.0955
 9783TIP3   OH250839   0.144   0.937   1.835  0.4683  0.2337  0.6031
 9783TIP3    H150840   0.145   0.955   1.741 -0.6736 -1.2636  0.2661
 9783TIP3    H250841   0.234   0.951   1.863  1.1800 -0.7950 -1.0364
 9784TIP3   OH250842   5.400   6.198   4.542 -0.0404  0.4335  0.0806
 9784TIP3    H150843   5.443   6.126   4.496  1.3399  0.1329  1.7458
 9784TIP3    H250844   5.447   6.276   4.513 -1.3478  0.6876 -1.5011
 9785TIP3   OH250845   1.623   5.525   2.439  0.0687  0.1922 -0.4012
 9785TIP3    H150846   1.658   5.548   2.525  0.5888 -1.1786 -0.2160
 9785TIP3    H250847   1.700   5.495   2.390 -0.3607  0.1826 -1.0697
 9786TIP3   OH250848   3.683   5.665   2.638 -0.0632  0.7403 -0.3288
 9786TIP3    H150849   3.661   5.750   2.603 -0.3440  0.8629  0.1345
 9786TIP3    H250850   3.731   5.621   2.568 -2.0695  0.3198 -1.4976
 9787TIP3   OH250851   2.940   4.025   1.252 -0.4791 -0.4804  0.4461
 9787TIP3    H150852   2.901   4.108   1.278 -0.5945 -0.0328 -1.0275
 9787TIP3    H250853   2.962   3.981   1.334 -0.0011  1.1909  1.2482
 9788TIP3   OH250854   5.137   5.525   4.185  0.3890 -0.3768  0.0486
 9788TIP3    H150855   5.067   5.587   4.170 -2.6933 -3.7558 -1.1124
 9788TIP3    H250856   5.113   5.480   4.266 -0.2354 -3.1157 -1.5113
 9789TIP3   OH250857   4.886   1.075  11.143 -0.4552 -0.1474  0.1229
 9789TIP3    H150858   4.837   1.061  11.224  0.2149 -1.5937  0.3092
 9789TIP3    H250859   4.841   1.019  11.079  0.2627 -0.6210  0.0219
 9790TIP3   OH250860   0.335   1.524   4.448 -0.0032 -0.2629 -0.2622
 9790TIP3    H150861   0.414   1.497   4.495 -0.3624 -0.8578  0.0198
 9790TIP3    H250862   0.358   1.513   4.356  0.0705 -0.9779 -0.1696
 9791TIP3   OH250863   1.771   2.162  16.935 -0.2977 -0.3259 -0.4612
 9791TIP3    H150864   1.756   2.076  16.896  0.9401 -0.5725 -0.4464
 9791TIP3    H250865   1.692   2.211  16.915 -1.1920 -1.5798 -0.1477
 9792TIP3   OH250866   1.562   1.028  15.494 -0.2690  0.3424  0.2579
 9792TIP3    H150867   1.653   1.052  15.512  0.2869 -1.9343  0.7859
 9792TIP3    H250868   1.510   1.098  15.536  1.1796  2.2125 -0.9017
 9793TIP3   OH250869   3.390   2.089   3.359  0.0854  0.0856  0.3065
 9793TIP3    H150870   3.336   2.064   3.434  1.0799 -3.2686  0.0965
 9793TIP3    H250871   3.478   2.098   3.395  0.5335 -1.3462 -0.3405
 9794TIP3   OH250872   5.872   3.557  12.399  0.5808 -0.0496 -0.3822
 9794TIP3    H150873   5.846   3.604  12.478  0.2412 -1.7932  0.5773
 9794TIP3    H250874   5.855   3.619  12.328  0.0849  1.2436  0.8170
 9795TIP3   OH250875   0.571   6.110  13.833  1.0997  0.2745  0.6056
 9795TIP3    H150876   0.500   6.057  13.797  0.2353  0.7596  1.5732
 9795TIP3    H250877   0.529   6.170  13.894  2.2381  1.1463  0.5725
 9796TIP3   OH250878   2.883   0.849  15.748  0.1116  0.0046  0.1556
 9796TIP3    H150879   2.955   0.840  15.810 -1.5873 -0.1722  2.2157
 9796TIP3    H250880   2.909   0.921  15.691  1.8637 -0.0151  0.8722
 9797TIP3   OH250881   0.419   1.031  12.955  0.4872 -0.8675  0.5832
 9797TIP3    H150882   0.347   1.049  13.015  0.6180 -2.0384  1.1282
 9797TIP3    H250883   0.492   1.081  12.989 -0.2184  0.9126 -0.3859
 9798TIP3   OH250884   0.539   3.087  15.517  0.1136 -0.1633 -0.2655
 9798TIP3    H150885   0.614   3.145  15.500 -0.4098  0.7924  0.5192
 9798TIP3    H250886   0.554   3.010  15.463  1.2451  0.3757 -0.7392
 9799TIP3   OH250887   4.239   3.412  15.464 -0.2223  0.1986 -0.2876
 9799TIP3    H150888   4.200   3.499  15.472 -0.9432 -0.1198 -0.3089
 9799TIP3    H250889   4.189   3.357  15.524 -1.1603 -0.6664 -1.8023
 9800TIP3   OH250890   2.242   0.698   3.320  0.3871  0.4537  0.2119
 9800TIP3    H150891   2.178   0.640   3.278  0.2058  0.7773  0.0372
 9800TIP3    H250892   2.259   0.766   3.254  1.5678 -0.0999 -0.0845
 9801TIP3   OH250893   4.559   6.714  15.379 -0.7148 -0.0418 -0.8360
 9801TIP3    H150894   4.585   6.645  15.319 -1.3018 -0.3370 -0.7621
 9801TIP3    H250895   4.480   6.680  15.422  0.5941 -0.5752  1.3384
 9802TIP3   OH250896   6.049   4.732   0.412  0.0514 -0.0285 -0.1894
 9802TIP3    H150897   6.020   4.689   0.493 -0.6054 -0.8332 -0.8275
 9802TIP3    H250898   6.124   4.680   0.383 -1.8934 -2.0378 -1.9774
 9803TIP3   OH250899   6.499   3.183   5.340 -0.3184 -0.0920 -0.5927
 9803TIP3    H150900   6.577   3.237   5.348 -0.9597  1.0416 -1.6885
 9803TIP3    H250901   6.440   3.215   5.409 -0.2324 -0.2309 -0.4535
 9804TIP3   OH250902   3.057   4.395  13.243  0.0439  0.2982 -0.4883
 9804TIP3    H150903   2.977   4.447  13.234 -0.7522 -0.8489 -0.2574
 9804TIP3    H250904   3.029   4.315  13.288  1.0463 -0.7457 -1.6399
 9805TIP3   OH250905   5.831   3.880  15.308  0.1601 -0.2711 -0.3907
 9805TIP3    H150906   5.894   3.944  15.342 -0.9111  0.6316 -0.0705
 9805TIP3    H250907   5.809   3.913  15.221  0.0576 -0.5501 -0.4717
 9806TIP3   OH250908   1.309   0.651   0.693  0.1191  0.2481  0.1192
 9806TIP3    H150909   1.246   0.645   0.620  0.8322  1.8998 -0.7006
 9806TIP3    H250910   1.394   0.657   0.650  0.5402  1.4665  1.0546
 9807TIP3   OH250911   3.682   0.007  15.492  0.2314  0.2089 -1.1074
 9807TIP3    H150912   3.637  -0.046  15.425  0.8799 -0.1169 -1.2998
 9807TIP3    H250913   3.613   0.033  15.553 -0.0787 -1.0691 -0.8769
 9808TIP3   OH250914   5.546   3.011   2.554  0.5304 -0.0316  0.3387
 9808TIP3    H150915   5.582   3.069   2.620 -1.7283 -0.4654  2.0511
 9808TIP3    H250916   5.472   3.059   2.517  0.2490 -0.7892 -0.1061
 9809TIP3   OH250917   3.087   6.583  11.869 -0.2941  0.0838  0.0044
 9809TIP3    H150918   3.040   6.636  11.933  0.6193  1.6134 -0.5481
 9809TIP3    H250919   3.024   6.569  11.798  0.0124  2.1014 -0.7284
 9810TIP3   OH250920   1.550   4.325   2.827  0.5453  0.0290 -0.0063
 9810TIP3    H150921   1.580   4.239   2.797 -0.7546 -0.9738  1.3975
 9810TIP3    H250922   1.457   4.312   2.848  0.7095  1.3466  1.7920
 9811TIP3   OH250923   2.696   3.532   3.209  0.3820  0.3497  0.8312
 9811TIP3    H150924   2.782   3.546   3.248 -0.2971  0.5858  2.2921
 9811TIP3    H250925   2.634   3.566   3.273 -1.1305 -4.3256  2.2393
 9812TIP3   OH250926   0.412   0.226  12.927  0.0378 -0.3811 -0.3924
 9812TIP3    H150927   0.330   0.214  12.975 -0.9082  0.3528 -1.7538
 9812TIP3    H250928   0.444   0.137  12.912  1.3967 -0.6456  3.1534
 9813TIP3   OH250929   2.229   3.491   5.846  1.2405 -0.1401  0.6191
 9813TIP3    H150930   2.159   3.515   5.906 -1.1423  0.2496 -2.0976
 9813TIP3    H250931   2.260   3.574   5.810  0.4060 -0.4515 -0.9313
 9814TIP3   OH250932   4.417   4.306   0.831  0.2243  0.3538 -0.1782
 9814TIP3    H150933   4.377   4.392   0.817  0.6066  0.9395  2.0039
 9814TIP3    H250934   4.432   4.272   0.743 -0.0349  2.4772 -1.0975
 9815TIP3   OH250935   5.857   6.245   0.468 -0.0416 -0.0137 -0.1679
 9815TIP3    H150936   5.931   6.287   0.512  1.5071 -1.6261 -1.0525
 9815TIP3    H250937   5.836   6.170   0.524  0.3601 -0.7144 -0.9382
 9816TIP3   OH250938   0.788   4.912  15.038 -0.1749 -0.8325 -0.3117
 9816TIP3    H150939   0.745   4.900  14.953 -0.6902  1.1206 -0.3670
 9816TIP3    H250940   0.729   4.869  15.101  0.5843 -2.9506 -0.9748
 9817TIP3   OH250941   4.301   3.376  11.199 -0.3187 -0.5982  0.3875
 9817TIP3    H150942   4.228   3.437  11.192  0.4521  0.2537 -0.2622
 9817TIP3    H250943   4.379   3.428  11.182  0.6356 -1.1028  2.7731
 9818TIP3   OH250944   4.694   1.985  14.860 -0.1407 -0.2538  0.2138
 9818TIP3    H150945   4.770   2.010  14.914  0.2745 -0.6042 -0.2059
 9818TIP3    H250946   4.629   1.956  14.924 -0.1870  0.7098  0.6298
 9819TIP3   OH250947   3.884   2.258  14.669  0.7771  0.0842 -0.6281
 9819TIP3    H150948   3.948   2.223  14.607  1.0439 -0.0665 -0.2679
 9819TIP3    H250949   3.810   2.285  14.614  0.7664 -0.5963 -0.9527
 9820TIP3   OH250950   5.125   2.827  14.718 -0.1569  0.2975 -0.7630
 9820TIP3    H150951   5.063   2.840  14.646  0.7883 -0.4686 -1.7486
 9820TIP3    H250952   5.211   2.844  14.679  0.2008  3.4771  1.0760
 9821TIP3   OH250953   1.068   6.112   5.936  0.1890  0.6867 -0.1638
 9821TIP3    H150954   1.083   6.024   5.970  3.5237  1.1988  0.0094
 9821TIP3    H250955   0.984   6.106   5.891 -0.6299 -2.0461  1.4818
 9822TIP3   OH250956   6.721   1.585   0.397 -0.4592  0.6330 -0.0729
 9822TIP3    H150957   6.718   1.632   0.314 -0.6839  0.8572  0.0606
 9822TIP3    H250958   6.814   1.579   0.418 -0.2471 -1.3194 -1.4062
 9823TIP3   OH250959   6.088   6.150   2.693  0.4050 -0.2162  0.0042
 9823TIP3    H150960   6.158   6.196   2.739  0.4890  0.3043 -0.6285
 9823TIP3    H250961   6.054   6.214   2.630 -0.1140 -0.7159 -0.2350
 9824TIP3   OH250962   0.122   6.097  17.183  0.1419  0.6547 -0.4263
 9824TIP3    H150963   0.063   6.022  17.179  2.2006 -1.0032 -1.4977
 9824TIP3    H250964   0.142   6.107  17.276  0.2019 -0.4242 -0.3166
 9825TIP3   OH250965   6.825   4.493   2.766 -0.1788  0.2629  0.7289
 9825TIP3    H150966   6.763   4.444   2.713  0.7619 -1.0013  0.7548
 9825TIP3    H250967   6.789   4.582   2.770 -0.3325  0.3793 -1.9241
 9826TIP3   OH250968   6.146   4.624   4.337  0.0713  0.7343 -0.0413
 9826TIP3    H150969   6.093   4.681   4.282  0.8480  0.8946 -0.6333
 9826TIP3    H250970   6.208   4.582   4.277  0.3587  0.2465  0.5772
 9827TIP3   OH250971   0.853   6.455  15.024  0.2897  0.3634 -0.0183
 9827TIP3    H150972   0.859   6.368  15.064 -2.1403  0.0243 -0.2533
 9827TIP3    H250973   0.931   6.461  14.968  1.1295 -1.1579  0.9241
 9828TIP3   OH250974   3.876   5.814  15.452 -0.4127  0.4507 -0.5386
 9828TIP3    H150975   3.821   5.765  15.514  1.5838 -2.7620 -1.0502
 9828TIP3    H250976   3.960   5.824  15.498 -0.0958  1.5131 -1.3120
 9829TIP3   OH250977   0.953   1.587   5.130 -0.0012  0.4696 -0.4314
 9829TIP3    H150978   0.994   1.503   5.107  0.6060  1.3872 -3.0884
 9829TIP3    H250979   0.890   1.565   5.199  1.9957 -1.6956  0.8405
 9830TIP3   OH250980   0.693   6.263   6.095 -0.3666 -0.0590 -0.1007
 9830TIP3    H150981   0.772   6.214   6.115 -0.4155  0.5214  1.7018
 9830TIP3    H250982   0.649   6.273   6.180 -1.4894  1.1175 -0.7842
 9831TIP3   OH250983   0.186   3.622  16.252 -0.1568 -0.1493 -0.1646
 9831TIP3    H150984   0.150   3.670  16.178 -1.0913  0.7616  0.8432
 9831TIP3    H250985   0.263   3.577  16.217 -1.4633 -1.0378 -2.0392
 9832TIP3   OH250986   4.563   4.292  14.804 -0.3011 -0.0352  0.6681
 9832TIP3    H150987   4.501   4.219  14.811  0.4210 -0.7457 -0.0619
 9832TIP3    H250988   4.530   4.344  14.730  1.0639 -1.5630 -1.1148
 9833TIP3   OH250989   4.249   1.855   4.144  0.1383 -0.3317  0.6846
 9833TIP3    H150990   4.266   1.761   4.143 -1.0494 -0.5563 -0.0143
 9833TIP3    H250991   4.239   1.878   4.052  3.2069  1.0460  0.5783
 9834TIP3   OH250992   6.355   6.579   4.125 -0.4926 -0.6618  0.0623
 9834TIP3    H150993   6.409   6.656   4.111 -2.1993  0.4495 -0.7484
 9834TIP3    H250994   6.417   6.508   4.141  1.1230  0.8129  0.5597
 9835TIP3   OH250995   1.020   1.516  10.867 -0.2408 -0.1670 -0.4034
 9835TIP3    H150996   1.038   1.609  10.856  0.2345 -0.1844  0.2272
 9835TIP3    H250997   1.102   1.479  10.897 -0.8652 -0.5231  0.9168
 9836TIP3   OH250998   1.925   3.788   4.345 -0.5812 -0.0283 -0.1094
 9836TIP3    H150999   1.985   3.839   4.290 -0.4626 -0.5030 -0.4213
 9836TIP3    H251000   1.931   3.699   4.312 -1.3201 -0.1205 -0.0140
 9837TIP3   OH251001   0.275   3.256   6.187  0.5585 -0.6794  0.5267
 9837TIP3    H151002   0.290   3.293   6.100 -0.7028  0.1332  0.6207
 9837TIP3    H251003   0.180   3.247   6.193  0.4473  0.9841  2.4531
 9838TIP3   OH251004   5.370   5.501  16.026  0.8847 -0.3273 -0.0652
 9838TIP3    H151005   5.296   5.557  16.001  0.3355 -1.8265 -2.0615
 9838TIP3    H251006   5.442   5.562  16.040 -0.3825  1.0853  0.6618
 9839TIP3   OH251007   3.819   0.764  12.002 -0.4170 -0.3668 -0.0798
 9839TIP3    H151008   3.802   0.727  11.916  1.4958 -0.8753 -0.2856
 9839TIP3    H251009   3.826   0.858  11.987  1.6459 -0.6037 -0.8329
 9840TIP3   OH251010   3.611   0.052  14.927 -0.1782  0.0427 -0.3466
 9840TIP3    H151011   3.599  -0.042  14.942 -2.2280  0.0029 -1.7927
 9840TIP3    H251012   3.644   0.058  14.838  3.5227  0.6164  0.9217
 9841TIP3   OH251013   4.493   0.829  16.448 -0.2637  0.4966  0.5142
 9841TIP3    H151014   4.426   0.844  16.515 -0.3153  0.0608  0.5603
 9841TIP3    H251015   4.502   0.734  16.444 -0.0617  0.5334  0.0967
 9842TIP3   OH251016   2.575   0.154   3.731  0.1424  0.1759  0.2116
 9842TIP3    H151017   2.527   0.122   3.655 -1.2350  0.0716  1.0747
 9842TIP3    H251018   2.513   0.144   3.804  0.6691  2.1589  1.0041
 9843TIP3   OH251019   3.196   4.642   1.506  0.1642  0.8985 -0.9193
 9843TIP3    H151020   3.249   4.599   1.573 -1.8429 -0.4904 -0.1415
 9843TIP3    H251021   3.250   4.639   1.427  0.3032 -2.9431 -0.8800
 9844TIP3   OH251022   5.716   5.311   5.626  0.0339  0.3863 -0.2821
 9844TIP3    H151023   5.756   5.392   5.594 -1.4450  1.1209 -0.3820
 9844TIP3    H251024   5.636   5.340   5.671 -0.8472 -1.0503 -0.8382
 9845TIP3   OH251025   0.561   6.319  16.490  0.3942 -0.6539 -0.4340
 9845TIP3    H151026   0.542   6.244  16.546 -0.9178 -0.8304 -1.0785
 9845TIP3    H251027   0.558   6.394  16.548 -2.5187 -0.6408 -0.4275
 9846TIP3   OH251028   0.662   0.278   3.085  0.4286  0.5214 -0.2812
 9846TIP3    H151029   0.744   0.326   3.095 -0.3992  1.8592  0.4272
 9846TIP3    H251030   0.596   0.334   3.126 -0.7177 -0.9008 -0.0849
 9847TIP3   OH251031   3.877   6.142   3.722 -0.0858  0.4849  0.0431
 9847TIP3    H151032   3.968   6.131   3.695  0.1280 -0.0719  0.9426
 9847TIP3    H251033   3.826   6.126   3.643  0.5223 -0.8944 -0.1009
 9848TIP3   OH251034   6.551   5.923   0.342 -0.0219  0.7037 -0.6215
 9848TIP3    H151035   6.633   5.957   0.306  0.6368 -1.3713 -1.2606
 9848TIP3    H251036   6.578   5.869   0.416 -1.0868  2.1388  0.8790
 9849TIP3   OH251037   1.697   0.986  12.286 -0.4093  0.0580  0.2675
 9849TIP3    H151038   1.664   0.899  12.307 -1.0657  0.2068 -0.1281
 9849TIP3    H251039   1.629   1.046  12.316 -0.2798  0.3935 -0.0997
 9850TIP3   OH251040   3.568   3.218   4.591  0.3509 -0.1920  0.0533
 9850TIP3    H151041   3.569   3.292   4.652 -0.1088 -0.1964  0.0692
 9850TIP3    H251042   3.495   3.236   4.532 -0.6814 -1.3241  0.9310
 9851TIP3   OH251043   1.187   4.030  15.295 -0.3667 -0.3001  0.0060
 9851TIP3    H151044   1.233   4.111  15.320 -1.3997 -0.0311  1.1575
 9851TIP3    H251045   1.249   3.984  15.239  0.7861  0.6590  0.4305
 9852TIP3   OH251046   6.123   2.460  11.558  0.4483 -0.3769 -0.2402
 9852TIP3    H151047   6.072   2.500  11.628  1.4659 -0.6479  0.6783
 9852TIP3    H251048   6.068   2.470  11.480  0.0406  1.4909  0.2299
 9853TIP3   OH251049   4.264   5.987   5.233 -0.3655  0.5172 -0.4793
 9853TIP3    H151050   4.179   5.991   5.190  0.2985  0.1043 -1.8914
 9853TIP3    H251051   4.256   5.913   5.294 -1.1284  0.7124 -0.3323
 9854TIP3   OH251052   0.714   4.804  14.123 -0.6669 -0.0478  0.5885
 9854TIP3    H151053   0.621   4.784  14.117 -0.3929 -1.9787  1.7451
 9854TIP3    H251054   0.757   4.732  14.076  0.2334  1.5098 -1.0898
 9855TIP3   OH251055   1.638   3.997   1.332 -0.0210  0.2047  0.5220
 9855TIP3    H151056   1.685   4.076   1.359 -1.2982  0.8208  1.0247
 9855TIP3    H251057   1.660   3.986   1.240 -0.0345  1.3042  0.3787
 9856TIP3   OH251058   3.664   6.700  13.920 -0.1550  0.2365 -0.0305
 9856TIP3    H151059   3.628   6.736  13.839  0.8331  0.9252 -0.1845
 9856TIP3    H251060   3.604   6.731  13.988 -1.2555 -0.7352 -0.5239
 9857TIP3   OH251061   0.971   2.667  13.256  0.1614 -0.0777 -0.3131
 9857TIP3    H151062   0.966   2.743  13.315  1.0204  1.0349 -1.6111
 9857TIP3    H251063   0.981   2.592  13.315  0.3838  0.9209  0.9762
 9858TIP3   OH251064   5.074   4.830   5.403 -0.0734 -0.6796 -0.2352
 9858TIP3    H151065   4.986   4.804   5.378 -0.6610 -2.1687  2.8351
 9858TIP3    H251066   5.107   4.756   5.454  1.9456  0.8841  0.9076
 9859TIP3   OH251067   1.282   1.920  11.461 -0.0420 -0.5937 -0.0132
 9859TIP3    H151068   1.272   2.009  11.427 -1.4041 -0.5665  0.4238
 9859TIP3    H251069   1.322   1.871  11.389  0.2071  0.2326 -0.4490
 9860TIP3   OH251070   2.722   3.213  14.912 -0.2386 -0.1156  0.2819
 9860TIP3    H151071   2.669   3.243  14.986 -1.3947 -2.2025  0.3788
 9860TIP3    H251072   2.813   3.228  14.940 -0.6123 -1.4683  2.4503
 9861TIP3   OH251073   3.255   1.014   4.397  0.0715  0.7923  0.2598
 9861TIP3    H151074   3.331   0.982   4.446 -0.8846  0.3229  1.5169
 9861TIP3    H251075   3.180   0.991   4.452 -1.2103 -1.0163 -2.0584
 9862TIP3   OH251076   5.530   3.432   0.799  0.0477 -0.0313  0.4993
 9862TIP3    H151077   5.601   3.387   0.755 -1.0249 -0.6754 -0.6434
 9862TIP3    H251078   5.483   3.363   0.847  0.2201  0.3936  1.2944
 9863TIP3   OH251079   4.440   4.759  11.334  0.2641  0.0917  0.1028
 9863TIP3    H151080   4.402   4.673  11.354  0.5720 -0.1245 -0.2377
 9863TIP3    H251081   4.533   4.749  11.351  0.1826  0.6319  0.9582
 9864TIP3   OH251082   1.837   1.412   4.440 -0.3747 -0.3296 -0.1333
 9864TIP3    H151083   1.763   1.452   4.486 -0.7239 -1.2380  0.1186
 9864TIP3    H251084   1.899   1.484   4.428 -1.0397  0.3168  0.1767
 9865TIP3   OH251085   0.843   4.175   5.952  0.4776  0.0509  0.6075
 9865TIP3    H151086   0.862   4.105   6.014 -0.4393 -2.1684 -1.4312
 9865TIP3    H251087   0.780   4.231   5.998  0.2288 -1.2000  1.8808
 9866TIP3   OH251088   4.545   1.519  12.475 -0.3067  0.0578  0.0327
 9866TIP3    H151089   4.510   1.435  12.447 -1.3797  0.5551 -0.1750
 9866TIP3    H251090   4.523   1.525  12.568 -0.1788  0.0842  0.0614
 9867TIP3   OH251091   0.265   2.501   6.499  0.4641  0.1017  0.4452
 9867TIP3    H151092   0.220   2.442   6.560  1.2359  0.5804  1.4994
 9867TIP3    H251093   0.298   2.572   6.554  0.8393  0.7494 -0.5955
 9868TIP3   OH251094   6.091   4.303  16.483 -0.4520  0.3575 -0.2851
 9868TIP3    H151095   6.029   4.362  16.439  0.0550 -0.2086 -1.8085
 9868TIP3    H251096   6.039   4.262  16.552 -0.9970  2.0327  0.3700
 9869TIP3   OH251097   0.972   6.507   1.589 -0.4102  0.0713 -0.3313
 9869TIP3    H151098   0.934   6.420   1.605  1.4556 -0.7170  0.0718
 9869TIP3    H251099   0.936   6.562   1.659 -0.3691 -0.7984  0.3898
 9870TIP3   OH251100   5.028   3.271   2.630 -0.3391 -0.2106 -0.5186
 9870TIP3    H151101   5.012   3.336   2.699 -0.2356 -2.4843  1.8212
 9870TIP3    H251102   5.104   3.222   2.661 -1.3361 -2.4167 -1.3331
 9871TIP3   OH251103   5.901   4.504   2.102  0.3701  0.1353 -0.1020
 9871TIP3    H151104   5.877   4.554   2.180  0.2917  1.7932 -1.1434
 9871TIP3    H251105   5.945   4.426   2.137  0.1883  0.7386  1.5987
 9872TIP3   OH251106   1.653   3.114   2.692  0.3074  0.0986  0.2754
 9872TIP3    H151107   1.690   3.037   2.736 -0.5684  0.1068  1.0696
 9872TIP3    H251108   1.582   3.142   2.750  0.8526  1.7348  0.1932
 9873TIP3   OH251109   2.074   2.722  12.020 -0.6954  0.3384 -0.3092
 9873TIP3    H151110   2.020   2.801  12.024  0.3310  1.0541 -0.0988
 9873TIP3    H251111   2.016   2.655  11.985 -2.1567  0.6952  1.2964
 9874TIP3   OH251112   2.595   2.706  11.107 -0.0481  0.1488 -0.8801
 9874TIP3    H151113   2.543   2.633  11.140  0.8299  0.1469  0.5661
 9874TIP3    H251114   2.552   2.731  11.024 -1.1514 -1.1097 -0.7114
 9875TIP3   OH251115   3.494   1.297  11.226 -0.1463 -0.5518  0.7221
 9875TIP3    H151116   3.513   1.208  11.258 -0.0950 -0.8334 -0.0717
 9875TIP3    H251117   3.580   1.334  11.206 -0.1506 -0.2316  1.2644
 9876TIP3   OH251118   6.127   2.282   0.349 -0.1505  0.0024 -0.2761
 9876TIP3    H151119   6.191   2.239   0.292 -0.5284  0.6607 -1.2096
 9876TIP3    H251120   6.060   2.315   0.290 -0.4054  0.9441  0.5203
 9877TIP3   OH251121   1.894   5.387   5.249 -0.1491  0.4423 -0.1619
 9877TIP3    H151122   1.950   5.322   5.293  0.6885 -0.2112 -2.0826
 9877TIP3    H251123   1.902   5.465   5.304 -1.6833 -1.1462  2.5862
 9878TIP3   OH251124   4.078   3.807   4.388  0.2894 -0.4041 -0.0464
 9878TIP3    H151125   4.008   3.756   4.347 -0.0689  0.3745 -0.4334
 9878TIP3    H251126   4.064   3.796   4.482 -1.3676  1.0397 -0.0865
 9879TIP3   OH251127   5.792   5.475   4.785  0.0197 -0.2788  0.0679
 9879TIP3    H151128   5.770   5.463   4.692 -3.8152 -0.1003  0.7743
 9879TIP3    H251129   5.721   5.530   4.819 -0.0837 -2.3174  3.5946
 9880TIP3   OH251130   4.628   5.180   1.291  0.4242 -0.4203  0.2798
 9880TIP3    H151131   4.710   5.175   1.240  1.3508 -2.1963  1.8350
 9880TIP3    H251132   4.559   5.173   1.225  1.5144  0.0306 -0.9757
 9881TIP3   OH251133   6.289   5.291  11.417 -0.2155  0.0951  0.5857
 9881TIP3    H151134   6.292   5.366  11.476  0.6686  0.4846  0.0750
 9881TIP3    H251135   6.214   5.307  11.360 -0.6501  0.0656  1.1461
 9882TIP3   OH251136   0.363   2.460  15.633 -0.2520 -0.0849 -0.5634
 9882TIP3    H151137   0.293   2.436  15.693 -0.8922 -0.1995 -1.3443
 9882TIP3    H251138   0.319   2.499  15.557  0.5756  0.6299 -0.7072
 9883TIP3   OH251139   0.764   0.750  13.792 -0.4137  0.5760 -0.2755
 9883TIP3    H151140   0.838   0.696  13.762 -0.3016  1.2441 -1.2585
 9883TIP3    H251141   0.802   0.837  13.806 -1.0076  0.9310 -0.8162
 9884TIP3   OH251142   5.137   3.415   5.738  0.0257 -0.4616  0.0247
 9884TIP3    H151143   5.115   3.391   5.648 -1.7925  0.5939  0.1373
 9884TIP3    H251144   5.061   3.464   5.769  0.7205 -0.5739  2.0605
 9885TIP3   OH251145   4.204   0.876   2.951  0.4110 -0.2414  0.3836
 9885TIP3    H151146   4.262   0.951   2.936  0.4431  0.0205  1.6618
 9885TIP3    H251147   4.262   0.808   2.986  0.2396 -0.5801  0.0103
 9886TIP3   OH251148   4.358   1.035   2.383 -0.2644 -0.1200  0.5870
 9886TIP3    H151149   4.360   0.939   2.385 -2.1551 -0.2413 -0.3006
 9886TIP3    H251150   4.374   1.057   2.291  0.0471  0.4020  0.7664
 9887TIP3   OH251151   1.551   2.874  10.791 -0.1105 -0.1077 -0.4126
 9887TIP3    H151152   1.518   2.928  10.719 -0.1787 -1.2205 -1.2372
 9887TIP3    H251153   1.633   2.916  10.817  0.1628  0.0374 -1.4725
 9888TIP3   OH251154   2.871   4.262  11.218 -0.2577  0.0741 -0.2291
 9888TIP3    H151155   2.841   4.174  11.194 -2.8519  0.9260 -0.2957
 9888TIP3    H251156   2.800   4.320  11.193  1.6194  2.3051 -0.6649
 9889TIP3   OH251157   5.469   3.348  12.766 -0.2236 -0.1296  0.1870
 9889TIP3    H151158   5.476   3.277  12.703 -1.1199  0.6121 -0.7731
 9889TIP3    H251159   5.559   3.363  12.795 -0.0886 -2.1163  0.9697
 9890TIP3   OH251160   5.084   1.548  16.020  0.1028 -0.9847  0.5067
 9890TIP3    H151161   5.058   1.565  16.111 -1.7222 -1.4120  0.1091
 9890TIP3    H251162   5.155   1.484  16.026  1.3705  0.4632  1.6814
 9891TIP3   OH251163   1.737   4.572   1.006 -0.0116 -0.2371 -0.1905
 9891TIP3    H151164   1.753   4.574   0.912 -1.5612 -0.1544 -0.4851
 9891TIP3    H251165   1.822   4.552   1.045  1.1204  1.8492 -1.4475
 9892TIP3   OH251166   1.898   2.046   3.689 -0.0197  0.3021  0.4093
 9892TIP3    H151167   1.885   2.137   3.716 -2.5275 -0.5174  2.3265
 9892TIP3    H251168   1.856   2.040   3.603  1.4235  1.2343 -0.3953
 9893TIP3   OH251169   4.142   6.497   6.454  0.3398  0.2148 -0.5632
 9893TIP3    H151170   4.061   6.533   6.490 -0.1014 -0.1814 -1.1270
 9893TIP3    H251171   4.187   6.572   6.416  0.2221  0.4324 -0.2762
 9894TIP3   OH251172   1.672   6.772  10.646 -0.4063 -0.2841  0.2146
 9894TIP3    H151173   1.592   6.732  10.680 -0.1032 -0.3703  0.8296
 9894TIP3    H251174   1.669   6.754  10.552 -0.8687 -0.7061  0.3048
 9895TIP3   OH251175   1.581   3.037  17.051  0.3411 -0.6806  0.1690
 9895TIP3    H151176   1.564   2.985  16.972 -1.5816  0.2387 -0.0663
 9895TIP3    H251177   1.495   3.068  17.079  0.8465 -1.7813  3.2374
 9896TIP3   OH251178   3.750   2.517   1.165  0.3559  0.7224  0.3252
 9896TIP3    H151179   3.695   2.592   1.189 -2.5650 -1.0295 -0.3739
 9896TIP3    H251180   3.782   2.483   1.248  0.7643  2.0095  0.7204
 9897TIP3   OH251181   0.362   5.684   3.943 -0.2885 -0.2650  0.3531
 9897TIP3    H151182   0.426   5.627   3.985  2.2069  2.9395  1.3644
 9897TIP3    H251183   0.279   5.665   3.987  1.1477 -0.7525  3.0626
 9898TIP3   OH251184   4.136   0.167  15.362 -0.0310  0.2871  0.3545
 9898TIP3    H151185   4.149   0.073  15.348 -0.8678  0.2143 -0.0023
 9898TIP3    H251186   4.079   0.172  15.439 -2.5926  0.3391 -1.4068
 9899TIP3   OH251187   5.892   1.289   2.269  0.2823 -0.1252  0.2010
 9899TIP3    H151188   5.941   1.369   2.250 -0.7289  0.2772 -0.8614
 9899TIP3    H251189   5.846   1.270   2.187  0.9381 -2.1306  0.2354
 9900TIP3   OH251190   4.883   4.502   5.313 -0.3110  0.3264 -0.2346
 9900TIP3    H151191   4.790   4.486   5.331 -0.9456  1.0095 -2.6124
 9900TIP3    H251192   4.886   4.588   5.272  1.3821  0.2807 -0.3018
 9901TIP3   OH251193   1.720   5.417  14.589  0.1153 -0.3589 -0.0095
 9901TIP3    H151194   1.752   5.395  14.501 -0.5282 -1.6546  0.0613
 9901TIP3    H251195   1.680   5.504  14.578  1.7592  0.3678 -0.5409
 9902TIP3   OH251196   1.932   4.147   4.091 -0.5869  0.1300 -0.1606
 9902TIP3    H151197   1.849   4.107   4.067  0.2902 -0.2310 -2.9313
 9902TIP3    H251198   1.952   4.207   4.019  1.6080  0.1027  0.3398
 9903TIP3   OH251199   4.371   5.299  13.297  0.5369 -0.0536 -0.2308
 9903TIP3    H151200   4.277   5.318  13.291  0.0475 -2.1119 -0.0846
 9903TIP3    H251201   4.398   5.288  13.206 -0.0634 -2.1523 -0.2275
 9904TIP3   OH251202   5.770   0.409   5.549  0.0915 -0.2675  0.0755
 9904TIP3    H151203   5.797   0.500   5.562  0.9570 -0.5667  0.4444
 9904TIP3    H251204   5.845   0.357   5.578 -1.0167 -1.1503  1.5212
 9905TIP3   OH251205   4.992   1.792  14.398 -0.1380 -0.0288  0.7157
 9905TIP3    H151206   5.087   1.802  14.398 -0.3153  1.8646  1.0237
 9905TIP3    H251207   4.962   1.842  14.474 -1.5879  1.9264 -1.0320
 9906TIP3   OH251208   1.317   1.161   6.132  0.7287  0.4138 -0.3858
 9906TIP3    H151209   1.278   1.209   6.205 -1.0978 -1.6381  0.1038
 9906TIP3    H251210   1.364   1.089   6.174  0.2902 -0.3552 -1.1992
 9907TIP3   OH251211   4.265   5.770   0.667  0.0762  0.1101 -0.4808
 9907TIP3    H151212   4.332   5.768   0.736  1.1064  2.8616 -1.2730
 9907TIP3    H251213   4.219   5.853   0.681 -0.7909 -0.0633 -2.1029
 9908TIP3   OH251214   6.199   5.379   5.245 -0.1026 -0.2982 -0.3304
 9908TIP3    H151215   6.112   5.338   5.253 -0.4822  0.1510 -1.8630
 9908TIP3    H251216   6.221   5.404   5.335 -1.1651 -1.1962  0.2218
 9909TIP3   OH251217   5.582   6.367   1.697  0.3499  0.1443 -0.0840
 9909TIP3    H151218   5.627   6.295   1.741  0.0380  1.1329  2.0155
 9909TIP3    H251219   5.608   6.445   1.747 -1.2209  1.1470 -0.7549
 9910TIP3   OH251220   2.317   1.314  15.519  0.1089  0.0295 -0.7435
 9910TIP3    H151221   2.349   1.249  15.583 -0.1807  0.3499 -0.2636
 9910TIP3    H251222   2.222   1.317  15.535  0.3803  2.3085  0.9073
 9911TIP3   OH251223   3.956   2.085   6.579 -0.0608 -0.3645  0.1167
 9911TIP3    H151224   3.911   2.035   6.646  0.4277  0.4599  1.0892
 9911TIP3    H251225   3.995   2.019   6.522 -1.3622 -1.0784  0.0141
 9912TIP3   OH251226   6.333   0.500   0.795  0.6146  0.0056 -0.4593
 9912TIP3    H151227   6.282   0.563   0.744  0.0372 -0.4967 -0.5068
 9912TIP3    H251228   6.412   0.486   0.742  1.5917  1.9655  0.3452
 9913TIP3   OH251229   5.290   1.647  11.773 -0.3040  0.0492  0.5063
 9913TIP3    H151230   5.215   1.695  11.740 -0.4973 -1.4041 -1.3889
 9913TIP3    H251231   5.365   1.683  11.725 -0.4352 -1.3643 -0.8343
 9914TIP3   OH251232   2.285   1.937  15.494  0.4377 -0.2756  0.4502
 9914TIP3    H151233   2.266   2.027  15.521 -1.1626 -0.4612  0.0191
 9914TIP3    H251234   2.276   1.938  15.398 -0.4673 -1.0829  0.5155
 9915TIP3   OH251235   3.242   6.048  10.709 -0.4787  0.5156 -0.1285
 9915TIP3    H151236   3.335   6.044  10.687 -0.2739 -0.8284  0.8035
 9915TIP3    H251237   3.228   6.137  10.740  0.2815  1.0014 -1.1300
 9916TIP3   OH251238   1.178   6.398   3.462  0.2248  0.2238 -0.2989
 9916TIP3    H151239   1.189   6.348   3.542 -0.7458 -0.1308 -0.3745
 9916TIP3    H251240   1.220   6.345   3.394  1.8024  0.9233  0.0879
 9917TIP3   OH251241   0.059   6.479  15.318  0.2399 -0.1846  0.0607
 9917TIP3    H151242   0.140   6.526  15.296  0.1509  0.2571  0.6663
 9917TIP3    H251243   0.083   6.424  15.392 -0.5937  1.7749  1.8895
 9918TIP3   OH251244   1.834   3.782   6.301 -0.2628 -0.2497  0.3313
 9918TIP3    H151245   1.871   3.701   6.265  0.3299  0.5627 -0.9762
 9918TIP3    H251246   1.903   3.847   6.290 -0.4656  0.2891  2.0274
 9919TIP3   OH251247   3.058   3.457   0.892 -0.3278 -0.5337  0.2431
 9919TIP3    H151248   3.066   3.530   0.953  3.0002  0.1881 -0.8540
 9919TIP3    H251249   2.965   3.438   0.890 -1.2140  2.9525  1.4069
 9920TIP3   OH251250   5.710   0.026   0.233 -0.0860  0.0009 -0.2788
 9920TIP3    H151251   5.656   0.008   0.157 -1.5608 -1.2653  1.0080
 9920TIP3    H251252   5.739  -0.060   0.264  0.5293  0.4945  0.5744
 9921TIP3   OH251253   1.762   4.360  11.517 -0.3032 -0.0441  0.0918
 9921TIP3    H151254   1.669   4.383  11.526 -0.0638  0.8526  0.3196
 9921TIP3    H251255   1.773   4.339  11.424 -1.0756 -1.7445  0.3362
 9922TIP3   OH251256   1.344   4.303  15.358  0.1458 -0.2607  0.4306
 9922TIP3    H151257   1.439   4.300  15.375 -0.2913 -1.5469  3.2600
 9922TIP3    H251258   1.305   4.313  15.445 -2.3654 -0.7409 -0.5689
 9923TIP3   OH251259   6.461   1.128  15.411  0.4861  0.5271  0.1267
 9923TIP3    H151260   6.551   1.096  15.411  1.1777  2.2041 -1.6660
 9923TIP3    H251261   6.470   1.222  15.431 -0.9392  0.5719  0.6247
 9924TIP3   OH251262   0.940   2.151   2.232 -0.1703  0.6700 -0.3684
 9924TIP3    H151263   0.934   2.199   2.149 -1.1844  2.5542  0.7251
 9924TIP3    H251264   1.034   2.145   2.249 -0.0050  2.0030 -0.7057
 9925TIP3   OH251265   2.829   0.340   5.130  0.3177  0.1108  0.0374
 9925TIP3    H151266   2.759   0.378   5.077 -0.5415 -1.8413 -0.2989
 9925TIP3    H251267   2.788   0.320   5.214  1.5006  2.5286  1.2979
 9926TIP3   OH251268   2.358   5.744   3.439 -0.5184 -0.0605  0.4546
 9926TIP3    H151269   2.273   5.729   3.397 -0.7169  0.1630  0.7682
 9926TIP3    H251270   2.389   5.827   3.401  0.2761 -0.9004 -0.7958
 9927TIP3   OH251271   3.580   1.567   2.826  0.2376  0.3318  0.4813
 9927TIP3    H151272   3.502   1.572   2.881  0.2887  2.5369  0.4124
 9927TIP3    H251273   3.639   1.509   2.874 -1.5384 -1.7436  0.3345
 9928TIP3   OH251274   0.292   1.901  15.603  0.1271 -0.3194 -0.0919
 9928TIP3    H151275   0.347   1.978  15.612  2.0357 -1.4085 -1.6545
 9928TIP3    H251276   0.205   1.930  15.630  1.1748  1.8187  1.2182
 9929TIP3   OH251277   2.643   2.960   6.159  0.4695  0.0374 -0.0225
 9929TIP3    H151278   2.728   2.919   6.176  1.2568  1.2921 -0.7981
 9929TIP3    H251279   2.643   3.039   6.214 -0.0562  0.2274 -0.2897
 9930TIP3   OH251280   6.423   4.722  13.248 -0.5554  0.2312  0.0898
 9930TIP3    H151281   6.369   4.708  13.170 -1.9093  2.4471  0.5481
 9930TIP3    H251282   6.416   4.816  13.265  1.3255  0.1353  1.7548
 9931TIP3   OH251283   0.807   6.197   0.861  0.1011 -0.0258 -0.5163
 9931TIP3    H151284   0.745   6.130   0.887  1.3678 -0.9028  0.3249
 9931TIP3    H251285   0.788   6.213   0.768 -1.4132 -0.1926 -0.2537
 9932TIP3   OH251286   6.466   5.721   4.803  0.9565  0.2681  0.4701
 9932TIP3    H151287   6.432   5.703   4.890  1.6358  1.3865  0.9980
 9932TIP3    H251288   6.561   5.727   4.816  1.2138 -0.9793 -0.6238
 9933TIP3   OH251289   4.360   0.471   0.577 -0.6003  0.1892 -0.0775
 9933TIP3    H151290   4.332   0.462   0.486  0.4443  1.0593 -0.5078
 9933TIP3    H251291   4.451   0.503   0.571 -0.5791  0.4265  1.2629
 9934TIP3   OH251292   6.018   3.474  12.826  0.0905  0.1711 -0.5169
 9934TIP3    H151293   6.032   3.392  12.779  0.4448 -0.6617  0.9768
 9934TIP3    H251294   6.079   3.536  12.786  0.8113 -0.6798 -0.7600
 9935TIP3   OH251295   3.362   4.511   4.159  0.7500  0.4465 -0.6917
 9935TIP3    H151296   3.446   4.555   4.173  0.2633  1.3404 -0.5153
 9935TIP3    H251297   3.313   4.570   4.102 -0.0076  0.2502 -0.2587
 9936TIP3   OH251298   1.556   5.284   2.897 -0.4628 -0.2609  0.4426
 9936TIP3    H151299   1.484   5.337   2.865 -0.2215  1.6090  2.7312
 9936TIP3    H251300   1.632   5.342   2.894  0.5811 -1.5880 -0.1142
 9937TIP3   OH251301   2.355   6.454  15.150 -0.1410 -0.1671  0.7894
 9937TIP3    H151302   2.297   6.395  15.101  0.1555 -1.6747  2.1754
 9937TIP3    H251303   2.427   6.473  15.090 -1.5943  1.0699 -0.6638
 9938TIP3   OH251304   1.897   2.940   0.001  0.4444  0.2274 -0.3893
 9938TIP3    H151305   1.866   3.027   0.024 -1.3943 -0.0125 -1.8188
 9938TIP3    H251306   1.909   2.896   0.085 -0.8860  1.1031  0.2884
 9939TIP3   OH251307   4.759   5.445  13.637 -0.6528 -0.2193  0.3317
 9939TIP3    H151308   4.775   5.472  13.547 -1.0482 -1.7475 -0.2310
 9939TIP3    H251309   4.846   5.445  13.678 -0.5512  1.1308  0.1704
 9940TIP3   OH251310   6.795   5.047  13.093  0.8249 -0.1752 -0.7928
 9940TIP3    H151311   6.735   4.973  13.099  1.3187 -0.5449 -0.2736
 9940TIP3    H251312   6.762   5.110  13.157 -0.8993  1.0420 -2.7711
 9941TIP3   OH251313   2.791   4.030   2.266 -0.1362  0.5653 -0.0859
 9941TIP3    H151314   2.820   3.990   2.348  2.3611  0.6531 -0.8378
 9941TIP3    H251315   2.770   3.955   2.210  1.0127  0.3774 -0.2956
 9942TIP3   OH251316   5.366   5.557  11.250 -0.2371 -0.7753 -0.5080
 9942TIP3    H151317   5.310   5.550  11.173 -0.2789 -0.7515 -0.4793
 9942TIP3    H251318   5.388   5.650  11.256  0.8231 -0.9621 -1.2551
 9943TIP3   OH251319   3.295   0.954  12.589  0.4951  0.3551  0.0425
 9943TIP3    H151320   3.296   1.013  12.514  1.7012  1.1701  0.6591
 9943TIP3    H251321   3.387   0.929  12.600  0.1916 -0.5455  0.6357
 9944TIP3   OH251322   0.623   6.572  13.624 -0.6051  0.4073 -0.3611
 9944TIP3    H151323   0.537   6.588  13.663 -0.3316  1.1756 -0.0479
 9944TIP3    H251324   0.619   6.481  13.594 -1.7380  0.6175 -0.9155
 9945TIP3   OH251325   3.760   0.548  14.009  0.8145 -0.4638  0.2083
 9945TIP3    H151326   3.774   0.515  13.921 -1.7783 -0.6799 -0.2015
 9945TIP3    H251327   3.666   0.569  14.013  0.9824  0.2401  2.6771
 9946TIP3   OH251328   3.560   5.469   4.345 -0.1124  0.1319  0.1915
 9946TIP3    H151329   3.569   5.375   4.360  2.8627  0.1165 -1.0768
 9946TIP3    H251330   3.590   5.482   4.255  0.1327  2.3719  0.5323
 9947TIP3   OH251331   1.527   0.515  12.818 -0.1957 -0.1695 -0.0470
 9947TIP3    H151332   1.456   0.575  12.841  0.4967  0.6171  0.0806
 9947TIP3    H251333   1.484   0.430  12.809 -1.0861  0.2073  0.4636
 9948TIP3   OH251334   1.960   4.521   4.544 -0.2272 -0.5613  0.0345
 9948TIP3    H151335   1.910   4.602   4.555 -1.2322 -1.4282  2.6378
 9948TIP3    H251336   2.048   4.544   4.573 -0.0818 -0.0253 -0.7907
 9949TIP3   OH251337   0.046   5.188  15.487 -0.0791 -0.4505  0.3752
 9949TIP3    H151338   0.028   5.273  15.447 -1.2373 -0.5918  0.5564
 9949TIP3    H251339   0.138   5.172  15.469 -0.3738 -0.1982 -1.6534
 9950TIP3   OH251340   6.450   1.483  12.278  0.3010 -0.4652 -0.3001
 9950TIP3    H151341   6.446   1.509  12.186 -2.8496  0.3913 -0.0219
 9950TIP3    H251342   6.418   1.392  12.278  1.3303 -0.8391 -0.1361
 9951TIP3   OH251343   0.621   0.406   5.884  0.1243  0.2561 -0.5202
 9951TIP3    H151344   0.654   0.356   5.959 -0.4028 -0.1259 -0.5360
 9951TIP3    H251345   0.626   0.497   5.912  0.9669  0.1907 -0.4360
 9952TIP3   OH251346   0.380   6.354   6.175  0.2051 -0.0041  0.6036
 9952TIP3    H151347   0.331   6.338   6.095  2.2701 -1.1300 -0.5202
 9952TIP3    H251348   0.369   6.274   6.227 -1.2535  0.7790  1.5880
 9953TIP3   OH251349   1.986   5.583  16.470  0.3691 -0.5094 -0.1027
 9953TIP3    H151350   2.046   5.652  16.498  1.4851 -2.2684  2.0676
 9953TIP3    H251351   2.032   5.501  16.488 -2.3940 -1.9365  1.0332
 9954TIP3   OH251352   5.360   0.467   2.044  0.2501  0.1822 -0.3779
 9954TIP3    H151353   5.343   0.387   1.996 -1.2005 -0.3963  0.9968
 9954TIP3    H251354   5.325   0.537   1.988 -0.4283 -0.3618 -0.6442
 9955TIP3   OH251355   1.152   5.710   5.697  1.0236 -0.0227  0.4475
 9955TIP3    H151356   1.161   5.647   5.768 -0.4530 -0.2262  0.5019
 9955TIP3    H251357   1.201   5.787   5.725  0.7556 -0.2290  1.5374
 9956TIP3   OH251358   3.565   6.610  14.938  0.0767  0.1208  0.2006
 9956TIP3    H151359   3.619   6.547  14.985  0.1611  0.9392  1.2378
 9956TIP3    H251360   3.486   6.619  14.991 -0.6206 -0.2612 -0.7528
 9957TIP3   OH251361   5.736   3.723   6.255 -0.2119  0.4572 -0.7942
 9957TIP3    H151362   5.746   3.779   6.332 -1.4155  0.1888 -0.4237
 9957TIP3    H251363   5.654   3.752   6.214 -0.4165 -0.4719 -1.0620
 9958TIP3   OH251364   1.771   6.338  14.893  0.1228  0.3003 -0.0324
 9958TIP3    H151365   1.728   6.350  14.977  1.1526 -0.0628  0.5696
 9958TIP3    H251366   1.752   6.248  14.868  1.1551 -0.1299  0.6321
 9959TIP3   OH251367   0.840   0.580   4.599 -0.2045 -0.0189  0.3488
 9959TIP3    H151368   0.760   0.533   4.624 -1.6282  0.9367 -2.0419
 9959TIP3    H251369   0.830   0.667   4.639 -1.5498  0.8635 -1.7396
 9960TIP3   OH251370   2.944   1.527   0.133  0.1163  0.1968 -0.0187
 9960TIP3    H151371   2.930   1.437   0.105 -1.4780  0.1367  0.8124
 9960TIP3    H251372   3.005   1.564   0.070  0.5257 -1.3623 -0.5640
 9961TIP3   OH251373   2.751   4.915   2.598 -0.1574 -0.2622 -0.3386
 9961TIP3    H151374   2.747   5.011   2.596 -0.2171 -0.2739 -1.0504
 9961TIP3    H251375   2.769   4.890   2.507  1.9035 -0.8359  0.1756
 9962TIP3   OH251376   0.232   6.566  14.235 -0.0379 -0.2003  0.3050
 9962TIP3    H151377   0.217   6.486  14.286 -1.9343  0.6919  1.2568
 9962TIP3    H251378   0.196   6.545  14.148  0.7001 -0.8171  0.1408
 9963TIP3   OH251379   6.219   5.685  16.793 -0.4693  0.6444 -0.4579
 9963TIP3    H151380   6.137   5.700  16.747  1.0630  2.4328 -2.8466
 9963TIP3    H251381   6.284   5.672  16.724  1.1053 -2.0738  1.3439
 9964TIP3   OH251382   4.063   1.666  16.007 -0.2614  0.3873 -0.0074
 9964TIP3    H151383   4.087   1.706  16.091 -0.0896 -1.4889  0.9001
 9964TIP3    H251384   3.979   1.624  16.024 -0.8655  1.0825 -1.1834
 9965TIP3   OH251385   0.458   0.674   3.691  0.1542  0.2983 -0.4500
 9965TIP3    H151386   0.476   0.621   3.614  0.4520 -1.6466  0.9103
 9965TIP3    H251387   0.492   0.761   3.668 -0.9565  0.1729 -2.9876
 9966TIP3   OH251388   2.926   3.689  14.716  0.0697 -0.1834  0.4409
 9966TIP3    H151389   2.920   3.778  14.681  2.8506 -0.6755 -1.6700
 9966TIP3    H251390   3.002   3.692  14.774 -0.9083 -0.8152  1.7972
 9967TIP3   OH251391   6.509   0.480  11.989  0.3078 -0.0277  0.5057
 9967TIP3    H151392   6.471   0.527  12.063 -0.4736  0.7872 -0.3681
 9967TIP3    H251393   6.447   0.409  11.971 -0.0633  0.4123 -0.0021
 9968TIP3   OH251394   4.943   6.051   2.943 -0.2587  0.0642  0.2456
 9968TIP3    H151395   4.876   6.008   2.889  0.6044 -0.7677 -0.2029
 9968TIP3    H251396   4.971   6.127   2.891 -1.4796  0.9556  0.8454
 9969TIP3   OH251397   4.147   4.032   6.129  0.1797 -0.4825 -0.2021
 9969TIP3    H151398   4.179   4.119   6.153 -0.1637  0.0278 -1.4917
 9969TIP3    H251399   4.223   3.975   6.138  0.6101  0.1026 -0.0992
 9970TIP3   OH251400   4.259   5.525   3.808  0.3808 -0.3244 -0.5271
 9970TIP3    H151401   4.288   5.459   3.870  0.1843 -0.4012 -0.5140
 9970TIP3    H251402   4.230   5.474   3.732  0.8391 -0.2196 -0.7722
 9971TIP3   OH251403   3.629   3.190   6.030 -0.5992 -0.7564  0.1328
 9971TIP3    H151404   3.566   3.168   6.098 -2.2472  0.0687 -1.0404
 9971TIP3    H251405   3.616   3.123   5.963  0.5515 -1.1943  0.3311
 9972TIP3   OH251406   1.058   4.334   1.712 -0.1001  0.4452  0.2117
 9972TIP3    H151407   1.090   4.293   1.793 -1.8571 -1.9754 -0.1757
 9972TIP3    H251408   1.074   4.427   1.724  1.4467 -0.0283  2.5159
 9973TIP3   OH251409   6.701   6.059   5.392  0.0248 -0.1858  0.5412
 9973TIP3    H151410   6.722   6.142   5.351 -0.9757  0.1618  0.6967
 9973TIP3    H251411   6.640   6.081   5.462  0.1167 -0.9982  0.8918
 9974TIP3   OH251412   0.156   0.095   2.037  0.3718 -0.4716 -0.3323
 9974TIP3    H151413   0.080   0.095   1.979 -0.5523  1.6809  0.7548
 9974TIP3    H251414   0.230   0.116   1.979 -0.1916 -0.4472 -1.0596
 9975TIP3   OH251415   1.574   2.255   1.250  0.1497  0.2871 -0.4723
 9975TIP3    H151416   1.602   2.280   1.162  1.1656 -0.3645 -0.3483
 9975TIP3    H251417   1.632   2.183   1.274 -0.3439  0.2295  0.5967
 9976TIP3   OH251418   6.355   4.600   0.885 -0.0402 -0.5738  0.5548
 9976TIP3    H151419   6.387   4.607   0.795 -1.8068  0.0435 -0.0792
 9976TIP3    H251420   6.270   4.645   0.883  0.2195  0.1140  2.7150
 9977TIP3   OH251421   4.537   3.626  11.308  0.2411 -0.1040  0.0923
 9977TIP3    H151422   4.562   3.616  11.216  1.2441 -1.1113  0.4611
 9977TIP3    H251423   4.620   3.630  11.355 -0.2654  0.5923  0.9560
 9978TIP3   OH251424   4.318   6.807   4.400  0.6354 -0.4686 -0.0296
 9978TIP3    H151425   4.233   6.782   4.363  1.2264 -1.2330 -0.8834
 9978TIP3    H251426   4.382   6.753   4.355  1.8388  1.6166 -0.9747
 9979TIP3   OH251427   5.124   3.310   2.256  0.1507 -0.4297  0.5005
 9979TIP3    H151428   5.152   3.401   2.243 -0.9657  0.2190  2.1938
 9979TIP3    H251429   5.080   3.287   2.175  3.6820 -0.8429 -1.4995
 9980TIP3   OH251430   5.999   1.206   2.940 -0.1428  0.5122  0.6697
 9980TIP3    H151431   6.053   1.153   2.998  0.5512  0.7796  0.2925
 9980TIP3    H251432   6.037   1.294   2.946  0.0873  0.5046 -0.3296
 9981TIP3   OH251433   5.501   4.356  12.994  0.4705  0.2614  0.2649
 9981TIP3    H151434   5.472   4.425  12.935 -1.9594 -0.4337  0.5123
 9981TIP3    H251435   5.535   4.287  12.937  0.5635  0.6469 -0.1456
 9982TIP3   OH251436   1.868   2.390  11.293 -0.4554  0.4250  0.3098
 9982TIP3    H151437   1.863   2.294  11.287 -1.1548  0.5086 -0.6651
 9982TIP3    H251438   1.816   2.411  11.371  0.0760 -0.0097  0.7935
 9983TIP3   OH251439   2.073   5.857   3.154 -0.1322  0.2985  0.3881
 9983TIP3    H151440   2.095   5.821   3.239 -0.2178  1.8481  1.0917
 9983TIP3    H251441   2.155   5.853   3.104  0.0412 -0.1552  0.7025
 9984TIP3   OH251442   1.207   2.729   6.512  0.5906 -0.2441 -0.0096
 9984TIP3    H151443   1.234   2.810   6.555  1.1437 -0.4578  0.0532
 9984TIP3    H251444   1.282   2.704   6.457 -0.1321  0.0626 -1.1684
 9985TIP3   OH251445   1.627   1.298   0.488  0.1458  0.1953 -0.1395
 9985TIP3    H151446   1.541   1.338   0.481  0.4596  0.7243 -1.3206
 9985TIP3    H251447   1.675   1.354   0.550 -0.6977 -0.7859  1.4585
 9986TIP3   OH251448   2.975   5.451  14.878  0.1372 -0.1731  0.6299
 9986TIP3    H151449   2.954   5.376  14.934 -0.2250  0.9755  2.1101
 9986TIP3    H251450   3.068   5.439  14.858  0.3559 -0.4931  1.7269
 9987TIP3   OH251451   6.670   0.230   0.913  0.2411 -0.0262  0.9146
 9987TIP3    H151452   6.666   0.290   0.988  0.0174  0.5070  0.4863
 9987TIP3    H251453   6.596   0.171   0.926  0.2925 -0.0310  1.1959
 9988TIP3   OH251454   3.578   3.326  14.814 -0.0328 -0.0880  0.3543
 9988TIP3    H151455   3.580   3.370  14.899 -0.8255 -1.3349  1.0420
 9988TIP3    H251456   3.569   3.233  14.835  2.5148 -0.7458 -1.0273
 9989TIP3   OH251457   6.448   1.713   5.778 -0.2469  0.1996 -0.9980
 9989TIP3    H151458   6.508   1.643   5.752  1.0279  1.4829 -1.6229
 9989TIP3    H251459   6.402   1.677   5.853 -0.8259 -1.9319 -2.2716
 9990TIP3   OH251460   2.723   5.477  12.774 -0.0135 -0.0300 -0.4459
 9990TIP3    H151461   2.744   5.512  12.687 -0.0346  0.1576 -0.3753
 9990TIP3    H251462   2.808   5.459  12.814 -0.0081 -0.3072 -0.5834
 9991TIP3   OH251463   2.591   4.780  10.520 -0.4369 -0.7000 -0.5985
 9991TIP3    H151464   2.529   4.833  10.569  2.1966  0.3305  1.9341
 9991TIP3    H251465   2.609   4.831  10.441 -0.8226  0.3039 -0.0558
 9992TIP3   OH251466   4.429   2.522   0.837  0.5640  0.0941 -0.0943
 9992TIP3    H151467   4.471   2.483   0.760  0.7445 -2.2723  1.0904
 9992TIP3    H251468   4.336   2.527   0.814  0.6108 -0.6168 -0.4675
 9993TIP3   OH251469   3.976   1.452   3.773  0.0879  0.1760  0.4114
 9993TIP3    H151470   4.014   1.364   3.782 -0.6412  0.0010  2.1053
 9993TIP3    H251471   4.051   1.511   3.779  0.8132 -0.3123 -2.3671
 9994TIP3   OH251472   4.868   1.408   3.767 -0.4325  0.3994 -0.1713
 9994TIP3    H151473   4.823   1.337   3.813  0.2226 -1.0742 -1.7416
 9994TIP3    H251474   4.821   1.487   3.796 -0.2537 -0.4381  2.7500
 9995TIP3   OH251475   1.946   2.631  11.611  0.1315  0.5451 -0.4667
 9995TIP3    H151476   1.904   2.579  11.680  1.6061 -0.1668 -0.0564
 9995TIP3    H251477   1.883   2.701  11.591 -1.2298 -0.4823  0.0807
 9996TIP3   OH251478   5.844   5.381  14.694 -0.3288  0.3653 -0.2086
 9996TIP3    H151479   5.853   5.378  14.598 -0.2682  2.2530 -0.2880
 9996TIP3    H251480   5.758   5.421  14.708  0.5456  2.0799  0.4999
 9997TIP3   OH251481   6.105   0.452  14.600 -0.2574  0.4505 -0.5278
 9997TIP3    H151482   6.193   0.489  14.604 -0.3096  0.6404 -1.0638
 9997TIP3    H251483   6.058   0.510  14.540  0.0569 -1.2495 -2.5459
 9998TIP3   OH251484   4.484   6.723   2.040  0.1211  0.0571  0.8465
 9998TIP3    H151485   4.433   6.710   1.960  2.1412 -0.8300 -0.3883
 9998TIP3    H251486   4.421   6.710   2.111 -1.8220  1.2749 -0.5657
 9999TIP3   OH251487   2.540   3.236  13.216 -0.3534 -0.0641 -0.0839
 9999TIP3    H151488   2.450   3.205  13.218 -0.0130 -1.0796  0.1633
 9999TIP3    H251489   2.539   3.310  13.155 -1.7815  1.4202  1.6679
10000TIP3   OH251490   3.866   0.525  11.472  0.3401  0.0853 -0.7698
10000TIP3    H151491   3.784   0.571  11.458  1.0836  1.3032 -1.3042
10000TIP3    H251492   3.850   0.469  11.548 -1.0287  0.1318 -0.9970
10001TIP3   OH251493   1.760   5.078   5.939  0.2784 -0.6246  0.5394
10001TIP3    H151494   1.746   5.104   5.848 -0.0251  0.6580  0.9334
10001TIP3    H251495   1.814   5.148   5.976 -1.3950  0.0226  1.9044
10002TIP3   OH251496   2.454   0.785   1.839 -0.1300 -0.2165 -0.0906
10002TIP3    H151497   2.400   0.821   1.769  0.9627 -1.0728 -1.4425
10002TIP3    H251498   2.530   0.843   1.844  2.2320 -2.6843 -3.0927
10003TIP3   OH251499   6.353   4.689  12.469 -0.6452 -0.0854  0.2973
10003TIP3    H151500   6.281   4.641  12.426 -0.7436 -0.5661  0.9713
10003TIP3    H251501   6.366   4.766  12.415 -1.2519 -0.3113 -0.1901
10004TIP3   OH251502   6.151   3.327   0.741 -0.3763  0.6191 -0.6411
10004TIP3    H151503   6.218   3.345   0.807 -0.7909  0.0471 -0.0504
10004TIP3    H251504   6.182   3.372   0.663  0.0103  1.5068  0.0036
10005TIP3   OH251505   5.489   2.873   5.959 -0.1146  0.3677 -0.4108
10005TIP3    H151506   5.520   2.940   6.020 -0.0905 -0.6374  0.7059
10005TIP3    H251507   5.568   2.830   5.928 -0.2430 -1.0567  1.1228
10006TIP3   OH251508   4.538   4.428  10.712 -0.1221  0.0554 -0.3937
10006TIP3    H151509   4.519   4.385  10.629 -1.6576 -0.7896  0.3500
10006TIP3    H251510   4.499   4.371  10.778  0.7597  0.8877  0.8933
10007TIP3   OH251511   5.981   2.400   0.137 -0.1139 -1.0404  0.4386
10007TIP3    H151512   5.911   2.367   0.079 -1.6629 -0.3514  1.8409
10007TIP3    H251513   6.062   2.379   0.090 -1.2368 -1.9578 -1.2161
10008TIP3   OH251514   4.574   0.954   1.146 -0.3703 -0.2844 -0.2298
10008TIP3    H151515   4.506   0.940   1.081 -1.3243 -1.5552  0.9990
10008TIP3    H251516   4.633   0.879   1.136  1.1810  1.0078 -1.5712
10009TIP3   OH251517   0.650   2.833  16.528 -0.1576 -0.3829  0.0834
10009TIP3    H151518   0.638   2.740  16.547 -0.7663 -0.4466 -0.5468
10009TIP3    H251519   0.641   2.876  16.612  2.7016 -1.0898  0.8517
10010TIP3   OH251520   0.640   1.423  16.039  0.6060  0.1338  0.1738
10010TIP3    H151521   0.638   1.453  15.948  1.2513  1.9590  0.7180
10010TIP3    H251522   0.591   1.489  16.087 -3.2020 -2.7767  0.7455
10011TIP3   OH251523   3.632   0.710   4.950  0.9584 -0.0731  0.4479
10011TIP3    H151524   3.705   0.665   4.992  0.8892 -1.2367 -0.5999
10011TIP3    H251525   3.644   0.691   4.857 -0.4763  0.0264  0.2313
10012TIP3   OH251526   4.442   5.987  14.298  0.4991  0.4278 -0.6351
10012TIP3    H151527   4.480   5.996  14.210  1.4875 -0.9545 -0.3849
10012TIP3    H251528   4.512   5.947  14.350 -0.8400 -0.9200  0.1925
10013TIP3   OH251529   0.556   0.600   4.463  0.0690  0.0586  0.5954
10013TIP3    H151530   0.562   0.681   4.513 -0.2701  0.9904 -0.8106
10013TIP3    H251531   0.586   0.532   4.523 -1.1497  0.9911  2.3366
10014TIP3   OH251532   4.279   2.091  13.011 -0.1069  0.1448 -0.2227
10014TIP3    H151533   4.245   2.169  12.967  0.2265 -0.3523 -1.4045
10014TIP3    H251534   4.363   2.119  13.048 -1.1328  1.0201  1.6005
10015TIP3   OH251535   2.804   6.372  15.483 -0.1644  0.0301 -0.7269
10015TIP3    H151536   2.754   6.368  15.401 -0.2220 -0.5326 -0.6726
10015TIP3    H251537   2.886   6.415  15.459 -0.7239  1.0818 -0.7847
10016TIP3   OH251538   5.381   3.938  11.313  0.1384 -0.0687  0.4900
10016TIP3    H151539   5.448   3.968  11.374  2.4729  0.2687 -2.0655
10016TIP3    H251540   5.402   3.981  11.231 -1.5124 -2.1963 -1.1624
10017TIP3   OH251541   0.668   4.358  15.807 -0.2380  0.3272 -1.1273
10017TIP3    H151542   0.579   4.367  15.842  0.2044 -0.6538  0.3182
10017TIP3    H251543   0.714   4.434  15.840 -0.4084  0.6040 -1.5116
10018TIP3   OH251544   5.463   3.089  11.408  0.4768  0.1592 -0.1164
10018TIP3    H151545   5.409   3.100  11.487  1.5226  3.0977  0.2924
10018TIP3    H251546   5.403   3.052  11.343 -1.2723  0.7110  1.1110
10019TIP3   OH251547   3.197   6.700  13.322  0.0615  0.2023 -0.3625
10019TIP3    H151548   3.145   6.672  13.247  0.1123  0.4314 -0.4813
10019TIP3    H251549   3.193   6.795  13.320 -1.2578  0.2085  0.8280
10020TIP3   OH251550   6.773   3.994   5.335  0.1759  0.1081  0.0592
10020TIP3    H151551   6.796   3.981   5.244  0.4728  0.7076  0.0441
10020TIP3    H251552   6.853   3.976   5.384 -0.5964 -2.7906  0.4576
10021TIP3   OH251553   1.656   4.598  16.457 -0.2444  0.4749  0.2013
10021TIP3    H151554   1.749   4.587  16.477  0.3260  0.8315 -1.9608
10021TIP3    H251555   1.644   4.554  16.372 -2.4279 -0.9475  1.1568
10022TIP3   OH251556   5.424   6.335  12.211 -0.0757 -0.1559  0.0812
10022TIP3    H151557   5.450   6.426  12.201  1.0558 -0.3491  1.0258
10022TIP3    H251558   5.405   6.325  12.305 -1.0597 -0.6896 -0.1482
10023TIP3   OH251559   3.484   1.465  14.403  0.1044 -0.4280  0.4693
10023TIP3    H151560   3.569   1.428  14.425 -0.8079 -3.0993 -0.1309
10023TIP3    H251561   3.463   1.522  14.477  2.2907  0.1220  0.7171
10024TIP3   OH251562   5.496   1.009   5.024  0.0958 -0.3115 -0.3909
10024TIP3    H151563   5.417   0.974   4.983  0.5096  0.6367 -2.0504
10024TIP3    H251564   5.555   0.934   5.031 -0.7824 -0.9349  0.4835
10025TIP3   OH251565   3.113   0.848  14.122 -0.0762  0.5066 -0.4015
10025TIP3    H151566   3.056   0.862  14.198 -0.2419 -0.5772 -0.3074
10025TIP3    H251567   3.165   0.928  14.116 -1.3526  1.3777 -0.2768
10026TIP3   OH251568   2.918   5.104  14.654  0.0106 -0.4183 -0.2357
10026TIP3    H151569   2.948   5.101  14.745  1.5139 -1.2420 -0.7433
10026TIP3    H251570   2.890   5.014  14.636 -1.1835 -0.0461 -0.3175
10027TIP3   OH251571   2.169   3.292  14.833 -0.6497  0.2128  0.3931
10027TIP3    H151572   2.258   3.321  14.811 -0.7428  0.1006 -0.1348
10027TIP3    H251573   2.182   3.215  14.888 -0.4158  0.0482  0.1129
10028TIP3   OH251574   3.136   1.794  16.288  0.0704 -0.6966 -0.1304
10028TIP3    H151575   3.067   1.858  16.303  0.0960 -0.7162  0.0741
10028TIP3    H251576   3.106   1.714  16.332 -0.7803 -1.3751 -1.8686
10029TIP3   OH251577   3.261   1.280  10.973  0.6821  0.0688  0.2747
10029TIP3    H151578   3.356   1.296  10.975  0.4709  1.5719 -0.5205
10029TIP3    H251579   3.233   1.291  11.064  1.2085  0.1032  0.4357
10030TIP3   OH251580   6.528   0.967  15.730 -0.4266 -0.0862  0.0445
10030TIP3    H151581   6.572   0.990  15.648  2.0403  0.5302  1.4614
10030TIP3    H251582   6.566   0.882  15.755 -0.4880  0.1528  0.9886
10031TIP3   OH251583   3.233   3.350  14.109 -0.8509 -1.2971  0.2328
10031TIP3    H151584   3.171   3.408  14.153  0.8790  0.8880 -0.0731
10031TIP3    H251585   3.230   3.376  14.017  1.0110 -0.6098  0.3294
10032TIP3   OH251586   1.904   4.079  15.372 -0.1219  0.5161  0.0051
10032TIP3    H151587   1.972   4.130  15.417  0.3978  0.8578 -1.1328
10032TIP3    H251588   1.938   3.989  15.373 -0.1997  0.4923  0.4629
10033TIP3   OH251589   3.159   5.459   0.942  0.6530  0.3587 -0.1342
10033TIP3    H151590   3.114   5.379   0.915  0.3377  1.0060 -1.6755
10033TIP3    H251591   3.113   5.529   0.895 -0.4595  1.7561  2.7694
10034TIP3   OH251592   0.357   2.204  10.824 -0.4631 -0.5388 -0.1191
10034TIP3    H151593   0.430   2.266  10.821 -0.7704 -0.2000 -0.7430
10034TIP3    H251594   0.385   2.130  10.771  0.2377 -1.3241  1.2887
10035TIP3   OH251595   0.135   4.555  17.029  0.0492  0.1087  0.3275
10035TIP3    H151596   0.187   4.625  16.990  0.1043  0.2507  0.6535
10035TIP3    H251597   0.197   4.509  17.087 -0.1145  0.1052  0.4999
10036TIP3   OH251598   3.337   5.967   6.194  0.5147 -0.0915 -0.5678
10036TIP3    H151599   3.264   6.028   6.205  1.0313  0.6625 -1.2335
10036TIP3    H251600   3.323   5.901   6.262 -1.0673 -0.2560 -0.9977
10037TIP3   OH251601   5.261   6.331  13.539  0.5096  0.7546  0.7516
10037TIP3    H151602   5.299   6.264  13.482  0.0349  0.3665  0.8809
10037TIP3    H251603   5.288   6.414  13.500 -0.3135  0.5058 -0.3866
10038TIP3   OH251604   2.335   3.702  13.378  0.4636  0.4254 -0.0558
10038TIP3    H151605   2.334   3.678  13.471 -0.0412  0.0997 -0.1457
10038TIP3    H251606   2.408   3.652  13.341  0.8771  0.8094  0.2304
10039TIP3   OH251607   5.306   0.817  14.116  0.3410  0.0198  0.6093
10039TIP3    H151608   5.365   0.838  14.188  1.8548  1.0349 -0.8562
10039TIP3    H251609   5.270   0.901  14.089  0.8303 -0.1450 -0.6402
10040TIP3   OH251610   0.117   4.917   2.602 -0.2062 -0.2622 -0.1055
10040TIP3    H151611   0.032   4.873   2.613  0.7491 -1.9902  1.0203
10040TIP3    H251612   0.095   5.006   2.576 -2.2928 -1.3199 -2.4305
10041TIP3   OH251613   6.538   0.423  11.426 -0.3096 -0.9009 -0.3190
10041TIP3    H151614   6.512   0.459  11.511 -1.5960 -0.7899 -0.7374
10041TIP3    H251615   6.622   0.381  11.442  0.1427  0.3326  0.6971
10042TIP3   OH251616   4.793   2.435  14.360  0.2614 -0.7128  0.0169
10042TIP3    H151617   4.734   2.486  14.417  0.1121 -0.3736 -0.4359
10042TIP3    H251618   4.848   2.387  14.421  0.3472 -0.0716  0.4645
10043TIP3   OH251619   6.691   2.769  14.076 -0.0696 -0.0626 -0.4487
10043TIP3    H151620   6.664   2.760  13.985  0.0824 -0.8579 -0.4211
10043TIP3    H251621   6.660   2.856  14.102 -3.0369 -1.0611 -0.2742
10044TIP3   OH251622   3.270   1.720   5.290 -0.0339  0.3155  0.2152
10044TIP3    H151623   3.341   1.666   5.325  0.4365  0.2338 -0.8262
10044TIP3    H251624   3.289   1.727   5.196 -2.9575 -2.1298 -0.7288
10045TIP3   OH251625   0.317   0.380  15.008 -0.5890 -0.5248 -0.4957
10045TIP3    H151626   0.286   0.462  15.046  0.1715 -0.0656 -0.8458
10045TIP3    H251627   0.278   0.379  14.920 -0.4455 -0.4432 -0.5613
10046TIP3   OH251628   2.275   2.416  15.745 -0.2920 -0.5954 -0.3638
10046TIP3    H151629   2.249   2.381  15.830  0.2985 -1.4030 -0.5024
10046TIP3    H251630   2.351   2.472  15.764 -2.0624  1.8240  0.0500
10047TIP3   OH251631   1.738   0.990  15.111 -0.1288  0.2207 -0.2057
10047TIP3    H151632   1.778   0.932  15.047 -0.6154  1.0088 -1.2489
10047TIP3    H251633   1.680   0.934  15.163 -0.0050 -0.3573 -0.6956
10048TIP3   OH251634   0.140   3.652  15.774  0.2966  0.2987  0.3571
10048TIP3    H151635   0.046   3.640  15.787  0.4089 -1.2043 -0.0761
10048TIP3    H251636   0.157   3.617  15.687  1.1516  1.2870  0.1031
10049TIP3   OH251637   1.543   2.155  12.214 -0.0681  0.2996 -0.0236
10049TIP3    H151638   1.482   2.206  12.161 -0.0371 -0.7021 -1.0565
10049TIP3    H251639   1.628   2.169  12.173 -0.0272 -0.4164 -0.1928
10050TIP3   OH251640   1.420   0.152   0.340 -0.3211  0.3674  0.3494
10050TIP3    H151641   1.396   0.186   0.254  2.4100  1.1801 -0.1898
10050TIP3    H251642   1.512   0.178   0.352 -0.5476  0.1462  3.4592
10051TIP3   OH251643   1.979   6.377   0.564  0.0147 -0.4745  0.2160
10051TIP3    H151644   1.907   6.313   0.569 -0.4431 -0.1648 -1.7632
10051TIP3    H251645   1.937   6.461   0.584 -0.3165 -0.2282 -1.3882
10052TIP3   OH251646   2.444   0.785  14.224 -0.1447 -0.3251  0.0667
10052TIP3    H151647   2.401   0.717  14.172  0.4421  0.9756 -2.2706
10052TIP3    H251648   2.519   0.741  14.265  0.0636 -1.1560 -1.1675
10053TIP3   OH251649   4.005   5.889  10.193 -0.0033 -0.1233  0.3218
10053TIP3    H151650   4.087   5.930  10.164 -0.2629 -0.6673 -1.2728
10053TIP3    H251651   3.982   5.936  10.273  2.2986 -0.5139  1.3007
10054TIP3   OH251652   4.208   3.039  14.075 -0.0685  0.1525  0.2210
10054TIP3    H151653   4.288   3.066  14.120 -1.1969  1.3852  1.5982
10054TIP3    H251654   4.173   3.120  14.038 -0.5806 -0.4041 -0.5450
10055TIP3   OH251655   6.475   4.997   1.808  0.5330 -0.3067 -0.1905
10055TIP3    H151656   6.488   5.006   1.902 -0.1333  1.4841 -0.2179
10055TIP3    H251657   6.534   4.926   1.782  1.3556 -0.2702  1.4367
10056TIP3   OH251658   1.783   2.344  12.339  0.6257  0.0498  0.0645
10056TIP3    H151659   1.702   2.385  12.308  0.3462 -0.2144  0.4411
10056TIP3    H251660   1.846   2.358  12.268  0.6704  1.5121  0.3554
10057TIP3   OH251661   1.664   3.998  16.481  0.8371  0.5133 -0.2144
10057TIP3    H151662   1.746   3.981  16.526  1.1065  0.6163 -0.6592
10057TIP3    H251663   1.681   4.076  16.428 -0.1629  1.8151  1.2545
10058TIP3   OH251664   6.278   4.785   4.638  0.1073  0.0570 -0.3774
10058TIP3    H151665   6.273   4.690   4.639 -0.2563  0.0367 -1.8701
10058TIP3    H251666   6.279   4.810   4.730 -0.1876 -1.3678  0.0347
10059TIP3   OH251667   0.228   6.299   0.656 -0.1845  0.0001 -0.0404
10059TIP3    H151668   0.210   6.260   0.742 -0.0364 -1.0109 -0.4467
10059TIP3    H251669   0.233   6.393   0.672 -1.1500 -0.0950  0.8843
10060TIP3   OH251670   4.799   4.750   6.158 -0.2437 -0.7649  0.3994
10060TIP3    H151671   4.727   4.696   6.189 -1.8188  0.7789 -0.4080
10060TIP3    H251672   4.854   4.691   6.107 -1.1322 -1.8923  0.7104
10061TIP3   OH251673   4.172   2.717   1.846 -0.0030  0.2702  0.1424
10061TIP3    H151674   4.115   2.643   1.828  1.7295 -0.8763 -0.9557
10061TIP3    H251675   4.140   2.787   1.788  0.3176 -0.6965 -1.2598
10062TIP3   OH251676   4.485   2.749   4.006 -0.3674 -0.6522  0.4850
10062TIP3    H151677   4.570   2.746   4.050 -0.3190  0.8641  0.5429
10062TIP3    H251678   4.454   2.659   4.009  1.7888 -1.5143 -0.6384
10063TIP3   OH251679   5.332   3.980   2.220  0.2805 -0.1877 -0.1047
10063TIP3    H151680   5.411   3.964   2.168  0.9244  1.7714  0.1822
10063TIP3    H251681   5.296   4.061   2.183  1.1577  1.7003  2.8934
10064TIP3   OH251682   2.493   3.405  13.422  0.5843 -0.2121 -0.1849
10064TIP3    H151683   2.520   3.488  13.382 -0.8320 -0.0473 -0.8199
10064TIP3    H251684   2.505   3.340  13.353  0.4255 -0.3204 -0.1097
10065TIP3   OH251685   1.510   2.489   1.941  0.2249 -0.5298 -0.2347
10065TIP3    H151686   1.570   2.553   1.978 -0.5856  0.9030 -1.2890
10065TIP3    H251687   1.494   2.519   1.852 -0.1108 -2.2786 -0.8168
10066TIP3   OH251688   1.877   5.801   2.444 -0.3142  0.3752  0.1091
10066TIP3    H151689   1.878   5.718   2.491  0.4165  0.9950  1.2313
10066TIP3    H251690   1.790   5.837   2.461 -0.5362 -0.0368 -0.1542
10067TIP3   OH251691   5.925   1.600  16.416 -0.5473 -0.1264 -0.2783
10067TIP3    H151692   5.946   1.547  16.339  0.1010  0.4449 -0.5067
10067TIP3    H251693   5.929   1.538  16.489 -0.0039 -0.4410 -0.5629
10068TIP3   OH251694   5.151   4.109  12.027 -0.1112  0.4192  0.2465
10068TIP3    H151695   5.160   4.149  12.114 -0.9707 -0.1036  0.5810
10068TIP3    H251696   5.150   4.015  12.044  0.4377  0.2818 -0.4090
10069TIP3   OH251697   6.365   0.606  13.362  0.7796 -0.3251 -0.0904
10069TIP3    H151698   6.300   0.546  13.399  0.6894 -1.0440 -1.3335
10069TIP3    H251699   6.364   0.682  13.420  0.7548 -1.4426  1.4276
10070TIP3   OH251700   4.721   2.022   3.314  0.4306  0.1466  0.0506
10070TIP3    H151701   4.808   1.988   3.335 -0.0549 -0.7512  0.6725
10070TIP3    H251702   4.686   2.054   3.398  0.2510  0.7406 -0.2403
10071TIP3   OH251703   5.370   1.517   5.545  0.1898  0.5303 -0.2504
10071TIP3    H151704   5.287   1.495   5.586 -1.3321  0.9576 -2.9188
10071TIP3    H251705   5.371   1.466   5.464  2.3563  0.8813 -0.5046
10072TIP3   OH251706   1.662   4.257  14.955  0.0566  0.0403  0.5408
10072TIP3    H151707   1.661   4.212  15.040 -1.8245 -0.1695  0.4567
10072TIP3    H251708   1.590   4.216  14.906  0.2944  1.0404 -0.6806
10073TIP3   OH251709   1.599   5.582   6.354  0.3703  0.5096  0.4496
10073TIP3    H151710   1.626   5.495   6.384  0.5676 -0.0240 -1.1981
10073TIP3    H251711   1.525   5.605   6.410 -0.3245 -1.1520  0.2663
10074TIP3   OH251712   6.045   3.998   2.690  0.6218  0.0352  0.0774
10074TIP3    H151713   6.007   3.914   2.716  0.5152  0.0626  0.0123
10074TIP3    H251714   6.106   4.020   2.761  0.6170 -0.0753  0.1162
10075TIP3   OH251715   5.187   5.757  16.335  0.3202 -0.6959 -0.0775
10075TIP3    H151716   5.098   5.788  16.350  0.8741  0.5626  0.7746
10075TIP3    H251717   5.187   5.667  16.369 -0.2492 -0.2006  1.2918
10076TIP3   OH251718   4.154   0.587  13.007 -0.0742 -0.4524  0.2973
10076TIP3    H151719   4.233   0.535  13.022  0.5751  0.5386  0.4090
10076TIP3    H251720   4.127   0.615  13.094 -0.1438 -0.2030  0.1951
10077TIP3   OH251721   3.701   3.331  17.134  0.0502  0.1174  0.1769
10077TIP3    H151722   3.639   3.324  17.062 -1.0917  0.7950  1.0734
10077TIP3    H251723   3.781   3.363  17.093  0.3116 -2.0844 -1.2359
10078TIP3   OH251724   1.212   1.549   0.937 -0.0671  0.0418 -0.2151
10078TIP3    H151725   1.301   1.577   0.917  0.7139 -0.6963  1.9602
10078TIP3    H251726   1.197   1.576   1.027 -1.2982 -1.6005  0.1288
10079TIP3   OH251727   0.186   0.552  15.444  0.5779 -0.1474  0.0641
10079TIP3    H151728   0.222   0.632  15.481 -1.0955  1.1143 -0.9004
10079TIP3    H251729   0.092   0.558  15.460  0.3883 -1.8532 -0.1840
10080TIP3   OH251730   1.526   1.275   2.614  0.3225  0.4295 -0.1815
10080TIP3    H151731   1.498   1.246   2.527 -0.7860  0.2276  0.2254
10080TIP3    H251732   1.523   1.370   2.609  0.6293  0.4234 -0.4837
10081TIP3   OH251733   1.011   0.612   0.116 -0.5981 -0.4570 -0.1161
10081TIP3    H151734   0.982   0.561   0.040 -0.6034  0.0133 -0.4330
10081TIP3    H251735   1.103   0.632   0.098 -1.3132  2.0684 -1.3814
10082TIP3   OH251736   6.759   1.287  15.326  0.4133 -0.2517 -0.0704
10082TIP3    H151737   6.822   1.272  15.255 -0.9573  0.2559 -1.4204
10082TIP3    H251738   6.674   1.271  15.287 -0.3927  0.1763  1.4403
10083TIP3   OH251739   1.140   1.194  10.519 -0.3979 -0.1704 -0.1492
10083TIP3    H151740   1.083   1.248  10.572  0.9950  0.7792  0.4475
10083TIP3    H251741   1.138   1.108  10.561 -2.8392 -0.7463 -1.2664
10084TIP3   OH251742   2.420   1.218  15.789 -0.2499  1.3455 -0.0069
10084TIP3    H151743   2.509   1.241  15.762 -0.7737  1.7985 -1.4370
10084TIP3    H251744   2.376   1.302  15.799 -0.6852  1.1043  0.1140
10085TIP3   OH251745   5.873   6.235  10.987  0.3363  0.3419 -0.1179
10085TIP3    H151746   5.898   6.173  11.055  1.6228  1.2617  0.2793
10085TIP3    H251747   5.839   6.180  10.916  1.4709 -0.8304  0.2017
10086TIP3   OH251748   0.363   4.727  16.627  0.1379 -0.5181 -0.1392
10086TIP3    H151749   0.291   4.779  16.592  1.3641  0.3681 -1.4669
10086TIP3    H251750   0.404   4.688  16.550 -0.8904 -3.7987  0.8077
10087TIP3   OH251751   5.823   3.523   1.495 -0.8381  0.0524 -0.7869
10087TIP3    H151752   5.803   3.599   1.440  1.3576  0.6086 -0.9009
10087TIP3    H251753   5.787   3.546   1.581  0.7711  1.7846 -0.5116
10088TIP3   OH251754   3.844   1.357  12.602 -0.0509 -0.1041 -0.0409
10088TIP3    H151755   3.847   1.394  12.514 -0.7435  2.3269  0.8744
10088TIP3    H251756   3.751   1.344  12.620 -0.1555  2.0293  1.2678
10089TIP3   OH251757   2.813   1.050  14.641  0.5908 -0.0091  0.0275
10089TIP3    H151758   2.865   0.973  14.667 -0.9158 -1.7532 -1.8168
10089TIP3    H251759   2.722   1.023  14.654  0.0243  1.4462 -0.7434
10090TIP3   OH251760   4.141   1.552  15.760 -0.4395 -0.5605  0.3248
10090TIP3    H151761   4.153   1.606  15.839 -1.1243 -0.4788  0.3773
10090TIP3    H251762   4.051   1.521  15.766 -0.5166 -0.5054 -0.4616
10091TIP3   OH251763   5.804   6.238  12.706  0.0265 -0.5628  0.2103
10091TIP3    H151764   5.872   6.171  12.701  1.4942  0.9693 -2.2853
10091TIP3    H251765   5.758   6.232  12.622 -2.0849 -0.6251  1.2923
10092TIP3   OH251766   4.125   1.820  16.258  0.1805 -0.6718  0.3590
10092TIP3    H151767   4.204   1.872  16.270 -0.4580  0.8347 -1.3865
10092TIP3    H251768   4.079   1.826  16.342 -0.3566  2.5886 -0.0206
10093TIP3   OH251769   0.417   2.255  11.529 -0.6064 -0.3216 -0.4363
10093TIP3    H151770   0.356   2.240  11.458 -0.5798  0.8904 -0.7409
10093TIP3    H251771   0.383   2.332  11.574 -0.2359 -0.6514  0.4322
10094TIP3   OH251772   1.804   3.537   3.283 -0.2596 -0.0563  0.1458
10094TIP3    H151773   1.726   3.572   3.326 -0.4831 -1.6773  1.1183
10094TIP3    H251774   1.808   3.585   3.200 -1.4761  1.0554  0.6900
10095TIP3   OH251775   1.693   4.767   4.326 -0.0254  0.2970 -0.2703
10095TIP3    H151776   1.681   4.673   4.338 -0.8078  0.1690 -1.8297
10095TIP3    H251777   1.781   4.776   4.289  1.0925  0.4395  2.2090
10096TIP3   OH251778   4.552   4.479   2.004 -0.2901  0.0388  0.1680
10096TIP3    H151779   4.540   4.533   2.082  1.5954  0.3746  0.2838
10096TIP3    H251780   4.464   4.453   1.978 -1.1540  2.1140  0.8591
10097TIP3   OH251781   4.738   3.194   3.115  0.3603  0.0906 -0.6215
10097TIP3    H151782   4.833   3.181   3.121  0.0677 -2.2036  4.3647
10097TIP3    H251783   4.709   3.124   3.057  1.5282 -1.8771  1.0221
10098TIP3   OH251784   1.327   5.939  12.342  0.1920  0.8411  0.2782
10098TIP3    H151785   1.338   5.846  12.324  0.9527  1.0868 -0.6966
10098TIP3    H251786   1.362   5.982  12.263  1.0106  1.9652  1.2196
10099TIP3   OH251787   4.167   3.268  11.424  0.3028  0.5228 -0.3454
10099TIP3    H151788   4.141   3.295  11.336 -1.3684  0.4716  0.0958
10099TIP3    H251789   4.092   3.290  11.479  1.5187  1.0379  1.1741
10100TIP3   OH251790   3.652   0.111  11.600  0.0857  0.0426  0.5336
10100TIP3    H151791   3.585   0.049  11.629 -0.2994  0.7888  1.3199
10100TIP3    H251792   3.621   0.142  11.515  0.6132 -1.2943 -0.1727
10101TIP3   OH251793   2.457   6.243  14.971 -0.1469  0.2149  0.2049
10101TIP3    H151794   2.383   6.195  14.935 -0.5469 -0.0375  1.3283
10101TIP3    H251795   2.466   6.210  15.061  1.3067  0.2574  0.0986
10102TIP3   OH251796   5.373   3.877  16.414  0.0424  0.5184 -0.1273
10102TIP3    H151797   5.304   3.810  16.416  0.4896  0.0691  0.6805
10102TIP3    H251798   5.438   3.842  16.353  0.3351  0.1485  0.3899
10103TIP3   OH251799   6.580   5.711  15.254  0.4426  0.7541  0.3160
10103TIP3    H151800   6.640   5.658  15.202  0.2558  0.0754  0.7861
10103TIP3    H251801   6.567   5.661  15.335 -0.9745  0.7541  0.1187
10104TIP3   OH251802   5.955   5.761  15.918 -0.2605 -0.3477 -0.5154
10104TIP3    H151803   5.875   5.780  15.869 -0.6485  1.3021  0.6429
10104TIP3    H251804   6.023   5.810  15.873  0.0563 -1.5051 -1.3214
10105TIP3   OH251805   5.982   5.075  15.837 -0.2328  0.1124 -0.1747
10105TIP3    H151806   6.001   5.020  15.913 -0.2154 -1.8152 -1.5080
10105TIP3    H251807   5.896   5.047  15.807 -1.1206  2.1941  0.1937
10106TIP3   OH251808   5.502   2.706  10.634  0.3066 -0.2800 -0.2740
10106TIP3    H151809   5.471   2.790  10.668 -0.4789 -0.8257  0.3898
10106TIP3    H251810   5.597   2.708  10.650  0.1124 -0.0523  0.9502
10107TIP3   OH251811   2.143   4.846  15.467  0.0959  0.0387  0.2560
10107TIP3    H151812   2.050   4.841  15.444  0.3509 -0.5788 -0.7059
10107TIP3    H251813   2.160   4.938  15.482  0.0093  0.6326 -2.6340
10108TIP3   OH251814   1.681   4.387  12.933 -1.0072  0.3483  0.2535
10108TIP3    H151815   1.748   4.454  12.919 -0.7297  0.1968  0.8274
10108TIP3    H251816   1.717   4.330  13.001 -1.9517  0.6110  1.0126
10109TIP3   OH251817   3.131   6.167  12.364 -0.4353 -0.9526  0.4702
10109TIP3    H151818   3.038   6.150  12.370 -0.7871 -0.5416 -2.3102
10109TIP3    H251819   3.138   6.262  12.352  0.3275 -1.0075  0.3770
10110TIP3   OH251820   3.306   1.461   5.735 -0.3649 -0.3374 -0.0654
10110TIP3    H151821   3.264   1.441   5.651 -1.9730  0.9160  0.3871
10110TIP3    H251822   3.299   1.380   5.785  1.3223 -1.3584 -1.3693
10111TIP3   OH251823   2.969   3.254   0.595 -0.3853 -0.5421 -0.1659
10111TIP3    H151824   2.899   3.314   0.568  0.7181  0.8009 -0.1602
10111TIP3    H251825   3.046   3.310   0.603  0.8320 -2.0954 -0.7421
10112TIP3   OH251826   6.458   0.431  10.402 -0.0838 -0.1180 -0.7223
10112TIP3    H151827   6.502   0.351  10.429  0.5063 -0.4471 -2.4970
10112TIP3    H251828   6.518   0.501  10.425 -0.7117 -0.1202  1.0683
10113TIP3   OH251829   0.791   6.673   3.888  0.2620  0.6158 -0.1417
10113TIP3    H151830   0.813   6.726   3.812  2.9273 -0.2338 -0.0963
10113TIP3    H251831   0.763   6.589   3.852 -1.0895  1.0588 -0.1741
10114TIP3   OH251832   5.188   2.901   0.274 -0.7335 -0.1446 -0.4291
10114TIP3    H151833   5.273   2.864   0.299 -0.2335  0.9405 -0.4606
10114TIP3    H251834   5.125   2.832   0.296  0.0269 -0.5071  0.7508
10115TIP3   OH251835   1.062   6.000  16.396  0.4269  0.2632  0.1431
10115TIP3    H151836   1.154   6.007  16.420  0.1637  2.6680  0.6857
10115TIP3    H251837   1.018   5.970  16.476  0.6698 -0.6127 -0.0368
10116TIP3   OH251838   6.704   3.522   2.668  0.2843 -0.0033 -0.1136
10116TIP3    H151839   6.720   3.431   2.695  0.3640  0.0861  0.1454
10116TIP3    H251840   6.632   3.551   2.723  0.4735  0.1936  0.0343
10117TIP3   OH251841   2.442   2.581  13.736  0.2646  0.1252  0.5303
10117TIP3    H151842   2.470   2.607  13.823 -0.0115 -1.2356  1.0447
10117TIP3    H251843   2.349   2.562  13.745  0.2902 -0.2747 -0.0032
10118TIP3   OH251844   1.269   2.816  13.040 -0.1129 -0.1202  0.2390
10118TIP3    H151845   1.204   2.881  13.014  0.8214  0.4341 -0.7808
10118TIP3    H251846   1.353   2.855  13.016  0.4528 -1.8602 -0.8216
10119TIP3   OH251847   2.037   0.876   5.399 -0.0203 -0.2659 -0.1930
10119TIP3    H151848   2.133   0.874   5.399  0.0339 -1.4848  1.9230
10119TIP3    H251849   2.012   0.844   5.313  1.4840 -0.8216 -0.4555
10120TIP3   OH251850   0.717   2.288  16.949  0.3617 -0.1130 -0.5260
10120TIP3    H151851   0.665   2.219  16.990 -1.3963  1.2187 -0.4194
10120TIP3    H251852   0.760   2.332  17.022 -1.3484  1.1151 -0.1965
10121TIP3   OH251853   0.589   4.100   0.082 -0.0151  0.4909 -0.1551
10121TIP3    H151854   0.564   4.055   0.001 -0.7846 -0.8585  0.8066
10121TIP3    H251855   0.685   4.102   0.079  0.0193 -0.9596 -0.3542
10122TIP3   OH251856   6.708   5.364   2.196 -0.0870  0.2058  0.2411
10122TIP3    H151857   6.688   5.381   2.288 -0.3137  2.7070 -0.1989
10122TIP3    H251858   6.800   5.337   2.196  0.6615  2.4741  1.0631
10123TIP3   OH251859   5.249   4.717  13.150  0.1650  0.1378 -0.4533
10123TIP3    H151860   5.179   4.754  13.204  1.1996  1.7736 -0.1672
10123TIP3    H251861   5.261   4.629  13.184  0.8052  1.1304  2.0742
10124TIP3   OH251862   6.075   4.031  16.260 -0.9140 -0.1507  0.5327
10124TIP3    H151863   6.134   4.105  16.265 -1.5668  0.4258 -0.0727
10124TIP3    H251864   6.081   4.001  16.169  2.2680 -3.3391  1.5510
10125TIP3   OH251865   1.152   4.532  11.687 -0.3270  0.1117 -0.2852
10125TIP3    H151866   1.190   4.520  11.774 -0.5685 -0.8638 -0.3108
10125TIP3    H251867   1.074   4.586  11.703 -1.0469 -1.0507  0.2803
10126TIP3   OH251868   1.721   5.261   0.765 -0.2565 -0.4106 -0.1769
10126TIP3    H151869   1.721   5.356   0.765  0.6977 -0.3929 -1.0337
10126TIP3    H251870   1.751   5.237   0.678  1.1928 -1.4718  0.5815
10127TIP3   OH251871   1.730   5.163  15.772 -0.1313  0.0111 -0.0062
10127TIP3    H151872   1.646   5.207  15.783  0.1652  0.7114 -0.4522
10127TIP3    H251873   1.788   5.203  15.837 -0.3070 -0.9379  0.7579
10128TIP3   OH251874   4.808   0.844  13.402 -0.1676  0.1881  0.5230
10128TIP3    H151875   4.877   0.777  13.400  0.2034  0.5809  0.0152
10128TIP3    H251876   4.842   0.912  13.461 -0.5561 -0.0735  1.0594
10129TIP3   OH251877   4.251   4.932   1.189  0.5476 -0.1729 -0.2945
10129TIP3    H151878   4.172   4.931   1.136  1.1208  0.7839 -1.2005
10129TIP3    H251879   4.224   4.970   1.272  0.1572  0.6130 -0.7763
10130TIP3   OH251880   2.875   5.006  11.971 -0.3144 -0.3774 -0.8508
10130TIP3    H151881   2.828   5.077  11.928  0.3437  0.5970  0.0190
10130TIP3    H251882   2.967   5.028  11.962 -0.1337  0.8231  2.5036
10131TIP3   OH251883   1.999   1.877  12.505  0.4789 -0.3020  0.1407
10131TIP3    H151884   1.968   1.874  12.414 -0.8240 -0.9507  0.5839
10131TIP3    H251885   1.989   1.788  12.537  1.3397 -0.1727  0.8002
10132TIP3   OH251886   5.121   2.763   6.173 -0.7147 -0.0159  0.7243
10132TIP3    H151887   5.144   2.746   6.265 -1.0906 -1.8773  0.5140
10132TIP3    H251888   5.193   2.723   6.123 -1.6260 -1.0289  0.1888
10133TIP3   OH251889   4.702   3.335  13.735 -0.0132  0.3326  0.0115
10133TIP3    H151890   4.712   3.292  13.649  0.4295 -0.6756  0.5405
10133TIP3    H251891   4.792   3.356  13.761 -0.1426  0.5864  0.2510
10134TIP3   OH251892   1.168   3.746   3.230  0.1787  0.3081  0.3410
10134TIP3    H151893   1.112   3.678   3.193  0.3823  0.1656  0.2947
10134TIP3    H251894   1.107   3.817   3.252  0.3036  1.5018 -2.6630
10135TIP3   OH251895   4.420   6.015  13.503 -1.0101 -0.2122  0.2311
10135TIP3    H151896   4.463   5.955  13.443 -2.0126 -1.6150  0.8459
10135TIP3    H251897   4.453   6.102  13.480  0.1333 -0.9505 -0.9861
10136TIP3   OH251898   4.905   0.932  13.137  0.1901 -0.4414 -0.1236
10136TIP3    H151899   4.982   0.948  13.193  0.7136 -2.1630 -0.2995
10136TIP3    H251900   4.855   0.865  13.184 -1.9105  1.5211  0.6071
10137TIP3   OH251901   0.104   1.109   0.222 -0.6806  0.3429  0.5305
10137TIP3    H151902   0.131   1.135   0.134 -1.8452  1.2550  0.4191
10137TIP3    H251903   0.186   1.108   0.273  0.3641 -2.3397 -1.0066
10138TIP3   OH251904   6.302   2.306  15.342  0.0165 -0.3263  0.4337
10138TIP3    H151905   6.219   2.296  15.295 -0.1727 -0.6750  0.8247
10138TIP3    H251906   6.304   2.230  15.401  1.1143 -0.9022 -0.3207
10139TIP3   OH251907   1.628   3.206  11.708 -0.7158 -0.8253 -0.0659
10139TIP3    H151908   1.536   3.192  11.687 -0.3174 -2.3602 -1.0188
10139TIP3    H251909   1.651   3.134  11.766  0.0193 -0.7719 -0.2817
10140TIP3   OH251910   1.323   6.537   4.233  0.2274 -0.0012  0.1598
10140TIP3    H151911   1.379   6.459   4.226 -0.8696 -0.7679 -0.3369
10140TIP3    H251912   1.287   6.548   4.145  1.7074  2.1200 -0.2359
10141TIP3   OH251913   6.350   1.765  11.369  0.2909  0.1417  0.0330
10141TIP3    H151914   6.384   1.677  11.382 -0.4858 -0.3489 -1.0853
10141TIP3    H251915   6.354   1.778  11.274  0.3795  1.3053  0.1836
10142TIP3   OH251916   1.943   4.933  16.953 -0.6661  0.6341 -0.2397
10142TIP3    H151917   1.950   4.850  17.000  0.3558  1.6047  1.4380
10142TIP3    H251918   1.967   4.912  16.863 -0.0369 -0.8176  0.2363
10143TIP3   OH251919   4.338   1.732  13.526  0.7077 -0.0312  0.2672
10143TIP3    H151920   4.390   1.678  13.466  3.0109  1.5812  0.6933
10143TIP3    H251921   4.319   1.812  13.477  0.0873  0.0972  0.7098
10144TIP3   OH251922   0.173   4.661  11.657 -0.2097 -0.1442 -0.2914
10144TIP3    H151923   0.217   4.745  11.645  0.6103 -0.4400  0.5080
10144TIP3    H251924   0.133   4.642  11.572  0.2698  0.6667 -0.7078
10145TIP3   OH251925   5.669   4.031  14.186  0.6862 -0.7711 -0.0957
10145TIP3    H151926   5.663   3.936  14.174 -1.9162 -0.5870 -0.8554
10145TIP3    H251927   5.681   4.066  14.097  0.3810 -0.3568  0.0187
10146TIP3   OH251928   6.654   3.644  16.718 -0.3474 -0.0361  0.1908
10146TIP3    H151929   6.721   3.693  16.670 -1.8827  3.3735  1.2116
10146TIP3    H251930   6.671   3.553  16.695  2.8133  0.8700 -1.8387
10147TIP3   OH251931   1.992   5.034   4.090  0.1100 -0.3395  0.0639
10147TIP3    H151932   2.021   5.064   4.175  1.5152 -0.8313 -0.2113
10147TIP3    H251933   1.898   5.019   4.100 -0.2195  1.8512  0.8382
10148TIP3   OH251934   4.216   4.411   4.114  0.3262 -0.0076 -0.3289
10148TIP3    H151935   4.132   4.454   4.099  0.5915  0.4869 -0.4285
10148TIP3    H251936   4.268   4.432   4.037  0.4827 -0.4577 -0.3481
10149TIP3   OH251937   1.622   0.777  13.360 -0.2455  0.9328 -0.2127
10149TIP3    H151938   1.597   0.770  13.268  2.4896 -2.8786 -0.8865
10149TIP3    H251939   1.539   0.770  13.408 -1.4578 -0.0120 -2.3376
10150TIP3   OH251940   2.901   3.816   0.595 -0.1260  0.2305 -0.3390
10150TIP3    H151941   2.865   3.903   0.579 -0.6647  0.3475  1.2945
10150TIP3    H251942   2.964   3.829   0.666 -1.3171 -0.9088  1.0007
10151TIP3   OH251943   1.725   1.561  12.323  0.2389  0.3214 -0.6258
10151TIP3    H151944   1.770   1.477  12.324 -0.4927 -0.1110  1.5413
10151TIP3    H251945   1.641   1.544  12.365 -0.1538  2.0234 -0.6469
10152TIP3   OH251946   4.244   3.580   4.430 -0.9714 -0.6173 -0.1299
10152TIP3    H151947   4.258   3.609   4.520  2.5715 -0.1385 -0.7070
10152TIP3    H251948   4.220   3.659   4.382  0.4083 -0.1947 -0.1626
10153TIP3   OH251949   4.360   3.156  11.570 -0.4824  0.1789  0.0110
10153TIP3    H151950   4.305   3.198  11.504 -1.7122  0.2400  1.0402
10153TIP3    H251951   4.372   3.222  11.638 -1.6170 -0.7489  1.1752
10154TIP3   OH251952   0.381   0.455   2.338 -0.0021 -0.1628  0.5714
10154TIP3    H151953   0.424   0.374   2.311 -1.3301 -0.7128 -0.0146
10154TIP3    H251954   0.445   0.523   2.323  1.2960 -1.1439  1.4459
10155TIP3   OH251955   5.980   5.848  10.827 -0.2552  0.1213 -0.0044
10155TIP3    H151956   5.963   5.934  10.789  0.0470  1.2525  2.2614
10155TIP3    H251957   5.895   5.804  10.825 -0.5889  0.7625 -0.4394
10156TIP3   OH251958   5.338   6.637  12.745 -0.2236 -0.1623 -0.2077
10156TIP3    H151959   5.405   6.597  12.690  0.7655  0.7553  0.3174
10156TIP3    H251960   5.386   6.690  12.809 -1.2791 -1.8168  2.0956
10157TIP3   OH251961   6.115   1.602  11.003 -0.3489  0.0646 -0.1732
10157TIP3    H151962   6.110   1.683  10.953  1.7343  1.0755  1.1457
10157TIP3    H251963   6.074   1.536  10.946 -0.3644  1.6489 -2.0686
10158TIP3   OH251964   5.958   4.803   4.596  0.3369 -0.0601  0.0611
10158TIP3    H151965   5.989   4.712   4.593 -0.0005 -0.1672 -0.2551
10158TIP3    H251966   6.027   4.852   4.551  0.8494 -0.0594  0.8317
10159TIP3   OH251967   0.941   5.514  11.887  0.3277 -0.5754 -0.0891
10159TIP3    H151968   1.019   5.477  11.930 -0.2904 -0.7082  0.9556
10159TIP3    H251969   0.890   5.438  11.861  0.5274 -0.4864 -0.7587
10160TIP3   OH251970   4.262   6.645  14.670 -0.0023  0.3461  0.2943
10160TIP3    H151971   4.234   6.686  14.752  1.9450  0.9059  0.7428
10160TIP3    H251972   4.315   6.712  14.626  1.5609 -0.9684  0.0817
10161TIP3   OH251973   2.504   5.941  14.691 -0.5329  0.2855  0.0616
10161TIP3    H151974   2.578   6.002  14.700  1.4868 -2.0811  0.6246
10161TIP3    H251975   2.463   5.966  14.608  1.2378  1.3611 -0.5605
10162TIP3   OH251976   5.840   2.550  11.928  0.2814 -0.3054  0.1724
10162TIP3    H151977   5.857   2.462  11.892  0.5413  0.2168 -1.0227
10162TIP3    H251978   5.770   2.536  11.992  0.3074 -1.3846 -0.0120
10163TIP3   OH251979   1.302   4.319   5.342  0.5410 -0.1907  0.4133
10163TIP3    H151980   1.372   4.292   5.402 -0.5238 -1.0869  1.2886
10163TIP3    H251981   1.272   4.403   5.377  0.8508 -0.0313  0.3062
10164TIP3   OH251982   0.507   4.951  16.123  0.1804 -0.5616  0.9275
10164TIP3    H151983   0.436   4.890  16.101 -0.2653  0.0507  0.6322
10164TIP3    H251984   0.463   5.034  16.139  0.8187 -0.2219  0.9506
10165TIP3   OH251985   3.834   4.086   4.500  0.2570 -0.6270  0.0374
10165TIP3    H151986   3.854   4.000   4.538 -0.8827  0.3289  3.0510
10165TIP3    H251987   3.876   4.149   4.558 -1.3652  0.9539 -0.4055
10166TIP3   OH251988   2.870   0.206  15.746 -0.4516  1.0034 -0.3403
10166TIP3    H151989   2.795   0.252  15.707 -0.7819  3.6387  2.9526
10166TIP3    H251990   2.939   0.272  15.750  0.8092 -0.2896  0.0742
10167TIP3   OH251991   5.561   5.125  16.940 -0.7968 -0.0318 -0.5604
10167TIP3    H151992   5.638   5.069  16.946 -0.6203  0.3218  1.6148
10167TIP3    H251993   5.572   5.188  17.012 -2.1281  1.3090 -1.4626
10168TIP3   OH251994   6.248   5.215  15.859  0.2711 -0.1388 -0.2781
10168TIP3    H151995   6.259   5.134  15.810  1.3188 -0.1809  0.0045
10168TIP3    H251996   6.168   5.253  15.825 -2.2682 -2.9611  1.9368
10169TIP3   OH251997   5.717   1.128   0.727  0.1519 -0.0131  0.0855
10169TIP3    H151998   5.655   1.200   0.737  0.0771 -0.1637  0.6989
10169TIP3    H251999   5.765   1.125   0.809  1.0672  0.1796 -0.4239
10170TIP3   OH252000   5.327   4.099   5.838  0.5875  0.8850 -0.2623
10170TIP3    H152001   5.359   4.017   5.875  2.5190  1.7937  0.2339
10170TIP3    H252002   5.241   4.112   5.878  0.4754 -0.6187  0.0444
10171TIP3   OH252003   6.619   5.801   5.486 -0.5330 -0.2959 -0.3950
10171TIP3    H152004   6.662   5.794   5.571 -1.4677 -0.5232  0.0809
10171TIP3    H252005   6.655   5.880   5.447  1.6217 -1.4277 -0.8139
10172TIP3   OH252006   1.274   5.344  16.538 -0.2086 -0.3990  0.2767
10172TIP3    H152007   1.178   5.344  16.545 -0.1518  0.9572  1.3344
10172TIP3    H252008   1.303   5.280  16.604 -0.4021 -1.9991 -1.1140
10173TIP3   OH252009   2.260   3.051  12.310  0.2177 -0.0833  0.1286
10173TIP3    H152010   2.225   3.024  12.225  0.9366 -0.3667 -0.0879
10173TIP3    H252011   2.220   3.136  12.328  0.3782  0.1711 -0.6887
10174TIP3   OH252012   4.136   1.530   3.441 -0.1336 -0.1741 -0.3927
10174TIP3    H152013   4.213   1.489   3.402 -0.2924  0.0625 -0.9774
10174TIP3    H252014   4.116   1.603   3.381 -0.5144  0.0632  0.0211
10175TIP3   OH252015   0.436   4.326  12.687  0.0019 -0.2143 -0.3877
10175TIP3    H152016   0.387   4.359  12.612 -1.0329 -2.0084 -0.5646
10175TIP3    H252017   0.404   4.237  12.699  0.9171 -0.3375  1.5355
10176TIP3   OH252018   2.556   6.498  14.898  0.1672  0.3127 -0.3083
10176TIP3    H152019   2.514   6.550  14.829 -0.7041 -0.1006 -0.1023
10176TIP3    H252020   2.515   6.412  14.892  1.2914 -0.2480 -0.3686
10177TIP3   OH252021   5.560   4.887   3.965  0.5995  0.5964  0.0458
10177TIP3    H152022   5.536   4.892   3.872 -0.6291  2.7387  0.4112
10177TIP3    H252023   5.510   4.957   4.006  1.9848  0.4185  2.1680
10178TIP3   OH252024   5.099   1.708   1.441 -0.7272 -0.5921 -0.3092
10178TIP3    H152025   5.080   1.794   1.403  0.6782  0.0970  0.4862
10178TIP3    H252026   5.144   1.661   1.371  3.1433  1.1659  0.7359
10179TIP3   OH252027   4.156   1.415  14.925  0.1926  0.6183  0.4551
10179TIP3    H152028   4.242   1.375  14.912 -0.7096 -1.0115 -0.8446
10179TIP3    H252029   4.130   1.444  14.838 -0.9568  0.2779  0.6751
10180TIP3   OH252030   0.404   3.227  13.836  0.5758 -0.0685  0.0653
10180TIP3    H152031   0.413   3.319  13.861 -1.5724  0.5033 -1.0138
10180TIP3    H252032   0.442   3.222  13.749 -0.8707  0.2372 -0.6104
10181TIP3   OH252033   0.330   2.903  16.672  0.3997  0.0040  0.3014
10181TIP3    H152034   0.420   2.916  16.703  0.4619  1.3831 -0.4172
10181TIP3    H252035   0.329   2.811  16.643  0.9070 -0.7277  2.3948
10182TIP3   OH252036   6.708   3.240   4.324  0.2142 -0.4150  0.0272
10182TIP3    H152037   6.787   3.251   4.378  0.4552  3.7502 -0.8041
10182TIP3    H252038   6.643   3.204   4.384  0.7403  3.0232  3.0882
10183TIP3   OH252039   3.573   5.243  12.184 -0.4260  1.0317 -0.3452
10183TIP3    H152040   3.666   5.260  12.194 -0.6408  1.3555  1.5943
10183TIP3    H252041   3.536   5.328  12.159 -0.2275  0.9156 -1.0579
10184TIP3   OH252042   1.247   3.968   1.983  0.0074  0.3888 -0.0629
10184TIP3    H152043   1.204   3.885   1.960 -1.0827  0.8336  0.2681
10184TIP3    H252044   1.259   4.013   1.899 -0.5795  0.4348 -0.1285
10185TIP3   OH252045   4.376   3.351  11.853 -0.5031  0.0477 -0.1452
10185TIP3    H152046   4.346   3.382  11.939  2.6480  0.4192  0.9716
10185TIP3    H252047   4.415   3.265  11.871  1.5095  0.7487 -0.8257
10186TIP3   OH252048   4.996   0.058  13.708  0.1430  0.9439 -0.1463
10186TIP3    H152049   4.997   0.150  13.736  0.3360  1.0932 -0.6285
10186TIP3    H252050   5.051   0.013  13.772  0.3655  1.2311 -0.1313
10187TIP3   OH252051   6.482   5.641   1.586  0.2202  0.2895  0.1115
10187TIP3    H152052   6.497   5.610   1.675 -0.4937 -1.6181 -0.3855
10187TIP3    H252053   6.390   5.665   1.584 -0.0517 -0.7494 -0.3937
10188TIP3   OH252054   1.642   3.908   6.109  0.1907  0.3433  0.5308
10188TIP3    H152055   1.720   3.958   6.086  0.5600 -0.4293  0.0854
10188TIP3    H252056   1.668   3.817   6.103 -0.0092  0.0528  2.9362
10189TIP3   OH252057   0.184   6.514  10.819  0.1133  0.2278 -0.1033
10189TIP3    H152058   0.118   6.561  10.871 -0.1505 -0.0244 -0.2079
10189TIP3    H252059   0.143   6.504  10.733  0.2289 -0.0717 -0.1227
10190TIP3   OH252060   5.309   6.435  11.597  0.2230 -0.3221  0.0857
10190TIP3    H152061   5.280   6.373  11.530 -0.4280  0.6080 -0.5159
10190TIP3    H252062   5.259   6.412  11.675 -1.7762  0.8504 -0.7566
10191TIP3   OH252063   1.122   1.567   4.341  0.4364 -0.3482  0.3003
10191TIP3    H152064   1.045   1.599   4.388  0.7892  0.2714  0.4694
10191TIP3    H252065   1.175   1.645   4.326  0.5618 -0.6150 -0.7092
10192TIP3   OH252066   3.346   0.444   3.414 -0.4295  0.3551 -0.4360
10192TIP3    H152067   3.348   0.501   3.491 -1.5650  1.0797 -0.9117
10192TIP3    H252068   3.313   0.360   3.447  1.5005 -0.1617  0.3161
10193TIP3   OH252069   5.486   0.381  13.957  0.3108  0.2796  0.5403
10193TIP3    H152070   5.564   0.324  13.951  0.7055  0.7592  1.0227
10193TIP3    H252071   5.480   0.402  14.050 -2.1060 -2.0795  1.0430
10194TIP3   OH252072   5.880   5.469   1.210  0.3012 -0.1653 -0.6724
10194TIP3    H152073   5.907   5.390   1.163 -1.3639  0.4951 -2.9418
10194TIP3    H252074   5.946   5.481   1.277  1.7940 -2.2735 -1.6508
10195TIP3   OH252075   0.547   3.437  13.196 -0.3717  0.0464  0.5672
10195TIP3    H152076   0.588   3.354  13.172  0.5956  0.3996  0.9514
10195TIP3    H252077   0.497   3.418  13.275  0.4007 -0.0319  1.0506
10196TIP3   OH252078   0.143   4.186   6.416 -0.2590  0.2095 -0.3429
10196TIP3    H152079   0.182   4.100   6.431 -1.1139 -0.6850 -2.7198
10196TIP3    H252080   0.133   4.223   6.503  2.1685 -1.1488  0.6125
10197TIP3   OH252081   5.465   4.676   1.612 -0.3149 -0.0854 -0.3308
10197TIP3    H152082   5.434   4.590   1.640 -0.8762  0.0499 -0.5224
10197TIP3    H252083   5.423   4.738   1.672  0.6912  0.0107  0.2963
10198TIP3   OH252084   2.758   2.309  12.520  1.3695  0.5408  0.4325
10198TIP3    H152085   2.675   2.328  12.564  0.4993 -0.5324 -0.6528
10198TIP3    H252086   2.823   2.357  12.570  0.1528  1.0790  1.5795
10199TIP3   OH252087   0.612   2.873  11.500 -0.1237 -0.0725 -0.2307
10199TIP3    H152088   0.559   2.867  11.580 -0.4182  0.3259 -0.3892
10199TIP3    H252089   0.605   2.965  11.473  0.0435 -0.1830 -0.6646
10200TIP3   OH252090   0.162   6.168   3.037 -0.5815  0.0254  0.0301
10200TIP3    H152091   0.113   6.132   2.963 -0.9195  0.1051  0.2101
10200TIP3    H252092   0.100   6.228   3.078 -0.5565 -0.3780  0.6593
10201TIP3   OH252093   0.938   1.263   1.233 -0.0896  0.0440 -0.4616
10201TIP3    H152094   0.903   1.340   1.278  1.7214  2.0230 -2.1589
10201TIP3    H252095   1.033   1.280   1.229  0.9183 -3.8653  1.8753
10202TIP3   OH252096   6.799   0.892  14.254 -0.1151  0.1564 -0.2283
10202TIP3    H152097   6.867   0.960  14.262  0.9681 -0.8649 -0.4717
10202TIP3    H252098   6.814   0.834  14.328  0.9409 -1.4826 -1.6281
10203TIP3   OH252099   4.649   3.610  11.827  0.0509  0.4407  0.1424
10203TIP3    H152100   4.655   3.557  11.747  1.4450  1.1940 -0.3040
10203TIP3    H252101   4.569   3.661  11.816  0.2538  0.5794 -0.8224
10204TIP3   OH252102   0.164   2.283  14.602 -0.4221 -0.2446 -0.3397
10204TIP3    H152103   0.101   2.251  14.537 -1.0869  1.9525 -0.8614
10204TIP3    H252104   0.176   2.376  14.581  1.2934 -0.0615  1.1477
10205TIP3   OH252105   6.742   1.914   2.488 -0.1097 -0.3277 -0.1422
10205TIP3    H152106   6.665   1.972   2.488  0.2864  0.2409  1.1904
10205TIP3    H252107   6.721   1.846   2.551  0.3862 -0.2802  0.0839
10206TIP3   OH252108   3.473   1.532   0.726 -0.2286 -0.4708  0.4689
10206TIP3    H152109   3.524   1.542   0.646 -2.0839  0.1452 -0.7050
10206TIP3    H252110   3.493   1.611   0.777 -1.2061  0.5651 -0.7107
10207TIP3   OH252111   2.862   2.943  11.481 -0.3766  0.3685  0.0437
10207TIP3    H152112   2.778   2.909  11.513 -1.2746  2.1832 -0.2173
10207TIP3    H252113   2.856   2.936  11.385  0.7742 -1.6074  0.0482
10208TIP3   OH252114   5.308   1.665  10.988  0.3657 -0.3663 -0.4848
10208TIP3    H152115   5.350   1.604  10.927  0.9946 -1.3363  0.8544
10208TIP3    H252116   5.297   1.614  11.069 -0.7521  0.7678  0.1187
10209TIP3   OH252117   5.683   4.399  11.906 -0.6847 -0.0288  0.0703
10209TIP3    H152118   5.644   4.422  11.990 -0.1030  1.1422  0.0383
10209TIP3    H252119   5.633   4.449  11.842  1.1524  1.9637  0.0821
10210TIP3   OH252120   4.542   4.252  14.117 -0.0817  0.2726  0.0687
10210TIP3    H152121   4.542   4.206  14.200 -2.1128  0.0240 -0.0249
10210TIP3    H252122   4.532   4.345  14.141  1.4166  0.4367  0.1509
10211TIP3   OH252123   0.426   2.966   2.712  0.4642  0.0608 -0.2639
10211TIP3    H152124   0.334   2.955   2.736 -0.0959  0.5549 -2.0210
10211TIP3    H252125   0.474   2.923   2.783 -1.1205 -0.5268  0.5196
10212TIP3   OH252126   2.496   2.836   4.074  0.2731 -0.0173  0.4614
10212TIP3    H152127   2.442   2.771   4.029  0.4888 -0.1593  0.4077
10212TIP3    H252128   2.555   2.870   4.006  0.4223 -0.0438  0.5765
10213TIP3   OH252129   5.620   6.434  16.295 -0.1585 -0.0592  0.2523
10213TIP3    H152130   5.580   6.396  16.217 -0.2438 -0.6143  0.5653
10213TIP3    H252131   5.577   6.519  16.304 -1.3091 -0.6516  0.5947
10214TIP3   OH252132   4.808   1.238   6.236 -0.3412 -0.3564  0.4673
10214TIP3    H152133   4.746   1.191   6.292 -0.0229 -0.5798  0.6368
10214TIP3    H252134   4.871   1.171   6.209 -3.2109 -1.5509 -4.2929
10215TIP3   OH252135   1.818   0.181   2.236  0.3399 -0.5127  0.0431
10215TIP3    H152136   1.838   0.184   2.142 -0.7839 -0.9137 -0.2317
10215TIP3    H252137   1.773   0.264   2.253  0.3770 -0.5208  0.1758
10216TIP3   OH252138   5.599   4.856   2.440 -0.4579 -1.1444 -0.2103
10216TIP3    H152139   5.527   4.798   2.464 -1.7361 -0.0248 -1.1748
10216TIP3    H252140   5.578   4.939   2.485  0.5533 -0.9779 -0.0254
10217TIP3   OH252141   4.461   4.698   4.762  0.3539 -0.2528 -0.3964
10217TIP3    H152142   4.448   4.644   4.684  0.7558 -0.7338 -0.1363
10217TIP3    H252143   4.507   4.776   4.730 -0.9119  0.3093 -0.9018
10218TIP3   OH252144   0.806   0.249  14.776 -0.3845  0.0224 -0.5498
10218TIP3    H152145   0.730   0.278  14.827 -2.3180 -1.8065 -2.1559
10218TIP3    H252146   0.843   0.177  14.826 -0.4747  0.1265 -0.3333
10219TIP3   OH252147   0.202   4.717   1.490 -0.0124  0.3569  0.1402
10219TIP3    H152148   0.190   4.718   1.395  2.0707 -2.2422 -0.2728
10219TIP3    H252149   0.296   4.730   1.502  0.4716 -3.1719  1.4621
10220TIP3   OH252150   4.802   5.174   3.059 -0.2674  0.1819  0.3982
10220TIP3    H152151   4.734   5.219   3.109 -0.8389  0.2132 -0.3877
10220TIP3    H252152   4.796   5.083   3.088 -0.1993  0.3052  0.8063
10221TIP3   OH252153   3.846   5.170  14.836  0.2865 -0.2536  0.2086
10221TIP3    H152154   3.895   5.178  14.918 -0.3933  1.1462  0.5153
10221TIP3    H252155   3.879   5.241  14.781  0.7502 -1.1936 -0.7701
10222TIP3   OH252156   6.813   4.511   1.115 -0.6729  0.4311 -0.2243
10222TIP3    H152157   6.842   4.471   1.033  0.5246  2.7640 -1.0313
10222TIP3    H252158   6.718   4.515   1.108 -0.8742 -2.3688  0.0165
10223TIP3   OH252159   0.616   6.131   2.979  0.0288 -0.4565  0.7328
10223TIP3    H152160   0.551   6.076   3.024  0.8660 -1.0956  1.1867
10223TIP3    H252161   0.675   6.160   3.048 -0.1724  0.7239  0.4298
10224TIP3   OH252162   2.985   4.920   5.571  0.2228  0.5978 -0.1598
10224TIP3    H152163   3.062   4.923   5.628  0.2400 -0.2404 -0.1181
10224TIP3    H252164   2.929   4.852   5.610 -0.1048  0.5406 -0.7175
10225TIP3   OH252165   6.347   4.229   4.273  0.0599  0.2045  0.7021
10225TIP3    H152166   6.268   4.272   4.305 -0.6452 -0.0291 -0.6684
10225TIP3    H252167   6.410   4.301   4.261  0.0930  0.3796  1.8549
10226TIP3   OH252168   2.992   2.398  16.157 -0.2818 -0.0494 -0.3294
10226TIP3    H152169   2.950   2.464  16.212 -0.0497 -1.3005  1.4485
10226TIP3    H252170   3.086   2.412  16.170 -0.1295  0.9626 -2.1155
10227TIP3   OH252171   1.752   5.945   5.250 -0.1993  0.3522 -0.2874
10227TIP3    H152172   1.838   5.966   5.285  0.6312  0.3373 -2.1655
10227TIP3    H252173   1.760   5.963   5.156 -1.8404 -0.8724 -0.7041
10228TIP3   OH252174   3.303   3.842   1.293 -0.3540  0.4755  0.0876
10228TIP3    H152175   3.295   3.755   1.333 -0.2765 -0.2088 -1.3402
10228TIP3    H252176   3.397   3.862   1.300  0.6793 -1.8229 -3.9690
10229TIP3   OH252177   2.875   2.976  16.459 -0.1315  0.1167  0.2756
10229TIP3    H152178   2.963   2.940  16.475  0.0298  1.1325  1.7835
10229TIP3    H252179   2.890   3.068  16.438 -0.7985  0.1375 -0.1351
10230TIP3   OH252180   3.997   3.389   4.657 -0.2616  0.2997 -0.1460
10230TIP3    H152181   3.967   3.335   4.731  0.4526 -1.4903 -1.0955
10230TIP3    H252182   4.092   3.379   4.657  0.1019  2.8917  0.5657
10231TIP3   OH252183   5.976   0.211   5.401  0.4702 -0.0174 -0.9201
10231TIP3    H152184   5.993   0.130   5.353 -0.5452 -0.7191 -0.1483
10231TIP3    H252185   5.959   0.182   5.491  1.6183  1.2011 -0.2860
10232TIP3   OH252186   2.589   3.461   1.521 -0.1373  0.1512 -0.6376
10232TIP3    H152187   2.668   3.514   1.531 -0.7274  0.8649  0.4598
10232TIP3    H252188   2.604   3.384   1.576  0.2829 -0.3152 -1.3924
10233TIP3   OH252189   1.530   6.005   0.515  0.0012  0.2459 -0.2512
10233TIP3    H152190   1.457   6.009   0.576  0.3322  1.2790  0.1004
10233TIP3    H252191   1.521   6.084   0.461  0.4225 -0.0102 -0.7107
10234TIP3   OH252192   4.865   2.974  11.843 -0.3674  0.1397  0.0355
10234TIP3    H152193   4.943   2.985  11.897 -0.7510  0.8335  0.4667
10234TIP3    H252194   4.876   3.038  11.773 -1.4127  1.6132  1.1439
10235TIP3   OH252195   2.896   2.268  13.239 -0.1655  0.3620 -0.4890
10235TIP3    H152196   2.855   2.210  13.175  0.9342 -0.0376 -0.8498
10235TIP3    H252197   2.955   2.323  13.187  0.2031  0.5221  0.0975
10236TIP3   OH252198   3.333   5.194   6.012 -0.3528  0.1219 -0.4285
10236TIP3    H152199   3.302   5.281   5.987  0.1514  0.0488 -1.3509
10236TIP3    H252200   3.353   5.201   6.105 -2.2394  0.4246 -0.0022
10237TIP3   OH252201   1.875   1.039  11.637 -0.4608 -0.0463 -0.0421
10237TIP3    H152202   1.970   1.034  11.636 -0.4672 -0.0763 -0.5148
10237TIP3    H252203   1.848   1.015  11.549 -0.6629  4.1249 -1.3459
10238TIP3   OH252204   2.942   6.685   5.358 -0.1576 -0.1309  0.2092
10238TIP3    H152205   3.036   6.696   5.371 -0.2270 -1.0160  1.6514
10238TIP3    H252206   2.904   6.702   5.444 -1.1401 -1.5241  0.0730
10239TIP3   OH252207   1.918   3.232   2.600  0.1704  0.3077  0.3388
10239TIP3    H152208   1.864   3.152   2.603 -0.5848  0.7930  0.0289
10239TIP3    H252209   2.006   3.202   2.622 -0.2314 -0.5021  0.9137
10240TIP3   OH252210   1.964   4.323   0.941  0.4098  0.1137 -0.0017
10240TIP3    H152211   1.952   4.288   1.030  0.7118 -0.8170 -0.3165
10240TIP3    H252212   1.985   4.416   0.955  2.0705 -0.3664  0.9914
10241TIP3   OH252213   0.037   1.583  15.758 -0.1771  0.0516  0.5330
10241TIP3    H152214  -0.033   1.641  15.728  0.6535  0.8953  0.1822
10241TIP3    H252215   0.086   1.561  15.679 -1.0582 -1.9707  0.4948
10242TIP3   OH252216   5.635   0.973   5.390  0.3088  0.2755  0.4497
10242TIP3    H152217   5.624   0.881   5.368 -1.1611  0.7834 -1.1727
10242TIP3    H252218   5.561   1.017   5.349  0.8634  2.1742  1.3436
10243TIP3   OH252219   0.872   6.669  13.711 -0.0601  0.3250 -0.0472
10243TIP3    H152220   0.810   6.623  13.655  0.7710 -1.5655  0.4986
10243TIP3    H252221   0.826   6.679  13.795  0.3234 -1.0280  0.3418
10244TIP3   OH252222   6.239   3.021   4.489  0.4047  1.2558  0.0622
10244TIP3    H152223   6.237   3.091   4.554 -0.5946  1.7704 -0.4862
10244TIP3    H252224   6.166   3.042   4.430  0.9187  0.4843 -0.8782
10245TIP3   OH252225   3.199   5.569   3.253 -0.2813 -0.3196  0.1109
10245TIP3    H152226   3.139   5.530   3.316 -0.0349  1.8519  1.8115
10245TIP3    H252227   3.276   5.512   3.255 -0.8852 -1.1372  0.5874
10246TIP3   OH252228   4.298   1.346   5.094  0.2195  0.1587 -0.2165
10246TIP3    H152229   4.238   1.420   5.080  1.0353  0.7812 -0.4494
10246TIP3    H252230   4.329   1.357   5.184 -0.8207 -0.7719  0.2836
10247TIP3   OH252231   4.240   1.434  12.509  0.0834  0.2459  0.0811
10247TIP3    H152232   4.245   1.529  12.511  1.0077  0.2471 -1.1823
10247TIP3    H252233   4.274   1.407  12.594  1.7156  1.0098 -0.2877
10248TIP3   OH252234   4.210   2.908   4.578 -0.4320 -0.1367  0.1856
10248TIP3    H152235   4.271   2.975   4.547 -0.6193  0.2228  0.5839
10248TIP3    H252236   4.141   2.906   4.512  1.2587 -2.4063 -1.7183
10249TIP3   OH252237   0.863   5.899  13.059  0.1282 -0.2863 -0.7673
10249TIP3    H152238   0.784   5.951  13.054 -0.7806 -1.4517  0.6955
10249TIP3    H252239   0.884   5.894  13.153 -0.2470 -3.0741 -0.7372
10250TIP3   OH252240   6.344   3.803   5.241  0.3717  0.1286 -0.1024
10250TIP3    H152241   6.300   3.720   5.259  1.2822 -0.0365  1.4869
10250TIP3    H252242   6.404   3.782   5.169 -0.5184 -0.1741 -0.7883
10251TIP3   OH252243   4.672   0.355  13.237 -0.1496 -0.6274  0.0882
10251TIP3    H152244   4.728   0.284  13.204  1.0689 -0.0283  0.7843
10251TIP3    H252245   4.625   0.315  13.310  1.1977 -0.5241  1.0593
10252TIP3   OH252246   1.368   1.921  15.190  0.4449 -0.0224 -0.0185
10252TIP3    H152247   1.400   1.961  15.270 -0.9523 -0.0582  0.5897
10252TIP3    H252248   1.437   1.937  15.125  0.8850  1.4280  0.7743
10253TIP3   OH252249   6.254   3.583  12.748 -0.3424 -0.5811  0.4248
10253TIP3    H152250   6.280   3.644  12.817 -1.9945 -1.8407  2.2353
10253TIP3    H252251   6.238   3.640  12.672  1.6612  0.8201  0.9485
10254TIP3   OH252252   4.308   4.584   6.555  0.6573  0.1794 -0.2449
10254TIP3    H152253   4.395   4.595   6.515  0.8216 -0.3936 -0.0445
10254TIP3    H252254   4.256   4.656   6.518  1.6316  1.4741  0.8016
10255TIP3   OH252255   3.157   1.201   0.914 -0.2105  0.4195  0.1311
10255TIP3    H152256   3.182   1.259   0.842 -1.8824  1.1773  0.1139
10255TIP3    H252257   3.239   1.161   0.942  0.4735 -0.0876 -2.3373
10256TIP3   OH252258   2.960   4.280   3.578 -0.0936 -0.2028  0.0461
10256TIP3    H152259   2.931   4.365   3.545 -0.2571  0.0192  0.7467
10256TIP3    H252260   2.949   4.220   3.504 -0.6309  0.2418 -0.2383
10257TIP3   OH252261   0.410   4.508  15.501 -0.1778 -0.5417  0.4196
10257TIP3    H152262   0.417   4.526  15.595 -0.2495 -1.6389  0.6549
10257TIP3    H252263   0.316   4.499  15.485 -0.1697 -0.2930  0.2321
10258TIP3   OH252264   1.728   3.927  17.085 -1.0019 -0.4389  0.2426
10258TIP3    H152265   1.684   3.996  17.134 -3.5550 -0.1109 -2.2369
10258TIP3    H252266   1.727   3.852  17.143 -1.2687  0.6683  1.7354
10259TIP3   OH252267   2.864   1.655   1.217 -0.0097  0.5342 -0.2333
10259TIP3    H152268   2.856   1.750   1.207 -1.4340  0.3122 -1.6182
10259TIP3    H252269   2.921   1.629   1.145  0.8647  0.3769  0.4973
10260TIP3   OH252270   6.623   0.105   3.591  0.4104 -0.0435 -0.1365
10260TIP3    H152271   6.682   0.062   3.530 -0.3789  0.1173 -1.0356
10260TIP3    H252272   6.676   0.175   3.630  2.3603 -2.8756  2.8250
10261TIP3   OH252273   5.991   3.380   3.007 -0.2910 -0.1690  0.1258
10261TIP3    H152274   6.026   3.305   3.054  1.9555  2.1832  2.4946
10261TIP3    H252275   5.923   3.415   3.064 -1.6291 -0.5557 -1.1577
10262TIP3   OH252276   3.420   5.057  12.057  0.0225  0.5145  0.7011
10262TIP3    H152277   3.486   5.024  11.996 -0.4429 -1.0749  1.0045
10262TIP3    H252278   3.465   5.125  12.107  1.2396 -0.0867  0.4602
10263TIP3   OH252279   5.083   4.279   0.570  0.1230 -0.5069 -0.3887
10263TIP3    H152280   5.109   4.211   0.508  1.7696  0.0420 -0.3617
10263TIP3    H252281   4.987   4.279   0.567  0.0933 -2.3910 -0.8363
10264TIP3   OH252282   4.120   2.831  14.878  0.1574 -0.3748 -0.2126
10264TIP3    H152283   4.146   2.880  14.800 -0.4246  0.9107  0.3656
10264TIP3    H252284   4.087   2.898  14.938 -0.7931 -1.4999  0.5677
10265TIP3   OH252285   5.375   3.770   5.384  0.2077  0.6669  0.1918
10265TIP3    H152286   5.377   3.863   5.405 -1.7909  0.6232  0.7593
10265TIP3    H252287   5.290   3.756   5.342  0.3779 -0.9371  0.3145
10266TIP3   OH252288   3.522   6.652  12.246  0.7413 -0.4384 -0.2394
10266TIP3    H152289   3.553   6.630  12.335  0.8367  1.1069  0.1277
10266TIP3    H252290   3.560   6.738  12.228 -1.6460  0.6028 -0.6058
10267TIP3   OH252291   0.218   3.532   4.291  0.1000 -0.3123 -0.2710
10267TIP3    H152292   0.177   3.618   4.279  0.4323 -0.2015 -0.6334
10267TIP3    H252293   0.153   3.469   4.261 -0.6858 -0.2820  1.2611
10268TIP3   OH252294   6.671   2.297   6.760  0.0749  0.0175  0.0935
10268TIP3    H152295   6.730   2.239   6.809  1.4957  2.5499  1.6204
10268TIP3    H252296   6.601   2.318   6.821  0.1758  0.7574 -0.0301
10269TIP3   OH252297   4.473   6.561   0.368 -0.3707 -0.2445  0.3312
10269TIP3    H152298   4.548   6.502   0.381  0.3343 -0.0197 -2.2179
10269TIP3    H252299   4.405   6.505   0.330 -1.3196 -0.3002  2.0182
10270TIP3   OH252300   0.265   4.983  15.812 -0.1595  0.1690  0.1098
10270TIP3    H152301   0.240   4.893  15.833  1.8938 -0.5258 -0.1687
10270TIP3    H252302   0.239   4.995  15.721  2.5337 -1.3890 -0.9680
10271TIP3   OH252303   4.240   6.076   1.325 -0.3092 -0.1843  0.2945
10271TIP3    H152304   4.272   6.166   1.321 -0.9826  0.0386 -0.3904
10271TIP3    H252305   4.154   6.082   1.367 -0.3761 -0.4940  0.2087
10272TIP3   OH252306   1.886   6.564  13.098  0.0111  0.0676  0.3013
10272TIP3    H152307   1.792   6.559  13.111 -0.1426  1.9038  0.1115
10272TIP3    H252308   1.897   6.560  13.003  0.0752  0.4896  0.2906
10273TIP3   OH252309   0.526   4.559  11.633 -0.3346 -0.5450  0.2776
10273TIP3    H152310   0.516   4.537  11.725 -1.7905 -1.8975 -0.1516
10273TIP3    H252311   0.491   4.648  11.625 -0.5612 -0.5705  0.9583
10274TIP3   OH252312   6.557   3.550  12.990  0.5762  0.3463  0.0677
10274TIP3    H152313   6.468   3.516  12.980  0.5161  0.8271 -1.1880
10274TIP3    H252314   6.560   3.581  13.081  0.3159 -1.9838  0.9514
10275TIP3   OH252315   5.360   0.620   0.523 -0.0446  0.4153  0.4225
10275TIP3    H152316   5.365   0.533   0.482 -1.1905  1.2592 -1.6474
10275TIP3    H252317   5.267   0.640   0.525  0.2096  1.6178  0.8793
10276TIP3   OH252318   4.260   5.090  16.688  0.5142 -0.7675  0.3886
10276TIP3    H152319   4.332   5.066  16.746  1.5245  1.4208  0.1495
10276TIP3    H252320   4.212   5.158  16.735 -1.0089 -1.6860  0.2351
10277TIP3   OH252321   0.265   6.645   0.976  0.0233 -0.3045  0.1415
10277TIP3    H152322   0.280   6.739   0.970  0.4427 -0.4674 -1.8002
10277TIP3    H252323   0.182   6.637   1.023 -0.6553  1.0850 -0.7602
10278TIP3   OH252324   4.674   0.766  14.028 -0.1034  0.5855  0.5782
10278TIP3    H152325   4.687   0.716  14.109 -0.8375 -1.0553 -0.2770
10278TIP3    H252326   4.582   0.754  14.007  0.2869  0.1661 -1.0102
10279TIP3   OH252327   0.830   5.459   2.941  0.0710 -0.2920 -0.1316
10279TIP3    H152328   0.757   5.501   2.896  0.5114 -1.0398 -1.6222
10279TIP3    H252329   0.802   5.368   2.954  0.5711 -0.4772 -0.3282
10280TIP3   OH252330   6.430   6.726   3.579  0.3182 -0.0306 -0.2791
10280TIP3    H152331   6.498   6.793   3.570  1.0015 -0.6730 -0.0377
10280TIP3    H252332   6.477   6.643   3.572 -0.4135 -0.4917  0.1124
10281TIP3   OH252333   1.116   1.774  13.890 -0.0116  0.2995 -0.1471
10281TIP3    H152334   1.203   1.811  13.877 -0.3435  1.0256 -0.3389
10281TIP3    H252335   1.056   1.846  13.872 -0.6776 -0.3479 -0.5797
10282TIP3   OH252336   1.887   1.250  16.983  0.5977 -0.6531 -0.3457
10282TIP3    H152337   1.942   1.173  16.967  0.3871 -0.6909 -0.9366
10282TIP3    H252338   1.940   1.307  17.038  0.2692 -1.7852  1.2189
10283TIP3   OH252339   4.652   4.249  11.142 -0.2782 -0.0701 -0.4276
10283TIP3    H152340   4.589   4.181  11.121  1.5281 -2.1914  0.5272
10283TIP3    H252341   4.730   4.226  11.091  0.6457  0.7894  0.5461
10284TIP3   OH252342   1.087   4.852  10.713 -0.0628 -0.3929 -0.6654
10284TIP3    H152343   1.057   4.882  10.627 -0.6650  0.3227 -0.2190
10284TIP3    H252344   1.017   4.797  10.745 -1.0510  1.4256  0.4562
10285TIP3   OH252345   1.404   2.014  16.324 -0.7243  0.4354  0.0115
10285TIP3    H152346   1.484   1.969  16.298  0.0405  1.8694 -0.2671
10285TIP3    H252347   1.342   1.995  16.254 -0.9717 -1.4724  0.7052
10286TIP3   OH252348   2.973   4.590  12.364  0.1692  0.1406 -0.2260
10286TIP3    H152349   2.884   4.620  12.384  0.1035  0.7830 -1.3920
10286TIP3    H252350   2.968   4.495  12.372 -0.9902  0.0560 -1.5838
10287TIP3   OH252351   3.001   1.374   5.084  0.1024  0.3686  0.2457
10287TIP3    H152352   3.057   1.452   5.076 -0.7255  1.0935  1.1861
10287TIP3    H252353   2.954   1.370   5.001  0.0628  0.9518  0.2350
10288TIP3   OH252354   6.469   2.099   6.689 -0.6569  0.1637  0.4856
10288TIP3    H152355   6.501   2.061   6.607 -0.0896 -0.3941  0.9515
10288TIP3    H252356   6.522   2.177   6.703  0.5269 -0.7386  1.2382
10289TIP3   OH252357   3.005   6.470   5.759 -0.1468 -0.3918 -0.3994
10289TIP3    H152358   3.068   6.488   5.829  0.0213 -1.1259 -0.3503
10289TIP3    H252359   3.029   6.383   5.727 -1.1158 -0.6729 -0.4045
10290TIP3   OH252360   4.269   6.009   6.208  0.4068 -0.3348 -0.0893
10290TIP3    H152361   4.256   6.015   6.302 -0.6266 -2.5768 -0.0381
10290TIP3    H252362   4.349   5.958   6.198 -0.7421 -2.1446 -0.3818
10291TIP3   OH252363   1.244   2.856  13.342 -0.1382 -0.1688 -0.3281
10291TIP3    H152364   1.205   2.781  13.388 -0.3894  0.8648  1.2002
10291TIP3    H252365   1.263   2.822  13.254 -1.2652 -1.6990 -0.0285
10292TIP3   OH252366   5.579   2.350   4.483  0.2251  0.2306  0.5707
10292TIP3    H152367   5.573   2.436   4.442  0.3143  0.0599  0.1959
10292TIP3    H252368   5.505   2.302   4.448 -0.7012  0.6214  1.9162
10293TIP3   OH252369   6.562   2.165  14.442  0.1450  0.5052  0.1497
10293TIP3    H152370   6.522   2.079  14.431  0.6273  0.0167  1.8648
10293TIP3    H252371   6.528   2.196  14.526  2.1331  0.7407  0.9287
10294TIP3   OH252372   3.941   4.986  13.865 -0.1053 -0.1194  0.5102
10294TIP3    H152373   3.937   5.061  13.806 -3.1650  0.4612  1.2557
10294TIP3    H252374   3.961   5.025  13.951  1.2891 -0.5859  0.4242
10295TIP3   OH252375   5.761   0.671  12.583 -0.6481  0.1330 -0.6575
10295TIP3    H152376   5.705   0.714  12.519 -1.8192 -2.1566 -1.2904
10295TIP3    H252377   5.722   0.691  12.668 -1.1740  0.2984 -0.9395
10296TIP3   OH252378   5.578   1.623   0.298  0.8191 -0.2071 -0.2749
10296TIP3    H152379   5.618   1.699   0.257  0.8730 -0.0164  0.1307
10296TIP3    H252380   5.592   1.636   0.392 -0.4782  0.0371 -0.0982
10297TIP3   OH252381   0.635   0.569   5.611  0.2965 -0.3069 -0.0332
10297TIP3    H152382   0.648   0.524   5.694  0.6819 -0.7719 -0.3451
10297TIP3    H252383   0.541   0.560   5.594 -0.2996  1.8640  1.5243
10298TIP3   OH252384   1.822   6.481   2.873  0.3175  0.1704 -0.1814
10298TIP3    H152385   1.803   6.398   2.918 -3.2060  1.4725  1.1303
10298TIP3    H252386   1.902   6.513   2.914  0.7411 -1.7114  0.5822
10299TIP3   OH252387   5.641   6.129   3.209 -0.4756  0.5627  0.2550
10299TIP3    H152388   5.695   6.089   3.276 -0.2439  2.5484  1.3391
10299TIP3    H252389   5.663   6.222   3.213 -0.7565  0.8041 -2.3238
10300TIP3   OH252390   3.079   0.419   5.981  0.7448  0.5998  0.0270
10300TIP3    H152391   3.026   0.426   6.060 -2.2293 -0.0666 -1.7378
10300TIP3    H252392   3.092   0.510   5.953 -1.6561  0.7995 -0.7155
10301TIP3   OH252393   2.588   6.501  11.230 -0.1793  0.0018 -0.7082
10301TIP3    H152394   2.611   6.410  11.244  1.0608  0.3612 -0.2437
10301TIP3    H252395   2.587   6.511  11.134  2.0712  0.0325 -0.7770
10302TIP3   OH252396   3.280   3.390  12.167  0.5415 -0.7119 -1.0107
10302TIP3    H152397   3.222   3.425  12.235  0.9764 -0.6398 -0.6647
10302TIP3    H252398   3.366   3.428  12.188  0.4076  0.5052 -2.4584
10303TIP3   OH252399   1.083   4.328  15.974 -0.2605 -0.4229  0.2527
10303TIP3    H152400   1.142   4.388  15.928 -0.5883 -0.3556 -0.0898
10303TIP3    H252401   1.141   4.264  16.016  0.1094  0.2768  0.8352
10304TIP3   OH252402   3.096   0.598   2.575  0.5044  0.7325 -0.8156
10304TIP3    H152403   3.013   0.630   2.539 -1.7264 -2.3715  1.0045
10304TIP3    H252404   3.085   0.608   2.670  1.5270 -1.1266 -0.4623
10305TIP3   OH252405   3.777   2.144  15.433  0.1309  0.0830 -0.4056
10305TIP3    H152406   3.853   2.202  15.441  0.6022 -0.4627 -0.8310
10305TIP3    H252407   3.711   2.196  15.387  0.4181  0.4073 -0.4511
10306TIP3   OH252408   0.082   4.986  16.130  0.1216  0.5265  0.1765
10306TIP3    H152409   0.070   4.926  16.056  2.0936 -0.0534  0.2845
10306TIP3    H252410   0.008   5.046  16.124 -0.5904 -0.4438 -1.3609
10307TIP3   OH252411   2.237   2.234   3.954  0.1755 -0.0023  0.0905
10307TIP3    H152412   2.294   2.158   3.966  2.1335  1.1782 -1.2423
10307TIP3    H252413   2.279   2.304   4.004 -0.7582  0.6097  0.0370
10308TIP3   OH252414   6.305   6.512  12.076  0.2438 -0.3074 -0.2562
10308TIP3    H152415   6.323   6.421  12.101  1.8411  0.0739  0.0735
10308TIP3    H252416   6.269   6.505  11.987  0.4389 -1.2530 -0.2779
10309TIP3   OH252417   4.175   2.868  12.418 -0.4458  0.2616 -0.1199
10309TIP3    H152418   4.196   2.809  12.346 -1.9659  1.6451 -1.8021
10309TIP3    H252419   4.250   2.927  12.423  1.6582 -2.2943  2.3582
10310TIP3   OH252420   4.747   3.485   1.692 -0.3719 -0.7819  0.3628
10310TIP3    H152421   4.772   3.444   1.608  1.7756 -0.9784  1.0382
10310TIP3    H252422   4.830   3.514   1.730 -1.6062  2.4929  0.8629
10311TIP3   OH252423   4.675   3.357  17.024  0.3001  0.3579  0.4591
10311TIP3    H152424   4.670   3.445  17.062  0.3689  0.9065 -0.7794
10311TIP3    H252425   4.728   3.367  16.945  0.9151 -0.9387  0.6758
10312TIP3   OH252426   1.641   2.229   4.143  0.2309  0.0452 -0.3796
10312TIP3    H152427   1.661   2.271   4.060  1.7840  1.3061  0.5674
10312TIP3    H252428   1.615   2.301   4.200 -1.0941 -0.8294  0.1717
10313TIP3   OH252429   5.230   3.522   0.511  0.5178 -0.1069 -0.3919
10313TIP3    H152430   5.169   3.474   0.567 -0.8213 -0.3110 -1.9272
10313TIP3    H252431   5.224   3.478   0.426  1.3749  1.0648 -1.0919
10314TIP3   OH252432   6.308   2.939   3.107  0.4072 -0.6836 -0.4753
10314TIP3    H152433   6.402   2.922   3.117  0.4995 -0.6986 -1.2988
10314TIP3    H252434   6.300   2.975   3.019 -0.1539  0.8382  0.1630
10315TIP3   OH252435   4.224   2.924  11.347  0.3304  0.1543 -0.0609
10315TIP3    H152436   4.287   2.857  11.320 -0.2538 -0.4974  0.1446
10315TIP3    H252437   4.273   3.006  11.345  1.0827 -0.2911 -0.2546
10316TIP3   OH252438   5.992   0.236  15.149  0.3520  0.3545 -0.3049
10316TIP3    H152439   6.030   0.219  15.063 -1.1670  1.0074 -1.1304
10316TIP3    H252440   5.913   0.182  15.152 -1.0786  2.3415 -0.4429
10317TIP3   OH252441   0.962   5.175   1.000  0.0945 -0.4789 -0.0309
10317TIP3    H152442   1.025   5.247   1.001 -0.5655  0.1173 -0.4697
10317TIP3    H252443   1.000   5.110   1.059  1.1463 -0.1606 -0.3309
10318TIP3   OH252444   3.533   0.050  15.910  0.1455  0.5623  0.1279
10318TIP3    H152445   3.520  -0.043  15.890 -0.1348  0.4211  0.9137
10318TIP3    H252446   3.586   0.050  15.990 -0.2587  1.0682  0.4040
10319TIP3   OH252447   0.198   2.116   2.958 -0.0696  0.3615 -0.0060
10319TIP3    H152448   0.226   2.207   2.946 -0.7133  0.5014 -0.5026
10319TIP3    H252449   0.133   2.120   3.027  0.1001  0.2328  0.1636
10320TIP3   OH252450   6.554   4.790  13.765 -0.0038  0.3701 -0.0375
10320TIP3    H152451   6.638   4.831  13.741  0.3118 -0.2799 -0.0436
10320TIP3    H252452   6.529   4.739  13.687  0.8649 -1.5002  0.8633
10321TIP3   OH252453   5.049   0.769   1.886  0.0642  0.5957  0.2900
10321TIP3    H152454   5.037   0.858   1.919 -0.3691  1.2487 -1.5142
10321TIP3    H252455   4.993   0.765   1.809 -0.5546 -1.5244  0.7819
10322TIP3   OH252456   0.255   5.038   5.493  0.2479  0.1404  0.2546
10322TIP3    H152457   0.169   5.029   5.535  0.3548  0.3830  0.5258
10322TIP3    H252458   0.281   5.127   5.512 -0.1510  0.5888 -1.1839
10323TIP3   OH252459   5.900   4.324  12.660  0.6474  0.4223 -0.0784
10323TIP3    H152460   5.949   4.264  12.717 -1.5019 -0.8040  0.6048
10323TIP3    H252461   5.837   4.366  12.719 -2.6246 -1.9108 -1.5649
10324TIP3   OH252462   4.863   0.821  16.441 -0.2052  0.3171  0.1393
10324TIP3    H152463   4.889   0.829  16.349 -0.8387 -1.4854 -0.2377
10324TIP3    H252464   4.892   0.903  16.481  0.3621  1.0168 -1.5913
10325TIP3   OH252465   6.773   3.240   1.665  0.0374  0.4741  0.4923
10325TIP3    H152466   6.790   3.334   1.661  0.6935  0.3504  0.2618
10325TIP3    H252467   6.759   3.215   1.574  1.2549  0.1070  0.3865
10326TIP3   OH252468   5.974   1.045  13.859 -0.3257  0.2929 -0.3503
10326TIP3    H152469   5.948   1.016  13.946  0.7247 -0.8390 -0.4042
10326TIP3    H252470   6.069   1.042  13.859  0.0533  4.6883 -0.0562
10327TIP3   OH252471   0.337   2.464  13.757  0.1320  0.4852 -0.4225
10327TIP3    H152472   0.416   2.492  13.803 -0.5295 -0.4117  1.3531
10327TIP3    H252473   0.341   2.509  13.672  1.1484  2.6359  0.6952
10328TIP3   OH252474   1.856   0.496  15.163  0.0922  0.2582  0.1204
10328TIP3    H152475   1.905   0.576  15.144  0.1365  0.0812 -0.5487
10328TIP3    H252476   1.793   0.521  15.230 -1.6916  1.5403 -1.8899
10329TIP3   OH252477   2.468   6.126   0.059 -0.4002 -0.2102  0.2608
10329TIP3    H152478   2.544   6.100   0.007 -0.6341 -1.5545  0.5413
10329TIP3    H252479   2.499   6.198   0.114 -0.1167  1.1639 -1.6190
10330TIP3   OH252480   2.113   1.399   0.313 -0.0436 -0.0745  0.1317
10330TIP3    H152481   2.183   1.336   0.300  1.5669  1.9223 -1.7725
10330TIP3    H252482   2.058   1.361   0.380  1.8543 -2.5936  0.3951
10331TIP3   OH252483   4.048   3.029   5.768  0.2170  0.3387 -0.0487
10331TIP3    H152484   4.108   2.962   5.800 -1.4348 -0.0692  2.4316
10331TIP3    H252485   4.010   2.992   5.689  1.0916 -0.6037 -0.0507
10332TIP3   OH252486   3.336   6.476   3.086  0.3817 -0.6229 -0.2243
10332TIP3    H152487   3.307   6.548   3.031  0.9246 -1.1632 -1.2288
10332TIP3    H252488   3.259   6.456   3.140  0.1900  0.6157  0.0001
10333TIP3   OH252489   6.314   2.402   3.817 -0.1477 -0.6662 -0.6848
10333TIP3    H152490   6.328   2.331   3.753 -4.3738 -1.9518 -0.5234
10333TIP3    H252491   6.242   2.370   3.871 -0.9932  3.0596  0.6250
10334TIP3   OH252492   2.931   2.484   0.910 -0.1037 -0.1642 -0.0719
10334TIP3    H152493   2.955   2.575   0.893 -0.3359  0.0402  0.6722
10334TIP3    H252494   3.004   2.449   0.961 -1.6270  0.6798  2.8791
10335TIP3   OH252495   6.725   6.147   2.944 -0.0022  0.5792  0.1284
10335TIP3    H152496   6.666   6.205   2.993  0.2566  1.5834 -0.7216
10335TIP3    H252497   6.671   6.070   2.923 -0.7162  1.0537  0.2045
10336TIP3   OH252498   5.895   1.038   5.177 -0.4126 -0.0291  0.6674
10336TIP3    H152499   5.971   0.995   5.217 -0.9035 -0.2247  1.4186
10336TIP3    H252500   5.921   1.052   5.086  0.5580 -0.0084  0.9318
10337TIP3   OH252501   5.019   0.170  15.622 -1.3315  0.1333  0.0040
10337TIP3    H152502   5.064   0.118  15.689  0.3120  1.3746 -0.0721
10337TIP3    H252503   5.075   0.162  15.545 -1.0186  2.0296  0.0052
10338TIP3   OH252504   4.726   5.618  16.015 -0.1251 -0.8313 -0.2497
10338TIP3    H152505   4.719   5.593  16.107 -0.1670  0.7106  0.1926
10338TIP3    H252506   4.815   5.591  15.990  0.7606  0.7799  0.9387
10339TIP3   OH252507   5.939   4.770   3.778  0.0699 -0.0581 -0.6317
10339TIP3    H152508   5.968   4.686   3.812 -1.1111 -0.4210 -0.4968
10339TIP3    H252509   6.001   4.789   3.707  0.4306 -0.9657 -0.5767
10340TIP3   OH252510   4.018   3.018   4.031  0.1137  0.1119 -0.0127
10340TIP3    H152511   3.981   3.074   4.099 -0.6300  0.7824 -0.9480
10340TIP3    H252512   3.950   2.954   4.012 -0.2268  0.7425 -1.0368
10341TIP3   OH252513   1.774   1.165   2.530  0.1558 -0.1592 -0.4687
10341TIP3    H152514   1.720   1.131   2.459  0.9618 -1.5576 -0.4415
10341TIP3    H252515   1.713   1.216   2.584 -1.0727 -1.4040 -0.6334
10342TIP3   OH252516   3.683   0.141   4.521 -0.4870 -0.6835 -0.2798
10342TIP3    H152517   3.751   0.180   4.466  0.0678 -2.2183 -0.7423
10342TIP3    H252518   3.732   0.097   4.591 -1.1395  0.3005  0.8221
10343TIP3   OH252519   5.625   2.992  16.946  0.0623 -0.2856 -0.8842
10343TIP3    H152520   5.594   2.907  16.977  3.0120 -2.4780 -3.2839
10343TIP3    H252521   5.582   3.004  16.862 -1.0085  1.1431 -0.1826
10344TIP3   OH252522   4.405   5.904   5.677  0.3678  0.0498 -0.4671
10344TIP3    H152523   4.366   5.939   5.597  1.0762 -0.9622 -1.2829
10344TIP3    H252524   4.334   5.906   5.741  0.0074  1.6327 -0.8666
10345TIP3   OH252525   0.768   5.053  14.216  0.3491  0.3671  0.2850
10345TIP3    H152526   0.749   4.965  14.182  2.7914 -0.5773  1.1461
10345TIP3    H252527   0.683   5.086  14.246 -0.8508 -1.1539 -1.1984
10346TIP3   OH252528   0.472   3.782   3.697  0.3915 -0.1230 -0.3510
10346TIP3    H152529   0.393   3.788   3.751  1.4559 -0.4035  1.3226
10346TIP3    H252530   0.492   3.688   3.695  0.1550 -0.1619 -1.6058
10347TIP3   OH252531   1.749   4.576   1.634  0.6855  0.0002 -0.1434
10347TIP3    H152532   1.772   4.656   1.681  1.3182 -0.8094  0.9821
10347TIP3    H252533   1.808   4.574   1.559  0.9139  0.4121  0.0210
10348TIP3   OH252534   2.557   3.746  16.283 -0.6753  0.1250 -0.0714
10348TIP3    H152535   2.600   3.661  16.297 -0.7443  0.0805 -0.1282
10348TIP3    H252536   2.511   3.736  16.199  0.0966  0.5387 -0.5550
10349TIP3   OH252537   2.871   1.240   5.632  0.2743 -0.6483 -0.4270
10349TIP3    H152538   2.790   1.272   5.672  1.2952 -1.0108  2.1907
10349TIP3    H252539   2.895   1.307   5.569 -0.4193  1.1085  1.0800
10350TIP3   OH252540   4.359   1.757   3.058  0.1707  0.1822 -0.6480
10350TIP3    H152541   4.297   1.785   2.991 -2.5073 -2.7094  0.3505
10350TIP3    H252542   4.328   1.798   3.138 -2.2269 -3.1573  0.3330
10351TIP3   OH252543   3.128   4.771   4.375 -0.0419  0.0995  0.0919
10351TIP3    H152544   3.079   4.822   4.440 -2.8267 -2.0730 -0.0878
10351TIP3    H252545   3.160   4.694   4.424 -0.6216 -0.6585 -0.6815
10352TIP3   OH252546   3.806   5.576   5.330  0.3237  0.3739 -0.1145
10352TIP3    H152547   3.734   5.617   5.379 -1.1449 -0.1368 -1.7383
10352TIP3    H252548   3.801   5.483   5.352  0.4700  0.3282 -0.2703
10353TIP3   OH252549   1.207   3.638   5.630  0.1050  0.9049  0.0097
10353TIP3    H152550   1.266   3.712   5.646  0.9918  0.7012 -1.9825
10353TIP3    H252551   1.266   3.565   5.608 -0.8245  0.6251 -1.7480
10354TIP3   OH252552   6.096   1.106   6.041 -0.1107 -0.1619 -0.7632
10354TIP3    H152553   6.134   1.086   6.127 -0.5108  0.3357 -0.4639
10354TIP3    H252554   6.121   1.197   6.024 -2.2750  0.6623  0.0763
10355TIP3   OH252555   6.489   1.434  15.513 -0.6180 -0.1006 -0.0253
10355TIP3    H152556   6.492   1.520  15.556  2.8589  1.1491 -2.3033
10355TIP3    H252557   6.414   1.440  15.454 -3.1994 -0.4960  2.9496
10356TIP3   OH252558   3.662   3.936  12.600  0.0641 -0.4583 -0.6218
10356TIP3    H152559   3.584   3.944  12.654 -0.7177  0.1518 -1.8083
10356TIP3    H252560   3.692   3.846  12.615 -0.3065 -0.3996  0.5625
10357TIP3   OH252561   3.680   3.666  15.917  0.4820  0.2269  0.0330
10357TIP3    H152562   3.676   3.616  15.999  1.6804  1.6800  1.0246
10357TIP3    H252563   3.638   3.749  15.938  0.1943  0.3623 -1.0479
10358TIP3   OH252564   3.326   2.554  12.827 -0.6620 -0.0425  0.5020
10358TIP3    H152565   3.391   2.491  12.861  1.2607  1.1427 -0.7989
10358TIP3    H252566   3.377   2.633  12.808 -2.3312  0.6572 -1.4087
10359TIP3   OH252567   4.971   5.119  12.409 -0.1326 -0.1527  0.4587
10359TIP3    H152568   4.884   5.081  12.398 -0.2683  0.0827  0.7070
10359TIP3    H252569   4.992   5.106  12.501 -0.4543  0.9518  0.6971
10360TIP3   OH252570   1.196   2.335   6.044 -0.4022 -0.1779 -0.2003
10360TIP3    H152571   1.273   2.280   6.062 -0.3415 -0.0885 -0.1863
10360TIP3    H252572   1.163   2.358   6.131  0.5513  1.1888 -0.1747
10361TIP3   OH252573   2.141   2.498  11.193 -0.7250 -0.4319 -0.1835
10361TIP3    H152574   2.119   2.588  11.216  0.5231 -0.2144  0.2126
10361TIP3    H252575   2.063   2.448  11.218 -0.3688  0.1367  2.3332
10362TIP3   OH252576   6.358   1.542   0.093 -0.4119  0.4198  0.3005
10362TIP3    H152577   6.384   1.458   0.130  1.2092  1.7045  2.2305
10362TIP3    H252578   6.435   1.598   0.102 -1.0821  1.8588 -1.9261
10363TIP3   OH252579   4.439   2.178  11.050 -0.5737 -0.0859  0.4647
10363TIP3    H152580   4.430   2.240  10.977 -0.9709  0.1100  0.6795
10363TIP3    H252581   4.461   2.095  11.008 -0.2396  0.1525  0.1579
10364TIP3   OH252582   5.724   0.044   5.269  0.5361 -0.6581  0.2168
10364TIP3    H152583   5.722   0.040   5.365  0.9279 -2.9474  0.2027
10364TIP3    H252584   5.801  -0.007   5.245  0.6681  0.2101 -1.3319
10365TIP3   OH252585   1.188   3.768  16.896 -0.7203 -0.6262 -0.0487
10365TIP3    H152586   1.173   3.859  16.868  0.3464 -0.6121 -0.6402
10365TIP3    H252587   1.254   3.775  16.965 -0.9021 -0.9224  0.1543
10366TIP3   OH252588   3.776   5.578   2.886 -0.6873 -0.5039  0.6612
10366TIP3    H152589   3.722   5.604   2.811 -0.9031  1.0336  1.3099
10366TIP3    H252590   3.862   5.614   2.866 -0.0418 -2.3488 -0.0414
10367TIP3   OH252591   5.179   2.489   1.887  0.0503  0.2100 -0.4886
10367TIP3    H152592   5.232   2.533   1.821  3.5188 -1.0856  1.1498
10367TIP3    H252593   5.160   2.557   1.952  0.1698  0.6037 -0.8646
10368TIP3   OH252594   4.409   5.031  16.889  0.2359 -0.2337  0.2661
10368TIP3    H152595   4.406   4.944  16.929  1.9481 -0.1317  0.7187
10368TIP3    H252596   4.456   5.085  16.953  1.8150  0.2831 -1.2508
10369TIP3   OH252597   4.738   6.135  11.794  0.9154 -0.2147 -0.0224
10369TIP3    H152598   4.671   6.202  11.781 -0.5029 -1.6926 -0.6954
10369TIP3    H252599   4.798   6.146  11.720  1.9927  1.6795  1.0513
10370TIP3   OH252600   1.616   5.246  16.190 -0.2350  0.4356  0.4139
10370TIP3    H152601   1.680   5.294  16.138 -1.4889 -0.0477 -1.6885
10370TIP3    H252602   1.591   5.307  16.259  2.8331  0.4282  1.6954
10371TIP3   OH252603   1.157   5.229  13.167 -0.3456 -0.4635 -0.1726
10371TIP3    H152604   1.085   5.237  13.103 -0.3774 -0.8787 -0.1875
10371TIP3    H252605   1.235   5.256  13.118 -0.2525 -1.4932 -0.6147
10372TIP3   OH252606   3.253   4.805   6.152  0.1404  0.3110  0.1100
10372TIP3    H152607   3.179   4.866   6.149  0.2801  0.5012  0.4447
10372TIP3    H252608   3.328   4.856   6.122  0.5690  0.7835  1.8892
10373TIP3   OH252609   1.999   2.120  12.160 -0.0889 -0.2753 -0.0729
10373TIP3    H152610   2.050   2.082  12.088 -1.5353  0.7703 -1.7166
10373TIP3    H252611   2.065   2.159  12.217  1.0380  0.1580 -1.5985
10374TIP3   OH252612   0.339   4.820   3.165 -0.2091 -0.0161 -0.7239
10374TIP3    H152613   0.284   4.742   3.176 -1.5639  1.0089  0.0541
10374TIP3    H252614   0.414   4.789   3.114  0.1644 -2.2069  0.9920
10375TIP3   OH252615   2.700   1.555  11.232  0.3632 -0.0199  0.2779
10375TIP3    H152616   2.674   1.624  11.171  0.9100  1.6615  1.8507
10375TIP3    H252617   2.651   1.575  11.312 -0.4179 -2.2341  0.4072
10376TIP3   OH252618   5.282   2.604   3.910 -0.1527 -0.1446 -0.1776
10376TIP3    H152619   5.212   2.593   3.846  0.5874 -0.0909 -1.0277
10376TIP3    H252620   5.340   2.669   3.871  1.0061 -1.0689 -0.0731
10377TIP3   OH252621   5.810   0.067  15.739  0.7615  0.3586  0.7430
10377TIP3    H152622   5.819   0.067  15.644 -0.8266  0.7020  0.5732
10377TIP3    H252623   5.776  -0.019  15.760 -0.0203  0.6981  0.8766
10378TIP3   OH252624   0.439   5.910  17.183  0.3545 -0.5469 -0.2462
10378TIP3    H152625   0.403   5.989  17.224 -1.4933 -1.3651 -0.1720
10378TIP3    H252626   0.516   5.941  17.135  1.5936  0.7639  2.3266
10379TIP3   OH252627   2.071   3.830   3.285  0.2829 -0.0929  0.7858
10379TIP3    H152628   2.069   3.790   3.373 -0.7335 -0.5165  0.5853
10379TIP3    H252629   2.055   3.757   3.226 -1.9447  0.6275  0.4299
10380TIP3   OH252630   0.017   6.063  15.044  0.7199 -0.2692 -0.1227
10380TIP3    H152631   0.047   5.986  15.092 -0.1062  0.0726  0.9769
10380TIP3    H252632   0.083   6.076  14.976  0.2510 -2.6535 -1.1264
10381TIP3   OH252633   3.755   0.631  10.829 -0.1029 -0.5292  0.9032
10381TIP3    H152634   3.728   0.567  10.763  1.2141 -1.5349  1.3057
10381TIP3    H252635   3.831   0.591  10.872 -0.7088  0.2588  2.8000
10382TIP3   OH252636   6.585   2.289   4.534 -0.0790 -0.4888  0.6639
10382TIP3    H152637   6.529   2.212   4.521 -0.7002  0.1972 -0.9922
10382TIP3    H252638   6.540   2.359   4.488  1.5346  0.3877  0.3611
10383TIP3   OH252639   4.914   5.697   2.218 -0.0673 -0.1447  0.3416
10383TIP3    H152640   4.983   5.631   2.220  0.8610  0.6735 -1.6798
10383TIP3    H252641   4.898   5.713   2.125 -0.8164  1.8944  0.7566
10384TIP3   OH252642   4.780   3.647   6.349  0.1574  0.1204  0.0981
10384TIP3    H152643   4.691   3.658   6.316 -0.4293  0.6917  1.7720
10384TIP3    H252644   4.771   3.586   6.423  0.9960  0.8544  0.8398
10385TIP3   OH252645   4.355   2.110  13.319 -0.0087  0.2693 -0.8368
10385TIP3    H152646   4.312   2.138  13.239  0.0408  1.4088 -0.4807
10385TIP3    H252647   4.303   2.036  13.350  1.3997 -1.8949 -3.2031
10386TIP3   OH252648   3.898   0.197  15.078  0.1731 -0.0587  0.0873
10386TIP3    H152649   3.914   0.291  15.074  0.2235 -0.1034 -1.2220
10386TIP3    H252650   3.977   0.157  15.042  0.5502 -0.6551  1.5418
10387TIP3   OH252651   3.793   0.610  17.130  0.2761 -0.0599  0.4213
10387TIP3    H152652   3.780   0.581  17.220  1.1071 -2.0538 -0.0393
10387TIP3    H252653   3.881   0.647  17.129  1.5296 -2.7942 -0.1132
10388TIP3   OH252654   0.188   1.235   5.393 -0.4212 -0.7433  0.0767
10388TIP3    H152655   0.165   1.314   5.442 -1.5237  1.0353 -3.0361
10388TIP3    H252656   0.284   1.234   5.392 -0.2915  2.0394 -1.8011
10389TIP3   OH252657   4.346   0.804   0.331 -0.1662  0.5609 -0.3138
10389TIP3    H152658   4.372   0.896   0.325  2.1067 -0.0650 -1.2502
10389TIP3    H252659   4.376   0.775   0.417 -1.1009  0.7268  0.0816
10390TIP3   OH252660   4.670   1.013   1.893  0.3519  0.2587  0.0156
10390TIP3    H152661   4.591   1.063   1.872  1.2125  0.9548 -1.8463
10390TIP3    H252662   4.646   0.922   1.879  0.0533  0.5157 -1.2625
10391TIP3   OH252663   0.490   5.704   5.990  0.0498  0.3622  0.4879
10391TIP3    H152664   0.565   5.673   6.040  0.8097 -0.0246 -0.8685
10391TIP3    H252665   0.481   5.796   6.014  1.5713  0.6722 -0.0659
10392TIP3   OH252666   0.085   4.292  16.518  0.6129 -0.2743  0.8950
10392TIP3    H152667   0.162   4.325  16.473  1.2334 -2.1377  0.4943
10392TIP3    H252668   0.048   4.228  16.457 -2.3019  1.7766  0.3123
10393TIP3   OH252669   2.452   3.998   4.636  0.1915  0.7493 -1.0951
10393TIP3    H152670   2.405   4.046   4.705 -0.0527  0.8339 -1.3150
10393TIP3    H252671   2.517   3.946   4.682  0.5094  1.3575 -0.8598
10394TIP3   OH252672   1.540   3.315   0.422 -0.2347 -0.3039 -0.9460
10394TIP3    H152673   1.446   3.333   0.427 -0.0376  0.8273 -1.1692
10394TIP3    H252674   1.568   3.307   0.513 -1.0595 -3.6567 -0.8462
10395TIP3   OH252675   0.335   2.208  15.314 -0.3743  0.7648  0.3881
10395TIP3    H152676   0.257   2.233  15.363 -0.0632  1.0490  0.7441
10395TIP3    H252677   0.368   2.290  15.277  0.3118  0.8080  1.0673
10396TIP3   OH252678   3.049   5.750   5.063  0.1259 -0.1167 -0.8775
10396TIP3    H152679   3.045   5.846   5.067 -3.0043 -0.1595 -0.2633
10396TIP3    H252680   3.054   5.730   4.970  0.3039  0.6406 -1.0392
10397TIP3   OH252681   0.107   2.226   1.711  0.1579 -0.4025  0.6554
10397TIP3    H152682   0.044   2.156   1.726 -1.5503  1.1539  1.1403
10397TIP3    H252683   0.111   2.273   1.794  1.2928  0.0602  0.3540
10398TIP3   OH252684   3.892   1.907  16.156 -0.1556  0.4224 -0.3989
10398TIP3    H152685   3.874   1.883  16.065  0.3089 -1.2502 -0.0832
10398TIP3    H252686   3.986   1.894  16.166 -0.3115 -0.0669  0.4996
10399TIP3   OH252687   1.494   5.665  13.434 -0.0977 -0.2708  0.4071
10399TIP3    H152688   1.482   5.741  13.376  1.4422 -0.9532 -0.8901
10399TIP3    H252689   1.456   5.592  13.385  0.2164 -0.6684  0.7515
10400TIP3   OH252690   6.411   4.713   0.633 -0.2403  0.4230  0.0419
10400TIP3    H152691   6.463   4.767   0.574  1.6902 -2.3518 -0.9973
10400TIP3    H252692   6.353   4.663   0.575 -0.1901 -0.4557  0.7300
10401TIP3   OH252693   2.121   1.956   2.823  0.1292 -0.1380 -1.0667
10401TIP3    H152694   2.063   2.030   2.840  0.4659 -0.4197  1.7142
10401TIP3    H252695   2.209   1.990   2.842  0.1025 -1.7569  2.8185
10402TIP3   OH252696   2.609   3.172  16.048 -0.3992 -0.3294  0.3818
10402TIP3    H152697   2.599   3.174  16.143  1.5896  0.1523  0.6298
10402TIP3    H252698   2.703   3.159  16.034 -0.8452 -1.9571 -1.5356
10403TIP3   OH252699   3.066   4.476   4.260  0.1004  0.2213  0.1513
10403TIP3    H152700   3.152   4.456   4.299 -0.3109 -0.1921  0.8615
10403TIP3    H252701   3.083   4.550   4.202  1.3465 -1.1357 -1.3058
10404TIP3   OH252702   5.291   0.220  14.101  0.0499  0.4806 -0.0276
10404TIP3    H152703   5.385   0.217  14.081  0.6542 -0.2756  2.5477
10404TIP3    H252704   5.266   0.310  14.081  1.3915  0.7721 -0.5060
10405TIP3   OH252705   4.553   1.623   6.962 -0.4121  0.3635 -0.1220
10405TIP3    H152706   4.555   1.546   6.905 -1.3629 -1.1897  1.8267
10405TIP3    H252707   4.607   1.688   6.916  2.6293 -2.2856 -0.7046
10406TIP3   OH252708   4.725   3.494  16.127 -0.0073  0.1950  0.6138
10406TIP3    H152709   4.757   3.582  16.148 -2.0859  1.2833 -0.4341
10406TIP3    H252710   4.664   3.474  16.198 -0.9902  0.4667 -0.1286
10407TIP3   OH252711   5.918   5.458   3.599  0.2779  0.1479  0.4711
10407TIP3    H152712   5.888   5.437   3.687  0.8389 -0.6533  0.4812
10407TIP3    H252713   5.878   5.392   3.543 -0.5635  1.0079  0.0206
10408TIP3   OH252714   2.567   3.599  13.280  0.2132  0.3812 -0.0138
10408TIP3    H152715   2.579   3.539  13.206  0.1198 -0.2239  0.4529
10408TIP3    H252716   2.642   3.658  13.276  0.1811  0.3860 -0.6215
10409TIP3   OH252717   4.646   3.707   1.908  0.1574  0.1081 -0.5375
10409TIP3    H152718   4.563   3.694   1.955  0.4625 -1.4306 -0.3472
10409TIP3    H252719   4.683   3.619   1.903  2.6729  0.9697  0.9967
10410TIP3   OH252720   4.632   1.708  13.476 -0.8550  0.1574 -0.3223
10410TIP3    H152721   4.694   1.636  13.467  1.3657  1.5611  2.1669
10410TIP3    H252722   4.608   1.709  13.568 -2.1025  1.6256 -0.6075
10411TIP3   OH252723   0.902   5.827   5.609  0.3209  0.7911  0.0583
10411TIP3    H152724   0.858   5.840   5.692 -1.8915 -2.0687 -0.4981
10411TIP3    H252725   0.994   5.817   5.631  0.3062  3.4087  1.6894
10412TIP3   OH252726   3.684   0.319  16.006 -0.3419 -0.1257  0.2785
10412TIP3    H152727   3.755   0.306  15.942 -0.4916  0.5528 -0.0287
10412TIP3    H252728   3.687   0.240  16.060 -0.3882 -0.8476 -0.7397
10413TIP3   OH252729   4.192   1.578  12.953  0.1274  0.5402 -0.9460
10413TIP3    H152730   4.120   1.594  12.892  0.9206 -0.8927 -2.3197
10413TIP3    H252731   4.250   1.518  12.906  0.1186 -1.7023  1.7382
10414TIP3   OH252732   1.835   1.350  12.628  0.4968  0.0900  0.0803
10414TIP3    H152733   1.859   1.264  12.594 -0.7736  0.5671 -2.2179
10414TIP3    H252734   1.778   1.332  12.703 -0.9884 -1.1390 -1.2828
10415TIP3   OH252735   5.640   2.176  12.165  0.5385 -0.2093 -0.0858
10415TIP3    H152736   5.692   2.108  12.207  0.4729 -0.3026 -0.1534
10415TIP3    H252737   5.550   2.158  12.193  0.5588  0.0285  0.1351
10416TIP3   OH252738   1.835   3.034  15.073 -0.2321 -0.1416 -0.3380
10416TIP3    H152739   1.767   3.009  15.137 -0.2305  2.4759  0.8305
10416TIP3    H252740   1.902   2.967  15.082 -1.0394 -0.8060  1.1757
10417TIP3   OH252741   3.874   4.397  12.493 -0.4998 -0.0446  0.4944
10417TIP3    H152742   3.930   4.365  12.564 -1.2734 -0.5415  0.8997
10417TIP3    H252743   3.812   4.326  12.477 -1.3321  0.6807  0.4100
10418TIP3   OH252744   2.080   4.914  15.988 -0.2677  0.6465  0.5383
10418TIP3    H152745   2.046   4.915  16.077 -0.4815  1.4420  0.4487
10418TIP3    H252746   2.159   4.859  15.993 -1.0681 -0.5034  0.9139
10419TIP3   OH252747   5.352   6.593  13.477  0.6119 -0.2227  0.2977
10419TIP3    H152748   5.345   6.573  13.384  0.2565  1.2860 -0.0308
10419TIP3    H252749   5.263   6.615  13.504  0.7434 -0.4627  0.9429
10420TIP3   OH252750   3.269   0.713   0.295  0.0824 -0.4092  0.5091
10420TIP3    H152751   3.255   0.806   0.281 -0.7091  0.1153  3.8908
10420TIP3    H252752   3.187   0.671   0.269  0.1190 -0.0617 -0.1775
10421TIP3   OH252753   5.065   6.491  13.937 -0.2113  0.2544  0.1764
10421TIP3    H152754   5.045   6.439  13.859 -2.0241  0.0209  0.7527
10421TIP3    H252755   5.036   6.438  14.010 -2.4950  2.1624  0.7657
10422TIP3   OH252756   2.321   1.163  11.374  0.2963  0.0536 -0.2326
10422TIP3    H152757   2.289   1.125  11.456 -2.2793  0.8541 -0.7856
10422TIP3    H252758   2.278   1.111  11.306 -0.8720  1.9595 -1.0151
10423TIP3   OH252759   2.195   1.453   1.066 -0.1181  0.7234 -0.0428
10423TIP3    H152760   2.176   1.359   1.067  0.0459  0.6647  1.7207
10423TIP3    H252761   2.284   1.460   1.101  0.0073  1.5145 -0.4976
10424TIP3   OH252762   6.441   2.235  13.785 -0.4056  0.4374  0.0734
10424TIP3    H152763   6.507   2.210  13.849 -0.9072 -1.5826 -0.1251
10424TIP3    H252764   6.487   2.290  13.722  1.1314 -1.0101 -0.1215
10425TIP3   OH252765   5.871   6.389  14.701 -0.1207 -0.0255  0.2430
10425TIP3    H152766   5.938   6.379  14.633 -1.4320  0.9911 -1.2957
10425TIP3    H252767   5.919   6.408  14.781  1.4687 -0.7902 -0.4961
10426TIP3   OH252768   3.378   3.457  14.442 -0.0731  0.7807 -0.2014
10426TIP3    H152769   3.470   3.449  14.416  0.1475  1.2551  0.4151
10426TIP3    H252770   3.349   3.538  14.400 -0.7263 -0.2481 -1.8469
10427TIP3   OH252771   6.258   0.939  11.654  0.0425  0.3679 -0.3108
10427TIP3    H152772   6.171   0.912  11.626  0.3512  0.1592 -1.1021
10427TIP3    H252773   6.279   1.013  11.598  0.8184 -0.2770 -0.9005
10428TIP3   OH252774   3.070   0.670   1.749 -0.5239 -0.1805 -0.2972
10428TIP3    H152775   3.128   0.666   1.826 -0.8962  1.5380  0.1178
10428TIP3    H252776   2.985   0.695   1.785 -0.5560  1.3028 -1.3163
10429TIP3   OH252777   5.064   4.989   1.165 -0.0958 -0.5215  0.1551
10429TIP3    H152778   5.108   4.994   1.080 -1.8771  0.8448 -0.7571
10429TIP3    H252779   5.118   4.929   1.216  1.4908 -0.7424 -1.6516
10430TIP3   OH252780   1.900   0.907  10.562 -0.2245  0.0488 -0.5434
10430TIP3    H152781   1.917   0.979  10.623  0.9683 -0.7003  0.0362
10430TIP3    H252782   1.875   0.951  10.481 -2.8042  1.0556  0.6957
10431TIP3   OH252783   2.335   4.234  11.764 -0.1211  0.0712 -0.0797
10431TIP3    H152784   2.360   4.269  11.678  0.6514 -0.8842 -0.2619
10431TIP3    H252785   2.250   4.274  11.782 -0.9198 -0.7057 -1.8891
10432TIP3   OH252786   1.228   6.589  11.392 -0.3930 -0.1437 -0.2542
10432TIP3    H152787   1.167   6.578  11.466  0.2324 -0.9525  0.1614
10432TIP3    H252788   1.181   6.555  11.317 -0.9864  0.5554 -0.2100
10433TIP3   OH252789   3.632   4.121  13.458  0.1641 -0.0870  0.2607
10433TIP3    H152790   3.634   4.203  13.408  0.6482  0.4053  1.0682
10433TIP3    H252791   3.575   4.139  13.532  0.8657 -0.2241  0.8500
10434TIP3   OH252792   1.959   4.627   4.836 -0.7742  0.0618 -0.2978
10434TIP3    H152793   1.982   4.661   4.750  1.1284  2.1049  0.9144
10434TIP3    H252794   1.874   4.668   4.856  0.2847  2.2707  0.0560
10435TIP3   OH252795   6.419   1.045   3.340 -0.5605 -0.4265  0.6679
10435TIP3    H152796   6.354   0.980   3.365 -0.0913 -0.8621  0.7692
10435TIP3    H252797   6.404   1.119   3.399 -0.6478 -0.7155  1.0057
10436TIP3   OH252798   5.234   4.874  14.734 -0.2327 -0.4956 -0.3591
10436TIP3    H152799   5.275   4.877  14.648  1.0364 -0.0611  0.2302
10436TIP3    H252800   5.213   4.965  14.754  0.5085 -0.4419  0.2382
10437TIP3   OH252801   3.869   1.064   3.716 -0.7251 -0.5356 -0.2634
10437TIP3    H152802   3.881   1.046   3.623 -2.7804 -1.8248 -0.3416
10437TIP3    H252803   3.913   0.991   3.760 -1.0653 -0.7612 -0.2904
10438TIP3   OH252804   4.962   3.286   3.311 -0.1784  0.2139 -0.1303
10438TIP3    H152805   5.009   3.365   3.286 -1.4859  1.0251 -0.0941
10438TIP3    H252806   4.893   3.316   3.370 -1.1464 -0.8541 -0.6839
10439TIP3   OH252807   5.522   1.930  16.467 -0.2291  0.4365 -0.4769
10439TIP3    H152808   5.609   1.968  16.475 -0.2088  0.1662  0.8388
10439TIP3    H252809   5.502   1.933  16.374  0.6353  1.7210 -0.6319
10440TIP3   OH252810   4.060   4.592   4.291  0.1909 -0.1690 -0.3297
10440TIP3    H152811   4.152   4.571   4.310 -0.1720 -1.4533  0.0775
10440TIP3    H252812   4.019   4.598   4.377 -0.7714 -2.8080 -0.5066
10441TIP3   OH252813   0.897   0.966   5.039  0.4777  0.1965  0.2908
10441TIP3    H152814   0.828   0.989   4.978  0.3443 -0.9848 -0.0371
10441TIP3    H252815   0.852   0.950   5.122  0.2223 -1.3452 -0.1145
10442TIP3   OH252816   1.414   3.219   0.947 -0.2428 -0.2478  0.6540
10442TIP3    H152817   1.407   3.125   0.963  0.9435 -0.1748  1.7965
10442TIP3    H252818   1.377   3.259   1.026 -2.3802  0.3128 -0.5543
10443TIP3   OH252819   2.265   4.330  14.270 -0.4540 -0.5281  0.1692
10443TIP3    H152820   2.302   4.252  14.311 -0.4050  0.1411  1.4315
10443TIP3    H252821   2.258   4.394  14.341 -2.2362  0.0084 -0.4437
10444TIP3   OH252822   4.740   0.502  16.646 -0.3174 -0.2650 -0.0242
10444TIP3    H152823   4.722   0.481  16.738  2.3401 -0.8707  0.4269
10444TIP3    H252824   4.768   0.594  16.647 -0.1604 -0.3107 -0.2085
10445TIP3   OH252825   6.172   6.581  15.074 -0.1608 -0.6991 -0.5624
10445TIP3    H152826   6.254   6.543  15.104  1.0255  1.9288 -0.2166
10445TIP3    H252827   6.117   6.587  15.152  0.3582 -0.0145 -0.2471
10446TIP3   OH252828   5.201   4.071   4.911  0.1259  0.2244 -0.0645
10446TIP3    H152829   5.135   4.009   4.881  1.0968 -1.2266  0.6878
10446TIP3    H252830   5.268   4.017   4.954  0.9803  1.7931  0.6894
10447TIP3   OH252831   0.666   5.952  14.258 -0.0397  0.3105 -0.2516
10447TIP3    H152832   0.612   5.898  14.315  0.6774 -0.3750 -0.1939
10447TIP3    H252833   0.663   5.907  14.173  2.3859 -1.1638  0.3504
10448TIP3   OH252834   2.328   3.396  15.776  0.1701 -0.5614  0.1185
10448TIP3    H152835   2.399   3.393  15.840  1.3270 -0.0307 -1.0934
10448TIP3    H252836   2.303   3.489  15.771 -2.8567 -1.0587  2.8295
10449TIP3   OH252837   2.956   1.264  11.798  0.1206  0.2467 -0.9159
10449TIP3    H152838   2.968   1.328  11.868 -0.6812  0.6529 -1.1356
10449TIP3    H252839   2.941   1.318  11.720 -0.8373 -0.2004 -1.0560
10450TIP3   OH252840   5.191   5.878  14.903  0.0956  0.3585  0.3568
10450TIP3    H152841   5.176   5.853  14.812  0.9618 -0.8924  0.5312
10450TIP3    H252842   5.183   5.974  14.904  0.0895  0.3853 -1.0243
10451TIP3   OH252843   4.739   5.333   5.650  0.2330  0.0780  0.2757
10451TIP3    H152844   4.674   5.268   5.624  0.2959 -0.0036  0.3216
10451TIP3    H252845   4.690   5.415   5.658 -0.0883 -0.2125  1.4847
10452TIP3   OH252846   4.005   0.873   4.753  0.3302 -0.0436 -0.0339
10452TIP3    H152847   4.073   0.932   4.786 -0.1959  0.0965  0.8290
10452TIP3    H252848   3.925   0.902   4.796  0.1215 -1.5858  0.6674
10453TIP3   OH252849   0.531   2.745   0.325  0.9180 -0.0084  0.0116
10453TIP3    H152850   0.554   2.819   0.382  1.3484  0.0704 -0.2598
10453TIP3    H252851   0.578   2.763   0.243  0.1984 -0.0474 -0.4170
10454TIP3   OH252852   0.276   1.677  12.144  0.2872 -0.1269  0.1450
10454TIP3    H152853   0.185   1.646  12.141  0.1977  0.1489 -0.0209
10454TIP3    H252854   0.306   1.652  12.231  0.4154 -1.2281 -0.1928
10455TIP3   OH252855   5.776   5.048   4.380 -0.1847  0.1996 -0.1393
10455TIP3    H152856   5.724   5.088   4.449 -3.2956 -0.7976 -1.6924
10455TIP3    H252857   5.766   5.107   4.305 -0.9639 -1.0642 -1.0884
10456TIP3   OH252858   5.922   5.256   2.297 -0.1143  0.2373  0.0598
10456TIP3    H152859   5.944   5.226   2.209  0.6176  2.3159 -0.5341
10456TIP3    H252860   5.965   5.341   2.304 -1.2524  0.7037  1.9547
10457TIP3   OH252861   0.332   5.706   5.297 -0.2765 -0.2576 -0.3270
10457TIP3    H152862   0.416   5.746   5.274 -0.9524  0.2980 -1.9130
10457TIP3    H252863   0.321   5.635   5.234 -0.3870 -1.2228  0.7404
10458TIP3   OH252864   5.230   5.153  14.877 -0.6316  0.3058  0.2009
10458TIP3    H152865   5.166   5.118  14.939 -0.5642 -1.5961 -0.7269
10458TIP3    H252866   5.179   5.211  14.820 -0.9955  0.8365  1.0577
10459TIP3   OH252867   5.949   3.402  13.474  0.4627 -0.7638 -0.0026
10459TIP3    H152868   5.963   3.478  13.532  1.1180 -0.5603 -0.4246
10459TIP3    H252869   5.865   3.420  13.432 -0.2772 -1.1562  1.2527
10460TIP3   OH252870   6.655   5.513  13.562 -0.2869  0.0039  0.0249
10460TIP3    H152871   6.591   5.553  13.622 -0.0225  1.2060 -0.4615
10460TIP3    H252872   6.651   5.420  13.582 -2.8621 -0.0859 -0.6238
10461TIP3   OH252873   3.385   6.242  15.023  0.1372 -0.1181  0.3182
10461TIP3    H152874   3.357   6.168  15.077 -0.0572  0.2478  0.7251
10461TIP3    H252875   3.479   6.227  15.009 -0.1589 -1.1777 -0.7766
10462TIP3   OH252876   4.460   1.247  12.479  0.1717 -0.1549 -0.0972
10462TIP3    H152877   4.373   1.217  12.451 -0.2648 -0.5349  1.5576
10462TIP3    H252878   4.491   1.178  12.538  2.4537 -0.9823 -2.1048
10463TIP3   OH252879   3.966   1.235   1.113  0.0516 -0.6061  0.4213
10463TIP3    H152880   3.878   1.268   1.131 -0.7777 -2.7529  0.7316
10463TIP3    H252881   4.017   1.258   1.191  0.2046  1.8921 -0.3533
10464TIP3   OH252882   6.110   4.103   3.129 -0.1796  0.1230  0.3940
10464TIP3    H152883   6.179   4.157   3.166  0.2834  0.1278 -0.4454
10464TIP3    H252884   6.129   4.100   3.035 -1.3633  0.1868  0.1278
10465TIP3   OH252885   6.042   0.498   2.322  0.0795  0.1286 -0.1680
10465TIP3    H152886   6.051   0.435   2.393 -3.3909  0.1979  0.5147
10465TIP3    H252887   6.101   0.570   2.346  0.5107 -0.7444  1.5495
10466TIP3   OH252888   4.352   4.480  11.403 -0.4773 -0.5459  0.2279
10466TIP3    H152889   4.388   4.414  11.462  2.3022  0.0828 -0.6308
10466TIP3    H252890   4.366   4.443  11.315 -0.1409  0.5681 -0.2055
10467TIP3   OH252891   0.657   2.847  13.863 -0.6868  0.1151 -0.2197
10467TIP3    H152892   0.655   2.890  13.777  0.7448  2.1798  0.6959
10467TIP3    H252893   0.590   2.892  13.914  1.0601  1.6562  0.8552
10468TIP3   OH252894   4.798   4.354   3.296  0.0641 -0.0718 -0.0266
10468TIP3    H152895   4.869   4.294   3.274  1.2295  1.7918 -1.7065
10468TIP3    H252896   4.739   4.351   3.220 -0.6263 -0.1508  0.5012
10469TIP3   OH252897   5.432   1.988   2.975 -0.1569  0.5532  0.1803
10469TIP3    H152898   5.403   2.077   2.953 -0.7028  0.6305  1.1854
10469TIP3    H252899   5.396   1.934   2.904  2.3607  1.4176 -1.9367
10470TIP3   OH252900   6.474   3.951  16.647  0.3086  0.3257 -0.3788
10470TIP3    H152901   6.421   4.022  16.611  0.2975  1.4852  1.7415
10470TIP3    H252902   6.414   3.876  16.651 -0.4055  0.8825 -0.4083
10471TIP3   OH252903   0.378   3.633   0.157  0.1828 -0.2231 -0.3111
10471TIP3    H152904   0.333   3.717   0.153  0.8165  0.0732 -2.0050
10471TIP3    H252905   0.319   3.571   0.116  0.8198 -0.0337 -1.5820
10472TIP3   OH252906   3.190   3.501   3.154  0.1787 -0.2134 -0.0958
10472TIP3    H152907   3.149   3.453   3.082  1.0889 -0.2752 -0.5845
10472TIP3    H252908   3.143   3.584   3.157 -0.9039 -0.8218  0.2671
10473TIP3   OH252909   0.586   2.531   1.790 -0.1624  0.3211 -0.4210
10473TIP3    H152910   0.558   2.619   1.766  1.7905  0.7133 -1.4457
10473TIP3    H252911   0.511   2.475   1.768 -2.9496  1.9909  3.5803
10474TIP3   OH252912   0.183   1.298  14.936 -0.6028 -0.6409  0.2475
10474TIP3    H152913   0.231   1.219  14.960  0.1122  0.1634  1.6524
10474TIP3    H252914   0.236   1.338  14.866  0.0874 -0.4441  0.8655
10475TIP3   OH252915   4.004   1.701  11.959  0.3016  0.3859 -0.3075
10475TIP3    H152916   4.004   1.607  11.975 -2.0313  0.1683 -1.0933
10475TIP3    H252917   3.997   1.741  12.046 -0.1369 -0.2312 -0.0531
10476TIP3   OH252918   1.919   0.533   5.462  0.5321 -0.1763  0.2374
10476TIP3    H152919   1.854   0.602   5.448  2.4483  1.8627  0.6408
10476TIP3    H252920   1.931   0.531   5.557  0.3093 -1.2678  0.2454
10477TIP3   OH252921   4.764   1.052  15.950 -1.0420  0.3380  0.3282
10477TIP3    H152922   4.770   1.104  16.030  0.7565  0.9543 -0.1433
10477TIP3    H252923   4.814   1.103  15.885  0.4076 -1.7118 -0.2690
10478TIP3   OH252924   5.666   4.902  16.040  0.1430 -0.1018 -0.4644
10478TIP3    H152925   5.653   4.808  16.034 -0.8903 -0.1303  1.4382
10478TIP3    H252926   5.674   4.931  15.949 -1.4153 -1.7688 -1.1886
10479TIP3   OH252927   5.211   1.454   0.185  0.6706 -0.1277 -0.1119
10479TIP3    H152928   5.214   1.367   0.144 -0.6828 -1.4122  2.2795
10479TIP3    H252929   5.273   1.448   0.258 -2.5771 -0.7697  2.8420
10480TIP3   OH252930   4.690   6.467   2.769  0.5432  0.8078  0.7176
10480TIP3    H152931   4.640   6.462   2.688  0.3361  0.1697  0.8798
10480TIP3    H252932   4.633   6.429   2.835  0.9827  0.6803  1.0313
10481TIP3   OH252933   5.198   2.685   4.373 -0.0912  0.1878  0.3159
10481TIP3    H152934   5.104   2.689   4.388  0.1782  0.8481  2.1184
10481TIP3    H252935   5.235   2.654   4.456  1.5699  3.9954  1.2595
10482TIP3   OH252936   1.591   6.511  16.447  0.3531 -0.4756  0.1378
10482TIP3    H152937   1.563   6.448  16.381 -0.9964 -1.2022  1.3561
10482TIP3    H252938   1.676   6.543  16.415 -0.0394 -1.1372 -1.6839
10483TIP3   OH252939   2.815   1.462   2.485  0.1031  0.0979 -0.2038
10483TIP3    H152940   2.909   1.449   2.469  0.1697  0.5394 -0.2019
10483TIP3    H252941   2.774   1.383   2.452  0.5342 -0.3680  0.3654
10484TIP3   OH252942   6.394   3.597  16.602  1.1644 -0.1304  0.0724
10484TIP3    H152943   6.477   3.567  16.637  0.8728 -1.5138 -0.3491
10484TIP3    H252944   6.410   3.609  16.508  1.2421  0.9610  0.2130
10485TIP3   OH252945   0.821   0.145   4.064 -0.2744 -0.0273  0.3774
10485TIP3    H152946   0.900   0.196   4.083  0.5498 -0.8176 -0.8169
10485TIP3    H252947   0.841   0.057   4.096 -0.7360 -0.1898  0.2243
10486TIP3   OH252948   6.644   1.258  13.069  0.2847 -0.2991  0.1199
10486TIP3    H152949   6.709   1.324  13.048 -0.2619  0.0467 -0.5210
10486TIP3    H252950   6.652   1.193  12.999 -0.4370  0.0303 -0.2754
10487TIP3   OH252951   5.297   6.506   5.641  0.4288 -0.0598 -0.6354
10487TIP3    H152952   5.263   6.590   5.672 -0.9652  0.6304 -3.6420
10487TIP3    H252953   5.221   6.447   5.645  0.3780 -0.1219 -1.9254
10488TIP3   OH252954   0.734   2.115  11.810  0.2635  0.2408  0.8438
10488TIP3    H152955   0.779   2.152  11.734 -0.3532 -1.0838 -0.2239
10488TIP3    H252956   0.708   2.190  11.863 -0.7818  1.3451 -1.1218
10489TIP3   OH252957   5.079   2.002   2.331  0.7516  0.5897  0.1270
10489TIP3    H152958   5.156   1.999   2.387  0.2818 -3.3278  0.8664
10489TIP3    H252959   5.091   1.929   2.270 -2.3795 -0.3275  0.4198
10490TIP3   OH252960   6.320   6.085  10.755  0.1382 -0.2588 -0.1721
10490TIP3    H152961   6.393   6.023  10.762 -0.2776 -0.7633 -0.2520
10490TIP3    H252962   6.323   6.113  10.664  0.5060  0.0622 -0.0639
10491TIP3   OH252963   5.719   2.550   5.843  0.5111  0.3620  0.7282
10491TIP3    H152964   5.665   2.489   5.892 -0.8262  1.9955  1.3741
10491TIP3    H252965   5.702   2.635   5.883  1.4717  1.3413 -0.8324
10492TIP3   OH252966   2.537   2.266   4.001  0.5423 -0.2763 -0.3374
10492TIP3    H152967   2.594   2.214   3.944 -0.0179 -0.1805 -1.0029
10492TIP3    H252968   2.522   2.211   4.078  1.0836 -0.5236 -0.4020
10493TIP3   OH252969   6.473   2.563   0.019 -0.4982 -0.0938 -0.1244
10493TIP3    H152970   6.467   2.468   0.033  2.2781 -0.4430 -0.8488
10493TIP3    H252971   6.447   2.575  -0.073  2.8857 -0.7584 -1.2878
10494TIP3   OH252972   1.444   0.145  10.465  0.2963 -0.4065 -0.4501
10494TIP3    H152973   1.470   0.085  10.535 -2.4368  0.4917  1.5129
10494TIP3    H252974   1.359   0.112  10.435  0.0482  0.8879 -1.2609
10495TIP3   OH252975   0.079   1.274  14.097 -0.0837  0.5416  0.3961
10495TIP3    H152976   0.116   1.249  14.182  0.2597 -1.3948 -0.2640
10495TIP3    H252977   0.007   1.212  14.083 -0.1931  0.8863 -0.6773
10496TIP3   OH252978   3.866   2.344   5.561  0.1900  0.0822  0.9123
10496TIP3    H152979   3.935   2.355   5.496 -0.6822  1.1830  0.1311
10496TIP3    H252980   3.911   2.347   5.645  1.2110 -0.3196  0.4025
10497TIP3   OH252981   2.273   6.574   4.247  0.2949  0.1035  0.1498
10497TIP3    H152982   2.351   6.596   4.197 -0.3013 -0.7524 -1.1996
10497TIP3    H252983   2.303   6.573   4.338  1.5055  1.2201 -0.2012
10498TIP3   OH252984   4.260   2.920  12.136 -0.0465 -0.3197 -0.4395
10498TIP3    H152985   4.292   2.919  12.046 -2.2035  2.0917 -1.3335
10498TIP3    H252986   4.312   2.988  12.179 -0.9621  0.5649 -0.7012
10499TIP3   OH252987   1.301   2.530  11.795  0.1302  0.8286  0.1016
10499TIP3    H152988   1.238   2.547  11.864  1.2084 -0.4658  1.4776
10499TIP3    H252989   1.385   2.560  11.831  0.5476  1.1439 -1.0898
10500TIP3   OH252990   3.254   3.646  10.500 -0.1727  0.1292  0.0484
10500TIP3    H152991   3.225   3.734  10.473 -0.1004 -0.0225 -0.5322
10500TIP3    H252992   3.322   3.623  10.437 -0.2755 -0.3957  0.1299
10501TIP3   OH252993   1.630   4.493  16.187 -0.1715 -0.3841  0.5682
10501TIP3    H152994   1.679   4.568  16.154  1.1845 -1.6744 -0.5234
10501TIP3    H252995   1.538   4.518  16.180  0.2163  0.7541 -0.8087
10502TIP3   OH252996   5.654   1.825  13.882 -0.4327 -0.4208 -0.5974
10502TIP3    H152997   5.636   1.812  13.789  0.5368 -0.5741 -0.7668
10502TIP3    H252998   5.743   1.792  13.895  0.7864  2.6456 -0.3023
10503TIP3   OH252999   4.756   0.636  12.938  0.0076  0.5159 -0.1470
10503TIP3    H153000   4.728   0.626  13.029  1.9273  1.0351  0.5537
10503TIP3    H253001   4.757   0.547  12.902  0.1078  0.2113  0.6094
10504TIP3   OH253002   3.324   3.633  15.101 -0.0724  0.1913  0.3332
10504TIP3    H153003   3.310   3.541  15.123 -1.5636  0.2984 -0.0631
10504TIP3    H253004   3.260   3.680  15.154  0.9128  1.0497  0.7985
10505TIP3   OH253005   6.199   5.565  13.649 -0.1774 -0.1321  0.0475
10505TIP3    H153006   6.142   5.643  13.648 -1.0369 -0.7471 -1.4096
10505TIP3    H253007   6.204   5.541  13.741  0.0150  1.5717  0.5277
10506TIP3   OH253008   3.492   1.243   2.167  0.4791 -0.0351  0.1742
10506TIP3    H153009   3.573   1.196   2.147  0.5725  0.0464  0.3656
10506TIP3    H253010   3.503   1.274   2.257 -0.5959 -1.7972  0.9733
10507TIP3   OH253011   1.094   6.120  17.084  0.7203  0.2888 -0.0487
10507TIP3    H153012   1.003   6.147  17.071  0.8638  0.8086  0.0054
10507TIP3    H253013   1.089   6.026  17.098  0.1958  0.3022 -0.1255
10508TIP3   OH253014   2.131   4.776   1.244  0.2180 -0.5011  0.2358
10508TIP3    H153015   2.105   4.868   1.234  0.2111 -0.5987 -0.6581
10508TIP3    H253016   2.120   4.759   1.338  1.5311  0.8042  0.6749
10509TIP3   OH253017   2.323   4.488  12.097  0.8989  0.1581 -0.2690
10509TIP3    H153018   2.253   4.423  12.096  1.3016 -0.2847 -1.3586
10509TIP3    H253019   2.367   4.477  12.012  2.4723  0.2240  0.4935
10510TIP3   OH253020   4.134   1.155   1.328 -0.2101  0.0066  0.2887
10510TIP3    H153021   4.168   1.207   1.400  0.2383  2.1091 -1.3689
10510TIP3    H253022   4.206   1.098   1.303 -0.5321 -1.1291  1.7524
10511TIP3   OH253023   3.335   3.755  14.032  0.1850 -0.6408  0.0343
10511TIP3    H153024   3.345   3.841  13.989 -1.1266  0.4212  1.7091
10511TIP3    H253025   3.241   3.750  14.052  0.3742 -2.1566  0.6058
10512TIP3   OH253026   0.792   2.358  12.359 -0.4382  0.1098 -0.3227
10512TIP3    H153027   0.762   2.349  12.449  0.1746 -0.0263 -0.1338
10512TIP3    H253028   0.715   2.391  12.312 -1.1433 -1.0103 -0.0010
10513TIP3   OH253029   3.272   6.317  13.255 -0.5813  0.4550 -0.8042
10513TIP3    H153030   3.297   6.362  13.175 -2.6122  0.9687 -1.2053
10513TIP3    H253031   3.196   6.264  13.230 -0.9476  0.2450  0.6563
10514TIP3   OH253032   6.258   6.310   3.427 -0.4697  0.6818 -0.0752
10514TIP3    H153033   6.283   6.295   3.518 -0.7901 -0.3665 -0.1429
10514TIP3    H253034   6.205   6.390   3.429 -1.6633 -0.0944  0.8907
10515TIP3   OH253035   3.922   6.073   2.513 -0.0243  0.2132  0.2935
10515TIP3    H153036   3.903   6.146   2.572 -2.0558 -0.1818  0.1930
10515TIP3    H253037   3.942   6.114   2.429  0.1001  0.6966  0.5561
10516TIP3   OH253038   6.594   3.256   0.391  0.1519 -0.2251  0.0555
10516TIP3    H153039   6.678   3.278   0.431  0.3204 -1.3838  0.3741
10516TIP3    H253040   6.601   3.163   0.371 -0.7569 -0.1491 -0.6664
10517TIP3   OH253041   0.942   5.354   5.168 -0.8087  0.4792 -0.2762
10517TIP3    H153042   0.888   5.392   5.098 -2.7431 -3.4692 -1.2112
10517TIP3    H253043   1.021   5.324   5.124 -0.0229  1.8544  0.1495
10518TIP3   OH253044   1.536   3.013  13.269  0.1170 -0.0068  0.3536
10518TIP3    H153045   1.494   2.931  13.297  1.0787 -0.5443  0.2652
10518TIP3    H253046   1.618   2.985  13.229 -0.0382  0.9372 -0.6698
10519TIP3   OH253047   2.613   0.290  15.587  0.3788  0.2767  0.0168
10519TIP3    H153048   2.567   0.314  15.507  1.6621  2.9705 -0.0181
10519TIP3    H253049   2.545   0.283  15.653 -0.4630  0.1627 -0.8443
10520TIP3   OH253050   2.534   0.004  12.725 -0.3557  0.1461 -0.0950
10520TIP3    H153051   2.556   0.087  12.767  1.5283 -0.8259  0.9624
10520TIP3    H253052   2.497   0.028  12.641  0.0643  2.0498  0.2353
10521TIP3   OH253053   3.302   0.902   4.029  0.1711  0.7425 -0.3497
10521TIP3    H153054   3.345   0.982   4.059 -1.0886  0.9226  1.1071
10521TIP3    H253055   3.320   0.899   3.935  2.3805  1.3740  0.0049
10522TIP3   OH253056   1.554   0.472   5.585  0.5620  0.2823  0.4679
10522TIP3    H153057   1.576   0.499   5.675  0.7301  1.8993 -0.0278
10522TIP3    H253058   1.622   0.511   5.531  0.3526 -0.5193 -0.3917
10523TIP3   OH253059   5.119   5.442  13.413 -0.1827  0.1583  0.1414
10523TIP3    H153060   5.155   5.461  13.326 -1.5406 -0.0516 -0.4907
10523TIP3    H253061   5.127   5.348  13.423  0.4822  0.2504  0.4791
10524TIP3   OH253062   1.360   6.620   6.487  0.2923  1.5555  0.1909
10524TIP3    H153063   1.319   6.647   6.405  0.3096  1.4683  0.1531
10524TIP3    H253064   1.437   6.677   6.494 -0.0913  2.0460  0.5024
10525TIP3   OH253065   0.017   2.326   5.259  0.1435 -0.4260  0.0721
10525TIP3    H153066   0.003   2.331   5.353 -0.8704  0.3723 -0.0983
10525TIP3    H253067   0.019   2.233   5.239 -0.3702 -0.5953  0.7894
10526TIP3   OH253068   2.372   0.629   2.705  0.1603  0.2299  0.1407
10526TIP3    H153069   2.443   0.615   2.643  0.1001  1.3777 -0.2028
10526TIP3    H253070   2.292   0.617   2.654 -0.0521  5.2919 -1.2809
10527TIP3   OH253071   5.565   4.531   6.466 -0.0924 -0.5932  0.3321
10527TIP3    H153072   5.484   4.568   6.432  0.8249 -0.7693 -2.2059
10527TIP3    H253073   5.549   4.437   6.469 -0.2006 -0.5711  0.4616
10528TIP3   OH253074   5.216   2.338   4.997  0.0143  0.1748 -0.0891
10528TIP3    H153075   5.169   2.272   4.946 -0.5707  0.0476  0.5897
10528TIP3    H253076   5.176   2.333   5.084  1.8859 -0.5421  0.7746
10529TIP3   OH253077   0.075   1.152   2.894 -0.1088 -0.4173  0.1943
10529TIP3    H153078   0.068   1.136   2.800  0.4111  0.3764  0.0121
10529TIP3    H253079   0.022   1.230   2.909  0.2964 -0.1890  0.4554
10530TIP3   OH253080   2.772   1.658  16.163  0.2543 -0.0322 -0.4690
10530TIP3    H153081   2.742   1.582  16.213 -2.9996  0.7271 -1.0234
10530TIP3    H253082   2.750   1.637  16.072 -0.1250  1.2795 -0.7014
10531TIP3   OH253083   4.263   2.153   0.429 -0.5522 -0.2529 -0.7020
10531TIP3    H153084   4.248   2.246   0.412  1.3396  0.3180  0.4467
10531TIP3    H253085   4.176   2.118   0.450 -1.4457  1.0110 -2.0580
10532TIP3   OH253086   4.822   4.805  13.599  0.2855  0.5268 -0.1603
10532TIP3    H153087   4.750   4.780  13.541 -0.3340  0.4114  0.6339
10532TIP3    H253088   4.834   4.899  13.583 -0.1629  0.5839 -0.1797
10533TIP3   OH253089   6.425   5.468   0.715 -0.0188 -0.3562 -0.6112
10533TIP3    H153090   6.362   5.412   0.760  0.7851 -0.1348  0.8287
10533TIP3    H253091   6.379   5.494   0.635 -2.2123  0.6481  0.8638
10534TIP3   OH253092   5.472   0.836  13.096  0.1537  0.5596  0.3892
10534TIP3    H153093   5.459   0.915  13.043  0.2656 -0.0205 -0.5150
10534TIP3    H253094   5.402   0.777  13.068  1.3819 -0.4961 -0.5317
10535TIP3   OH253095   3.986   2.208  13.984  0.8064 -0.0657 -0.4222
10535TIP3    H153096   4.032   2.192  14.066  0.4728  0.5531 -0.1121
10535TIP3    H253097   3.895   2.182  14.003  0.4274  1.3887 -0.1618
10536TIP3   OH253098   0.873   0.738   0.325  0.6664 -0.0441  0.0802
10536TIP3    H153099   0.906   0.681   0.255 -1.8203 -0.3623 -0.9246
10536TIP3    H253100   0.805   0.687   0.368  1.4591  0.5316  2.1463
10537TIP3   OH253101   4.178   0.474  14.266 -0.3211 -0.0059  0.0314
10537TIP3    H153102   4.166   0.506  14.356  1.0894  0.1094  0.2038
10537TIP3    H253103   4.268   0.499  14.244 -1.3944  2.2001 -2.3520
10538TIP3   OH253104   1.454   5.515   0.919 -0.6658 -0.2101 -0.2254
10538TIP3    H153105   1.403   5.442   0.952 -0.3586  0.5160  2.0062
10538TIP3    H253106   1.493   5.555   0.997  1.9872  0.2523 -1.6513
10539TIP3   OH253107   6.695   1.623  14.186 -0.0240  0.6499  0.1722
10539TIP3    H153108   6.663   1.698  14.236  0.9363  1.3264 -0.1940
10539TIP3    H253109   6.737   1.566  14.251 -0.3369  0.6588  0.3835
10540TIP3   OH253110   3.533   2.132  11.836  0.0796  0.1000 -0.3557
10540TIP3    H153111   3.446   2.101  11.860  0.0995  1.7230  2.2179
10540TIP3    H253112   3.520   2.182  11.755 -0.6745 -2.5499 -1.9942
10541TIP3   OH253113   3.782   6.524  15.723 -0.1687  0.0688  0.1747
10541TIP3    H153114   3.835   6.603  15.710 -1.1448  0.6013 -0.7514
10541TIP3    H253115   3.768   6.519  15.817 -0.8546  1.5393  0.1718
10542TIP3   OH253116   3.250   4.947  13.922 -0.2656 -0.4418 -0.1393
10542TIP3    H153117   3.229   4.889  13.849 -0.9026 -0.0391 -0.2765
10542TIP3    H253118   3.322   4.902  13.967 -1.0445 -1.5699  0.0364
10543TIP3   OH253119   1.165   4.936   4.708 -0.3593 -0.1663 -0.9053
10543TIP3    H153120   1.257   4.932   4.734 -0.4913 -0.0633 -0.4097
10543TIP3    H253121   1.159   4.880   4.631 -0.5043 -2.8905  0.9122
10544TIP3   OH253122   5.512   0.228   4.914 -0.4842 -0.4619  0.3168
10544TIP3    H153123   5.476   0.170   4.847 -1.7068  3.8191 -3.1796
10544TIP3    H253124   5.604   0.204   4.920 -0.8236 -2.3866 -1.3068
10545TIP3   OH253125   4.738   3.811   3.746  0.2582 -0.0020 -0.6875
10545TIP3    H153126   4.728   3.893   3.794  0.1546 -0.1760 -0.4114
10545TIP3    H253127   4.827   3.816   3.709  0.3727  0.0936 -0.4048
10546TIP3   OH253128   5.028   4.680   1.026  0.1809 -0.1892 -0.3098
10546TIP3    H153129   5.109   4.714   1.063  0.5565 -0.7102 -0.6450
10546TIP3    H253130   4.984   4.757   0.990 -0.2276  0.3533  1.2477
10547TIP3   OH253131   4.442   0.545  13.637  0.2554 -0.0142  0.1159
10547TIP3    H153132   4.370   0.568  13.695  0.7011  2.1592 -0.0988
10547TIP3    H253133   4.521   0.571  13.685  0.8319 -1.1276 -0.1931
10548TIP3   OH253134   3.927   5.405   4.481 -0.7940 -0.1823 -0.3432
10548TIP3    H153135   3.856   5.437   4.536 -0.3529  0.4710 -0.1441
10548TIP3    H253136   3.992   5.475   4.482 -0.4742 -0.4522 -1.1362
10549TIP3   OH253137   5.786   0.996   6.416  0.0202 -0.5436 -0.1313
10549TIP3    H153138   5.803   0.938   6.490  2.0890  0.1019 -0.0201
10549TIP3    H253139   5.823   0.950   6.340  0.0139 -0.1910 -0.3523
10550TIP3   OH253140   0.230   0.085  16.641  0.1145  0.2818  0.2870
10550TIP3    H153141   0.195   0.060  16.556 -1.8218 -0.2159  1.1958
10550TIP3    H253142   0.242   0.002  16.688 -0.3827  0.6410  1.0695
10551TIP3   OH253143   3.779   4.163   1.226 -0.2849 -0.2452 -0.3520
10551TIP3    H153144   3.853   4.211   1.188  0.8251 -0.2496  1.6838
10551TIP3    H253145   3.820   4.100   1.285 -1.8554 -1.7365 -0.7876
10552TIP3   OH253146   0.885   2.012   1.622 -0.1932  0.1662 -0.5514
10552TIP3    H153147   0.939   1.955   1.567 -0.4074 -1.6691  0.9961
10552TIP3    H253148   0.934   2.020   1.704 -0.7872  1.1484 -0.2738
10553TIP3   OH253149   1.199   6.729  13.780  0.3402  0.1132 -0.0716
10553TIP3    H153150   1.115   6.684  13.793  0.0393  0.2277 -1.4759
10553TIP3    H253151   1.241   6.679  13.710  0.4504  1.3953 -0.9483
10554TIP3   OH253152   0.494   2.016   2.694  0.2584 -0.1481 -0.7661
10554TIP3    H153153   0.420   1.957   2.705 -0.7525  1.3076  0.6109
10554TIP3    H253154   0.511   2.016   2.600 -1.8135 -0.1448 -1.1755
10555TIP3   OH253155   1.338   6.679   2.456 -0.0101  0.2763  0.3374
10555TIP3    H153156   1.405   6.612   2.473  0.7453  1.3534  1.8189
10555TIP3    H253157   1.366   6.721   2.375 -0.4421 -1.1006 -0.5646
10556TIP3   OH253158   2.458   4.575   5.214  0.2008  0.6882  0.1452
10556TIP3    H153159   2.379   4.609   5.170  0.6157  0.7870 -0.5458
10556TIP3    H253160   2.458   4.618   5.299 -0.2764  1.0068 -0.0066
10557TIP3   OH253161   3.865   3.837   2.381  0.3229  0.5732  0.1629
10557TIP3    H153162   3.918   3.792   2.447 -0.6357 -0.6595  0.1232
10557TIP3    H253163   3.784   3.860   2.426  0.9760  2.7629  0.3198
10558TIP3   OH253164   3.944   1.569   4.764 -0.2010 -0.1221  0.0375
10558TIP3    H153165   3.880   1.601   4.829 -1.9035 -1.4763 -0.8781
10558TIP3    H253166   3.931   1.474   4.763  0.6859 -0.2546 -1.3678
10559TIP3   OH253167   6.795   1.526  16.835  0.3624 -0.0566  0.4925
10559TIP3    H153168   6.831   1.489  16.754  0.6499  2.9629 -0.8916
10559TIP3    H253169   6.846   1.606  16.849 -0.6541  0.2449  2.9008
10560TIP3   OH253170   1.732   1.718   1.639 -0.3878  0.4048 -0.3048
10560TIP3    H153171   1.651   1.669   1.623 -0.1132  0.0519 -0.6169
10560TIP3    H253172   1.797   1.676   1.582 -0.4008  1.7997 -1.3967
10561TIP3   OH253173   0.882   3.687  13.405 -0.5902 -0.2690  0.3830
10561TIP3    H153174   0.913   3.772  13.373  0.3476 -0.1482  1.5084
10561TIP3    H253175   0.929   3.623  13.352  1.1896 -0.0757  1.6353
10562TIP3   OH253176   1.357   1.624  14.082 -0.4536 -0.2139 -0.8111
10562TIP3    H153177   1.364   1.719  14.092 -0.5536 -0.3469  0.8207
10562TIP3    H253178   1.263   1.607  14.084 -0.4097 -0.4208 -0.0104
10563TIP3   OH253179   1.461   0.686   1.850 -0.2360  0.6014 -0.4290
10563TIP3    H153180   1.526   0.712   1.915 -0.7257  2.5348 -0.6646
10563TIP3    H253181   1.467   0.590   1.848  0.8059  0.5764  1.3795
10564TIP3   OH253182   0.156   1.050  14.668  0.0399 -0.0344  0.1670
10564TIP3    H153183   0.107   1.016  14.743  2.8019 -3.8026  0.5210
10564TIP3    H253184   0.211   1.119  14.705  1.0342 -1.5268  1.5993
10565TIP3   OH253185   5.899   5.271  16.957 -0.2637 -0.4112 -0.1190
10565TIP3    H153186   5.850   5.315  16.887  0.8896  0.2642 -0.5321
10565TIP3    H253187   5.948   5.203  16.912 -0.8232 -1.0983  0.2980
10566TIP3   OH253188   5.189   5.963   2.356  0.0447  0.1065 -0.0051
10566TIP3    H153189   5.096   5.989   2.355  0.3229  1.2486 -2.1520
10566TIP3    H253190   5.237   6.046   2.360  1.0153 -0.4888  1.5028
10567TIP3   OH253191   4.292   0.094  14.103  0.2392 -0.0683  0.1010
10567TIP3    H153192   4.294   0.172  14.048  0.8323 -1.4234 -1.9144
10567TIP3    H253193   4.320   0.023  14.045 -0.6193 -1.8540  1.7495
10568TIP3   OH253194   2.311   4.946  13.712  0.0756 -0.1552 -0.2053
10568TIP3    H153195   2.234   4.895  13.737  1.3139 -1.7734  0.5054
10568TIP3    H253196   2.293   5.033  13.746 -2.6864  0.3571 -2.5769
10569TIP3   OH253197   6.709   3.272  13.016 -0.5418 -0.0438 -0.4296
10569TIP3    H153198   6.658   3.260  12.936 -0.2323 -0.7252 -0.5290
10569TIP3    H253199   6.649   3.247  13.087  0.2122 -2.8176 -0.6470
10570TIP3   OH253200   0.206   4.035  13.097 -0.8251  0.0550  0.1339
10570TIP3    H153201   0.300   4.041  13.080 -1.0688  0.4496 -1.1121
10570TIP3    H253202   0.200   3.984  13.178  0.4299 -0.5878 -0.1567
10571TIP3   OH253203   5.318   1.017  16.299 -0.4314 -0.6236  0.1022
10571TIP3    H153204   5.387   1.083  16.301  0.1471 -1.2262  1.9710
10571TIP3    H253205   5.296   1.007  16.206  0.2921  1.3093 -0.3090
10572TIP3   OH253206   0.170   6.487   2.990 -0.1549  0.0163 -0.1123
10572TIP3    H153207   0.110   6.428   3.036 -0.1760  0.4935  0.4902
10572TIP3    H253208   0.113   6.539   2.933 -0.1807 -0.2769 -0.3575
10573TIP3   OH253209   1.053   0.493  11.582 -0.0135 -0.0965 -0.4269
10573TIP3    H153210   1.014   0.561  11.636  0.5255 -0.3299  0.2748
10573TIP3    H253211   0.979   0.441  11.552 -0.3787  0.4648 -0.4952
10574TIP3   OH253212   6.224   3.469  12.064  0.6504  0.2348 -0.2095
10574TIP3    H153213   6.236   3.524  11.986  0.2329  3.1492  1.6066
10574TIP3    H253214   6.131   3.445  12.061  0.2572  1.5975  0.0756
10575TIP3   OH253215   1.617   6.772   1.336 -0.2879  0.1578 -0.3294
10575TIP3    H153216   1.620   6.842   1.401  0.9211 -0.1757  0.0059
10575TIP3    H253217   1.531   6.732   1.347 -0.2101  0.2851  0.8883
10576TIP3   OH253218   5.243   0.907   4.950 -0.3381  0.4847 -0.4760
10576TIP3    H153219   5.187   0.876   5.020 -0.1463 -0.4653 -0.7320
10576TIP3    H253220   5.249   0.834   4.889  0.5812  0.8223 -0.8181
10577TIP3   OH253221   1.764   3.780   0.338  0.5030  0.3079  0.1066
10577TIP3    H153222   1.832   3.773   0.405  0.5629  1.9031  0.2439
10577TIP3    H253223   1.754   3.690   0.305  0.1910 -0.6252  2.4986
10578TIP3   OH253224   1.193   4.924   3.328  0.4159  0.4360 -0.1704
10578TIP3    H153225   1.189   5.017   3.350  0.1769  0.7650 -1.5391
10578TIP3    H253226   1.134   4.882   3.391  1.0505  1.0974  0.9061
10579TIP3   OH253227   6.247   2.133   0.147  0.0164  0.1343 -0.0515
10579TIP3    H153228   6.250   2.040   0.171  0.8588 -0.1170 -1.0637
10579TIP3    H253229   6.203   2.134   0.062 -2.5716  0.9732  1.1973
10580TIP3   OH253230   3.986   0.878   2.210 -0.4935  0.0702 -0.2762
10580TIP3    H153231   4.047   0.849   2.143  0.5703  0.7992  0.3399
10580TIP3    H253232   3.969   0.970   2.188  1.2689  0.8674  1.3930
10581TIP3   OH253233   1.557   2.625  11.893  0.1667  0.6616 -0.4161
10581TIP3    H153234   1.582   2.534  11.875  1.6022  1.2163 -1.4693
10581TIP3    H253235   1.623   2.657  11.954 -1.4247  0.4898  1.4862
10582TIP3   OH253236   4.091   0.394   5.690  0.0645  0.0350  0.1542
10582TIP3    H153237   4.108   0.311   5.736 -0.9231  0.1762  0.7961
10582TIP3    H253238   4.120   0.461   5.752  1.9860  0.1891 -0.8282
10583TIP3   OH253239   5.581   1.217   4.015 -0.5907 -0.1425  0.0644
10583TIP3    H153240   5.567   1.189   3.925 -0.4729 -0.4026  0.1258
10583TIP3    H253241   5.494   1.220   4.054 -0.5797 -0.7062  0.1384
10584TIP3   OH253242   0.414   0.761  12.858 -0.1614 -0.0284  0.5098
10584TIP3    H153243   0.410   0.749  12.764  1.0747  0.1919  0.4034
10584TIP3    H253244   0.408   0.856  12.871 -1.0900 -0.1063  0.7161
10585TIP3   OH253245   4.858   0.162  14.275  0.2795  0.4191  0.0528
10585TIP3    H153246   4.927   0.144  14.339  0.9600  1.0561 -0.4835
10585TIP3    H253247   4.862   0.087  14.215  0.8929  0.7262 -0.2990
10586TIP3   OH253248   3.732   0.637   1.456  0.5872  0.5202  0.3736
10586TIP3    H153249   3.773   0.563   1.412 -0.3542  1.3276 -1.9883
10586TIP3    H253250   3.698   0.600   1.538  1.1878 -1.3702 -0.1815
10587TIP3   OH253251   5.967   1.792   4.435  0.3677 -0.2975 -0.2727
10587TIP3    H153252   5.925   1.715   4.395  1.6160 -1.2348  0.1353
10587TIP3    H253253   5.920   1.805   4.516 -0.3280 -0.1752 -0.6903
10588TIP3   OH253254   5.806   3.789   4.354  0.0923  0.1818 -0.1922
10588TIP3    H153255   5.815   3.876   4.314  1.7207 -0.0316 -0.3551
10588TIP3    H253256   5.790   3.807   4.447  0.3026  0.6619 -0.2432
10589TIP3   OH253257   3.133   1.815   4.807  0.2398 -0.1659 -0.9650
10589TIP3    H153258   3.194   1.880   4.842  0.0041 -1.2546  1.7480
10589TIP3    H253259   3.087   1.860   4.737  0.9096  2.1916  0.0146
10590TIP3   OH253260   1.190   0.428  14.327 -0.2419  0.1418  0.6399
10590TIP3    H153261   1.167   0.336  14.314  0.2418 -0.4602  3.3847
10590TIP3    H253262   1.107   0.475  14.321 -0.4792 -0.4140 -0.9233
10591TIP3   OH253263   1.746   5.907   6.094 -0.3427 -0.0764 -0.3151
10591TIP3    H153264   1.822   5.872   6.049  0.1581 -0.2965  0.6671
10591TIP3    H253265   1.781   5.949   6.173 -0.8085  3.4781 -1.8333
10592TIP3   OH253266   3.268   1.379   0.178 -0.2895  0.0495 -0.6265
10592TIP3    H153267   3.202   1.328   0.130  0.3410 -0.6980 -0.7138
10592TIP3    H253268   3.217   1.435   0.236 -1.0172 -0.2369 -0.9780
10593TIP3   OH253269   4.889   0.538  13.682 -0.6926 -0.7219 -0.2171
10593TIP3    H153270   4.942   0.461  13.705  0.9271  0.7869  1.4635
10593TIP3    H253271   4.811   0.531  13.738  1.1088  0.5613  2.6872
10594TIP3   OH253272   1.432   3.995  16.618 -0.7459  0.1049  0.5647
10594TIP3    H153273   1.354   4.004  16.562 -1.4152 -1.6102  1.1421
10594TIP3    H253274   1.506   4.007  16.558 -1.4502 -0.4672 -0.4686
10595TIP3   OH253275   1.700   4.277  17.023 -0.2523  0.4685  0.7448
10595TIP3    H153276   1.737   4.252  17.108 -0.3299  1.0986  0.9690
10595TIP3    H253277   1.696   4.373  17.026  0.5004  0.5416 -0.2884
10596TIP3   OH253278   0.246   0.887   0.580 -0.2052  0.4341 -0.7906
10596TIP3    H153279   0.212   0.922   0.662 -1.0219  0.0034 -0.9286
10596TIP3    H253280   0.168   0.853   0.535  0.6331 -2.8389 -0.0281
10597TIP3   OH253281   6.784   3.672   0.698 -0.1515 -0.4771 -0.2789
10597TIP3    H153282   6.879   3.659   0.689 -0.2131 -1.8846  0.7339
10597TIP3    H253283   6.771   3.687   0.791 -0.9304 -0.2078 -0.4243
10598TIP3   OH253284   1.465   0.756  15.983  0.4455  0.0928  0.0255
10598TIP3    H153285   1.507   0.679  15.944 -0.2762 -0.5445  0.4728
10598TIP3    H253286   1.451   0.732  16.074 -1.7521 -0.1223 -0.3149
10599TIP3   OH253287   4.793   6.574  15.000  0.3674 -0.2157  0.4083
10599TIP3    H153288   4.884   6.573  15.030  1.3520 -1.7271 -2.2555
10599TIP3    H253289   4.792   6.643  14.933 -0.4996 -0.1483  0.4849
10600TIP3   OH253290   5.366   5.610  14.292 -0.7090 -0.6145 -0.4215
10600TIP3    H153291   5.455   5.575  14.297 -0.7212 -0.4771  2.7294
10600TIP3    H253292   5.365   5.663  14.212  1.7027 -1.4255 -1.0653
10601TIP3   OH253293   2.824   6.173   5.215  0.1577 -0.5783  0.0280
10601TIP3    H153294   2.842   6.267   5.221  0.7698 -0.3465 -3.5070
10601TIP3    H253295   2.729   6.168   5.205  0.3274  0.0087 -2.6346
10602TIP3   OH253296   6.017   5.511   2.255  0.4784  0.3168 -0.4264
10602TIP3    H153297   6.071   5.587   2.230 -0.3986  1.6557  1.5386
10602TIP3    H253298   5.928   5.546   2.262  0.1602 -0.7070  1.1633
10603TIP3   OH253299   6.224   3.517  15.319  0.1362 -0.0476  0.4948
10603TIP3    H153300   6.309   3.494  15.280  0.7940  0.6771  1.4290
10603TIP3    H253301   6.226   3.613  15.324 -0.8007 -0.0149  0.4233
10604TIP3   OH253302   0.016   0.980  14.896 -0.6224 -0.0158  0.3387
10604TIP3    H153303   0.048   0.905  14.946 -0.2456  0.2379  0.4778
10604TIP3    H253304  -0.073   0.956  14.871 -0.7118 -0.2610  0.8881
10605TIP3   OH253305   2.173   3.345   4.849 -0.0158 -0.4291  0.4199
10605TIP3    H153306   2.231   3.343   4.773  0.5784  0.7232  0.8242
10605TIP3    H253307   2.177   3.256   4.885  1.2830 -0.4441  0.2819
10606TIP3   OH253308   4.105   2.297   0.985 -0.3991 -0.0361  0.1815
10606TIP3    H153309   4.119   2.295   1.079 -0.0474  0.5602  0.1435
10606TIP3    H253310   4.046   2.371   0.970 -2.6689 -1.7159  0.1974
10607TIP3   OH253311   2.665   2.969   4.752  0.0515 -0.1552  0.2067
10607TIP3    H153312   2.744   3.014   4.781 -0.0001 -0.5715  1.0191
10607TIP3    H253313   2.697   2.887   4.713  0.0599  0.0012 -0.1232
10608TIP3   OH253314   6.075   2.372   2.564  0.3276  0.5610  0.2704
10608TIP3    H153315   6.012   2.300   2.569  1.2138 -0.2059  0.7667
10608TIP3    H253316   6.022   2.451   2.556 -0.6676 -0.1468 -0.2910
10609TIP3   OH253317   1.747   2.743   1.573 -0.2404  0.3385 -0.3177
10609TIP3    H153318   1.798   2.797   1.512 -0.6485  1.3297  0.1976
10609TIP3    H253319   1.656   2.767   1.555 -0.3053  2.0713  1.9294
10610TIP3   OH253320   4.332   1.644   6.768 -0.0367 -0.2350 -0.3223
10610TIP3    H153321   4.320   1.561   6.814  1.1871 -0.0607  0.3813
10610TIP3    H253322   4.426   1.663   6.778 -0.0024  0.4981 -1.7455
10611TIP3   OH253323   4.354   5.209   0.406  0.0963 -0.0190  0.2995
10611TIP3    H153324   4.315   5.143   0.350 -0.4695 -1.0426  1.8411
10611TIP3    H253325   4.402   5.267   0.346 -0.9519 -0.7220 -1.2622
10612TIP3   OH253326   1.549   0.105  13.118 -0.0202 -0.0473  0.5877
10612TIP3    H153327   1.552   0.055  13.036  0.8492  1.5535 -0.4249
10612TIP3    H253328   1.456   0.115  13.137 -0.2143 -1.2631  0.3290
10613TIP3   OH253329   0.929   3.493   2.720  0.5746 -0.2756  0.9402
10613TIP3    H153330   0.855   3.534   2.765  0.5674 -0.6189  1.2388
10613TIP3    H253331   0.967   3.433   2.784 -0.6233 -2.2384 -0.1006
10614TIP3   OH253332   5.596   5.615  12.565 -0.3711 -0.1563  0.0601
10614TIP3    H153333   5.691   5.626  12.576 -0.4575 -0.1121  0.8295
10614TIP3    H253334   5.586   5.588  12.474  0.4158 -0.5029  0.0577
10615TIP3   OH253335   2.710   2.604   0.478  0.3184  0.2097  0.6632
10615TIP3    H153336   2.652   2.671   0.514  0.7303  0.8990  0.0543
10615TIP3    H253337   2.795   2.646   0.470  0.1609  0.2586 -1.5271
10616TIP3   OH253338   4.102   0.033  13.806  0.1753 -0.2474 -0.2267
10616TIP3    H153339   4.158   0.031  13.728 -1.3799 -0.6899 -1.3688
10616TIP3    H253340   4.016   0.006  13.774 -0.3255 -1.2021  1.7955
10617TIP3   OH253341   0.384   0.870   1.521 -0.2329  0.7528  0.1113
10617TIP3    H153342   0.316   0.935   1.536  0.5462  1.3414  1.3042
10617TIP3    H253343   0.465   0.921   1.514  0.5980 -0.0942  2.4427
10618TIP3   OH253344   6.487   5.170   5.462 -0.4684  0.4425 -0.0335
10618TIP3    H153345   6.551   5.223   5.509 -2.2627  1.6111  1.1800
10618TIP3    H253346   6.489   5.204   5.373 -1.4149  2.4403  0.6727
10619TIP3   OH253347   3.945   2.155  15.907  0.3202 -0.3166 -0.3112
10619TIP3    H153348   3.866   2.111  15.940  1.2357 -0.4191  1.9276
10619TIP3    H253349   4.015   2.092  15.921  1.0390  0.3429 -0.8606
10620TIP3   OH253350   0.391   4.210   4.021 -0.4561  0.0668  0.1715
10620TIP3    H153351   0.327   4.157   3.974  1.0118 -0.8580 -0.8724
10620TIP3    H253352   0.385   4.182   4.112 -0.4151 -1.1801 -0.2004
10621TIP3   OH253353   4.913   5.706   2.511  0.1318  0.0446 -0.5682
10621TIP3    H153354   4.937   5.725   2.421  0.9456 -0.2179 -0.4186
10621TIP3    H253355   4.990   5.662   2.548 -0.4694 -0.5352  0.0367
10622TIP3   OH253356   0.643   3.837   3.253  0.4503  0.0534  0.4361
10622TIP3    H153357   0.554   3.837   3.287  0.8491 -1.4669  1.5962
10622TIP3    H253358   0.683   3.917   3.290  0.0939 -0.2041  1.4207
10623TIP3   OH253359   2.556   3.914  13.333 -0.0177  0.1593 -0.6312
10623TIP3    H153360   2.480   3.861  13.360 -1.2848  2.1098 -0.1354
10623TIP3    H253361   2.564   3.899  13.239 -0.1796 -1.0935 -0.4584
10624TIP3   OH253362   5.886   2.124   6.452  0.3015  0.0268 -0.3305
10624TIP3    H153363   5.887   2.183   6.527 -1.2789 -1.2258  0.7376
10624TIP3    H253364   5.903   2.038   6.489 -0.7162 -0.6502 -1.3748
10625TIP3   OH253365   3.065   3.621   1.786 -0.7345  0.3708 -0.1941
10625TIP3    H153366   2.973   3.608   1.765 -0.4660  0.6323 -1.5719
10625TIP3    H253367   3.101   3.532   1.792 -0.8182  0.2907 -0.8400
10626TIP3   OH253368   2.759   2.677   1.194 -0.1804  0.3633 -0.2758
10626TIP3    H153369   2.846   2.704   1.224 -0.3686  1.6187 -0.8011
10626TIP3    H253370   2.707   2.672   1.274  0.2549  0.0743 -0.0071
10627TIP3   OH253371   4.850   2.409   2.804 -0.5741 -0.0361  0.2896
10627TIP3    H153372   4.915   2.466   2.847 -1.9262  0.0015  2.4285
10627TIP3    H253373   4.900   2.333   2.774  0.5885  0.3808  1.1234
10628TIP3   OH253374   6.789   1.866  15.298  0.4656 -0.1376 -0.1643
10628TIP3    H153375   6.874   1.910  15.307  0.3105  0.3770 -1.0599
10628TIP3    H253376   6.746   1.878  15.382  1.1594 -0.1436  0.1993
10629TIP3   OH253377   6.750   6.115   5.696 -0.1319  0.0274 -0.0260
10629TIP3    H153378   6.797   6.091   5.776  2.1250 -0.2229 -1.3608
10629TIP3    H253379   6.670   6.157   5.728  2.0430  2.7159  2.4405
10630TIP3   OH253380   3.579   4.901  16.178  0.2133 -0.6160  0.3394
10630TIP3    H153381   3.552   4.839  16.246 -0.1030 -1.4055 -0.4866
10630TIP3    H253382   3.650   4.952  16.218 -0.3175 -0.7140  1.4273
10631TIP3   OH253383   4.226   1.056  15.276  0.2726  0.6981 -0.1200
10631TIP3    H153384   4.176   1.002  15.336  0.7625  0.6606  0.2614
10631TIP3    H253385   4.227   1.007  15.194  0.5069  0.2397  0.1522
10632TIP3   OH253386   5.501   1.338   3.050  0.1640  0.0775  0.4661
10632TIP3    H153387   5.517   1.393   2.973 -1.4867 -0.4561 -0.3019
10632TIP3    H253388   5.587   1.330   3.092  1.3119 -0.3244 -1.7968
10633TIP3   OH253389   2.421   3.911   2.302  0.8032  0.3947  0.3517
10633TIP3    H153390   2.348   3.884   2.357 -0.9533 -0.2919 -2.1695
10633TIP3    H253391   2.457   3.829   2.268  0.2999  0.8689 -1.3899
10634TIP3   OH253392   2.211   6.763  13.032 -0.2888  0.1414 -0.4000
10634TIP3    H153393   2.138   6.758  12.969  0.3589 -1.5397 -1.0660
10634TIP3    H253394   2.267   6.689  13.009  1.1818  0.8846  0.6799
10635TIP3   OH253395   0.355   6.157   5.320  0.0064  0.1146 -0.1342
10635TIP3    H153396   0.310   6.088   5.368 -0.9993  1.8214  1.5301
10635TIP3    H253397   0.443   6.159   5.358 -0.3971  0.6179  0.8302
10636TIP3   OH253398   0.031   3.878   0.878 -0.8939  0.6388  0.5129
10636TIP3    H153399  -0.021   3.867   0.957 -0.3203  3.4851  1.3725
10636TIP3    H253400  -0.010   3.951   0.832  1.2780  1.8318  0.3654
10637TIP3   OH253401   2.018   4.823  16.722 -0.1288  0.7041  0.5584
10637TIP3    H153402   2.106   4.860  16.720 -0.3979  1.3717 -1.2440
10637TIP3    H253403   2.006   4.784  16.635 -1.6280  0.7313  0.7173
10638TIP3   OH253404   2.267   6.181  13.558 -0.2093 -0.1271 -0.5659
10638TIP3    H153405   2.274   6.095  13.518  1.4386  0.0699 -0.7594
10638TIP3    H253406   2.304   6.241  13.494  0.9754  0.3997  0.5687
10639TIP3   OH253407   3.396   0.109   1.647  0.3001  0.3932  0.3034
10639TIP3    H153408   3.340   0.084   1.573 -0.1209  2.1278  0.0005
10639TIP3    H253409   3.359   0.190   1.679  0.6475 -0.1737  2.2833
10640TIP3   OH253410   3.336   3.342   4.962  0.4895  0.0569  0.0444
10640TIP3    H153411   3.353   3.309   5.050  0.6425 -0.0240 -0.0157
10640TIP3    H253412   3.288   3.424   4.976  1.9324  0.8930  0.2452
10641TIP3   OH253413   3.537   4.180  16.469  0.0151  0.4951  0.1186
10641TIP3    H153414   3.560   4.218  16.554  0.4200  0.5102  0.0077
10641TIP3    H253415   3.621   4.175  16.422  0.4109 -2.4102  0.8783
10642TIP3   OH253416   3.382   0.018  15.332  0.2724  0.4560 -0.5262
10642TIP3    H153417   3.460   0.072  15.346  0.1529  0.4498  0.1917
10642TIP3    H253418   3.316   0.055  15.389  0.6083 -1.3205  1.1249
10643TIP3   OH253419   5.043   4.728  15.153  1.0029  0.6786  0.3766
10643TIP3    H153420   5.050   4.642  15.196 -0.2405 -1.0159 -2.4850
10643TIP3    H253421   4.953   4.755  15.170 -0.4386 -1.3208 -3.0735
10644TIP3   OH253422   5.965   6.126  13.401  0.4405  0.6326 -0.4655
10644TIP3    H153423   5.965   6.189  13.329  2.0551  0.7137 -0.4427
10644TIP3    H253424   5.967   6.180  13.480 -1.4998  0.5466 -0.3131
10645TIP3   OH253425   1.369   1.741   1.118 -0.0941  0.7361  0.5672
10645TIP3    H153426   1.293   1.785   1.080 -0.5891 -1.4527 -1.1391
10645TIP3    H253427   1.335   1.699   1.197 -1.0175 -1.1395 -0.7542
10646TIP3   OH253428   1.214   3.949  10.663 -0.2113 -0.2077 -0.2653
10646TIP3    H153429   1.251   3.933  10.576  1.4334  0.2363  0.3172
10646TIP3    H253430   1.259   3.887  10.720  1.4861  1.9501  0.8897
10647TIP3   OH253431   3.621   2.457  13.415 -0.0963 -0.1792 -0.2229
10647TIP3    H153432   3.641   2.468  13.322  1.3366 -0.6531  0.0034
10647TIP3    H253433   3.678   2.521  13.459 -0.2834 -0.4076  0.3653
10648TIP3   OH253434   3.035   4.346   0.877 -0.4215 -0.0326  0.3645
10648TIP3    H153435   3.006   4.371   0.965 -1.3592 -1.4699  0.4973
10648TIP3    H253436   2.954   4.327   0.830  0.1456 -0.8107 -0.3209
10649TIP3   OH253437   3.674   2.205  14.518  0.5806 -0.4008  0.3608
10649TIP3    H153438   3.597   2.260  14.507  0.6925 -0.2895  0.1278
10649TIP3    H253439   3.682   2.158  14.435  0.4533 -0.8109  0.5775
10650TIP3   OH253440   1.513   1.994   4.151  0.1435  0.2283  0.1147
10650TIP3    H153441   1.545   2.084   4.144 -0.4643  0.5172  0.8600
10650TIP3    H253442   1.493   1.968   4.061  1.9697  0.2008 -0.3334
10651TIP3   OH253443   5.449   6.805   4.235  0.0288 -0.0461 -0.2619
10651TIP3    H153444   5.371   6.809   4.180  0.4146  0.7083 -0.7765
10651TIP3    H253445   5.488   6.893   4.228  2.1410 -1.0021 -1.8511
10652TIP3   OH253446   1.495   5.792  14.272  0.2338 -0.1106 -0.2274
10652TIP3    H153447   1.454   5.796  14.186  2.4427 -1.3588 -1.4412
10652TIP3    H253448   1.466   5.871  14.317 -3.7080 -1.0677 -0.7471
10653TIP3   OH253449   6.305   4.013   4.709 -0.1951 -0.2725 -0.4222
10653TIP3    H153450   6.247   3.951   4.663  0.1062  0.7775 -2.3178
10653TIP3    H253451   6.369   3.957   4.753 -1.8338 -1.4121  0.6485
10654TIP3   OH253452   2.622   0.544   6.055 -0.5864  0.1687  0.9398
10654TIP3    H153453   2.657   0.616   6.107 -2.5389 -0.4785  3.3804
10654TIP3    H253454   2.598   0.478   6.119 -0.4270 -1.9957 -1.0836
10655TIP3   OH253455   4.846   0.943   4.841 -0.3984  0.1630  0.0040
10655TIP3    H153456   4.888   0.895   4.913 -0.8878  0.5020  0.5277
10655TIP3    H253457   4.839   1.033   4.874 -1.8258  0.0494  0.0753
10656TIP3   OH253458   5.003   1.994  14.590 -0.3170  0.1055 -0.2698
10656TIP3    H153459   5.023   2.057  14.521 -1.5577  0.1973 -0.5835
10656TIP3    H253460   4.936   2.038  14.643 -1.6729 -1.1464 -0.8616
10657TIP3   OH253461   2.406   5.177   5.358 -0.1743 -0.3348 -0.1777
10657TIP3    H153462   2.477   5.118   5.383 -0.7265 -0.9490 -0.0600
10657TIP3    H253463   2.448   5.263   5.355  0.4868 -0.6263  0.3011
10658TIP3   OH253464   5.902   2.138   2.244 -0.6049 -0.2211  0.4227
10658TIP3    H153465   5.841   2.190   2.192 -1.2001 -0.9973  0.3159
10658TIP3    H253466   5.906   2.054   2.197  1.0414  0.0299  0.0686
10659TIP3   OH253467   2.728   4.702  11.745  0.5880 -0.2524 -0.3432
10659TIP3    H153468   2.765   4.642  11.809  0.9123 -0.4124 -0.6784
10659TIP3    H253469   2.799   4.718  11.683  0.9556  1.5951  0.5130
10660TIP3   OH253470   0.662   6.753  17.160  0.2988 -0.1319  0.4318
10660TIP3    H153471   0.672   6.741  17.066  0.4194 -1.0744  0.5584
10660TIP3    H253472   0.750   6.777  17.190 -0.0397  1.6867  0.1142
10661TIP3   OH253473   1.164   5.237   4.007 -0.2304  0.1613 -0.2595
10661TIP3    H153474   1.083   5.261   3.963 -0.4192 -0.2756 -0.1506
10661TIP3    H253475   1.138   5.213   4.096  0.1850  1.3526  0.2113
10662TIP3   OH253476   5.831   2.691   4.621 -0.4344 -0.2641  0.1897
10662TIP3    H153477   5.856   2.783   4.624  1.2041 -0.5847 -1.5543
10662TIP3    H253478   5.825   2.671   4.527  3.4383 -2.9081  0.2958
10663TIP3   OH253479   3.434   1.797   3.749  0.3994 -0.2354 -0.7173
10663TIP3    H153480   3.420   1.886   3.779  0.4377  0.3395 -2.3209
10663TIP3    H253481   3.517   1.800   3.702 -0.0776 -0.8717 -1.6360
10664TIP3   OH253482   5.867   5.599  12.616 -0.4541 -0.0502 -0.2705
10664TIP3    H153483   5.884   5.643  12.533 -1.0699 -0.9334 -0.8792
10664TIP3    H253484   5.952   5.568  12.645 -0.1948  0.5138 -0.4201
10665TIP3   OH253485   4.746   1.480   4.200 -0.1727  0.2654 -0.7804
10665TIP3    H153486   4.709   1.565   4.175  0.9074  0.4017 -2.0357
10665TIP3    H253487   4.673   1.419   4.194 -0.6560  0.8694 -1.1886
10666TIP3   OH253488   4.204   6.480  10.602 -0.1850  0.1060  0.3934
10666TIP3    H153489   4.109   6.482  10.595 -0.1083  2.2206 -1.0961
10666TIP3    H253490   4.234   6.436  10.523  0.1025 -1.1204  1.1541
10667TIP3   OH253491   1.052   3.747   3.714 -0.7538 -0.3725  0.2512
10667TIP3    H153492   1.103   3.810   3.664 -0.7596  1.0523  1.9391
10667TIP3    H253493   0.976   3.796   3.744 -1.7039 -1.6980  0.1098
10668TIP3   OH253494   1.830   2.965   5.363 -0.1581 -0.1106  0.5515
10668TIP3    H153495   1.864   3.049   5.395  0.6752  0.1326 -0.8862
10668TIP3    H253496   1.907   2.908   5.361 -0.1622 -0.0800 -1.0776
10669TIP3   OH253497   2.826   2.467  12.281  0.1994  0.0812  0.1669
10669TIP3    H153498   2.778   2.426  12.354  1.3890  0.3492  1.1400
10669TIP3    H253499   2.766   2.533  12.247  0.2094  1.1351  2.0365
10670TIP3   OH253500   2.887   6.563  16.770  0.3206  0.1431  1.1513
10670TIP3    H153501   2.970   6.607  16.750 -1.0718  2.4675  0.0808
10670TIP3    H253502   2.899   6.474  16.737  2.3515  0.4323  0.9498
10671TIP3   OH253503   5.849   3.477   3.781  0.1345 -0.5701 -0.3136
10671TIP3    H153504   5.855   3.546   3.847 -1.1066 -1.7337  1.1127
10671TIP3    H253505   5.940   3.453   3.763  0.5217 -0.3985  1.2195
10672TIP3   OH253506   4.906   0.634   4.117  0.2181  0.1675 -0.0361
10672TIP3    H153507   4.934   0.626   4.026 -0.8322 -0.8216 -0.2870
10672TIP3    H253508   4.911   0.545   4.151  0.1879  0.4642  0.7605
10673TIP3   OH253509   4.049   1.475  14.237 -0.5447 -0.4430  0.7295
10673TIP3    H153510   4.053   1.440  14.148 -2.7027  0.6380  0.1406
10673TIP3    H253511   4.096   1.558  14.234 -1.6631  0.2006  0.2286
10674TIP3   OH253512   5.474   1.900  14.086  0.0437 -0.5191  0.0754
10674TIP3    H153513   5.402   1.877  14.027 -0.5502 -1.1053  0.9942
10674TIP3    H253514   5.553   1.883  14.036 -0.4367  1.6401 -1.5270
10675TIP3   OH253515   0.337   4.990   1.252  0.1519  0.2654 -0.1653
10675TIP3    H153516   0.367   4.976   1.342 -0.4256  2.4117  0.4200
10675TIP3    H253517   0.245   5.013   1.260  0.1387  0.6715 -1.2770
10676TIP3   OH253518   0.841   1.044  16.209  0.5304  0.4846  0.4614
10676TIP3    H153519   0.847   1.127  16.163  1.5532  0.3990  0.4203
10676TIP3    H253520   0.886   1.059  16.292 -0.8479  0.4854  1.2290
10677TIP3   OH253521   0.314   3.126  14.807 -0.1364 -0.2648 -0.7100
10677TIP3    H153522   0.303   3.193  14.874 -2.2577 -0.0183 -1.2476
10677TIP3    H253523   0.409   3.117  14.798  0.2097  1.9661  0.0433
10678TIP3   OH253524   1.959   4.350   0.657 -0.8037  0.0500  0.2479
10678TIP3    H153525   2.032   4.297   0.626 -0.2042 -0.0564  1.7765
10678TIP3    H253526   1.983   4.376   0.745 -0.9183  3.1475 -0.4954
10679TIP3   OH253527   5.747   0.794  11.721  0.2657 -0.4427 -0.5409
10679TIP3    H153528   5.719   0.708  11.689 -1.3566  0.4032 -1.4984
10679TIP3    H253529   5.761   0.846  11.641  1.9276  0.0116  0.0002
10680TIP3   OH253530   0.644   0.088  16.920 -0.3416 -0.0020  0.2382
10680TIP3    H153531   0.611   0.163  16.969  0.6342  1.0972 -0.7180
10680TIP3    H253532   0.721   0.121  16.874 -0.3558 -1.3682 -0.8554
10681TIP3   OH253533   6.247   6.801  15.579 -0.0369  0.8004  0.2310
10681TIP3    H153534   6.316   6.738  15.599  0.1452  0.3000 -1.7885
10681TIP3    H253535   6.217   6.831  15.665 -0.2551 -2.1422  1.2846
10682TIP3   OH253536   4.025   5.833  13.785  0.2343  0.0016 -0.1497
10682TIP3    H153537   4.077   5.854  13.708  1.6721  2.5795  1.3621
10682TIP3    H253538   3.953   5.896  13.783  0.2544  0.0637  0.5425
10683TIP3   OH253539   5.546   4.908  12.409  0.0231 -0.0541 -0.4744
10683TIP3    H153540   5.601   4.834  12.383  0.6182  0.4083 -0.5308
10683TIP3    H253541   5.458   4.883  12.380 -0.2582 -1.8640  1.6949
10684TIP3   OH253542   6.458   1.132   2.871 -0.5082  0.2425  0.3403
10684TIP3    H153543   6.537   1.108   2.823 -1.1726  0.2048 -0.7520
10684TIP3    H253544   6.391   1.071   2.841 -1.2147  0.9294  0.4777
10685TIP3   OH253545   6.214   2.078   6.344  0.5204 -0.0172  0.2971
10685TIP3    H153546   6.238   2.013   6.409  0.7453 -0.9498 -0.6894
10685TIP3    H253547   6.287   2.079   6.282  1.1112  2.0836  0.9249
10686TIP3   OH253548   5.573   5.228   1.215  0.0092 -0.2969  0.2908
10686TIP3    H153549   5.632   5.201   1.144  0.4092  0.2406  0.4132
10686TIP3    H253550   5.614   5.305   1.253 -0.3127 -0.4541  0.9791
10687TIP3   OH253551   2.821   5.197   1.851 -0.0631 -0.2752 -0.2408
10687TIP3    H153552   2.903   5.148   1.846  0.9018  1.2619 -0.0146
10687TIP3    H253553   2.780   5.166   1.931 -0.9163 -2.7886 -1.5193
10688TIP3   OH253554   3.182   4.430  13.557 -0.8582 -0.5287  0.1348
10688TIP3    H153555   3.144   4.343  13.547 -1.5580 -0.1491 -0.7595
10688TIP3    H253556   3.244   4.438  13.485 -0.3203 -0.5231  0.5949
10689TIP3   OH253557   2.356   0.205  16.426 -0.0273 -0.5152  0.1071
10689TIP3    H153558   2.334   0.244  16.511 -2.9556  0.4263 -0.9583
10689TIP3    H253559   2.309   0.122  16.425  0.4207 -0.7668 -0.3769
10690TIP3   OH253560   3.839   5.113  13.384  0.0932 -0.1246  0.5244
10690TIP3    H153561   3.872   5.043  13.440  4.1840  0.9400 -0.2507
10690TIP3    H253562   3.814   5.183  13.444  2.8270  0.3619  1.1945
10691TIP3   OH253563   2.161   2.128  14.959  0.3687  0.9001 -0.6011
10691TIP3    H153564   2.144   2.155  14.869  1.1111 -0.6025 -1.2243
10691TIP3    H253565   2.116   2.044  14.969  1.1199  0.5594  0.1050
10692TIP3   OH253566   4.448   3.341  15.294  0.0122  0.1612  0.3429
10692TIP3    H153567   4.420   3.257  15.259  0.3232  0.7349 -1.3899
10692TIP3    H253568   4.377   3.369  15.351 -0.7819 -0.5756 -0.2613
10693TIP3   OH253569   3.530   6.096  14.297 -0.1126 -0.2408 -0.2772
10693TIP3    H153570   3.608   6.075  14.246 -0.0180  1.0161 -0.6996
10693TIP3    H253571   3.563   6.152  14.368 -0.4042 -1.0579  0.5196
10694TIP3   OH253572   4.942   2.172   2.069 -0.0691 -0.0808  0.1727
10694TIP3    H153573   4.853   2.189   2.102 -0.2502 -1.8383  0.6572
10694TIP3    H253574   4.979   2.111   2.132  0.6231 -1.2552 -1.3301
10695TIP3   OH253575   2.732   4.108  12.139 -0.1256 -0.1805 -0.1180
10695TIP3    H153576   2.719   4.060  12.221  2.5718  1.7811  1.6579
10695TIP3    H253577   2.768   4.044  12.078  0.3309 -1.1383  1.1182
10696TIP3   OH253578   6.610   5.641  12.301 -0.0853 -0.6719  0.5791
10696TIP3    H153579   6.559   5.617  12.224 -0.2344  1.6999 -0.1671
10696TIP3    H253580   6.566   5.597  12.374  0.1048 -3.0276 -0.6498
10697TIP3   OH253581   0.729   4.147   5.499  0.3119 -0.1070  0.0981
10697TIP3    H153582   0.797   4.133   5.564  0.7723 -0.5380 -0.4647
10697TIP3    H253583   0.723   4.064   5.452  0.6540  0.4872 -1.0322
10698TIP3   OH253584   6.791   1.307   0.720  0.2197  0.0345  0.2440
10698TIP3    H153585   6.840   1.333   0.798 -0.6581 -0.2022  0.8948
10698TIP3    H253586   6.839   1.346   0.647  1.1097  0.1760  0.8934
10699TIP3   OH253587   3.324   3.103   5.811  0.3539  0.3467  0.6674
10699TIP3    H153588   3.299   3.104   5.719 -1.8401 -1.7067  1.1435
10699TIP3    H253589   3.419   3.116   5.810  0.9690 -2.7812 -2.1776
10700TIP3   OH253590   3.585   5.931   4.374 -0.4536  0.2602  0.3243
10700TIP3    H153591   3.518   5.960   4.312 -0.2443 -0.0388 -0.0521
10700TIP3    H253592   3.642   6.007   4.386  0.5549 -0.1744 -1.2682
10701TIP3   OH253593   0.081   0.390   4.014  0.0602  0.1608  0.1744
10701TIP3    H153594   0.035   0.436   3.944  0.6239 -0.0402 -0.3403
10701TIP3    H253595   0.032   0.309   4.025 -0.6020  0.6273  0.6941
10702TIP3   OH253596   4.308   4.070  16.365  0.1127  0.3421  0.1577
10702TIP3    H153597   4.270   4.046  16.281 -0.1218 -1.5084  0.7463
10702TIP3    H253598   4.286   3.997  16.423  1.0012  1.1776  1.6047
10703TIP3   OH253599   5.866   1.628  14.474  0.7968 -0.5897 -0.1292
10703TIP3    H153600   5.932   1.576  14.519 -0.5212 -0.3830  2.2012
10703TIP3    H253601   5.782   1.596  14.508 -0.2076  0.7119 -1.2526
10704TIP3   OH253602   1.991   5.916  10.532 -0.0484  0.0155  0.0227
10704TIP3    H153603   2.043   5.885  10.458 -1.0522 -0.8625 -0.3448
10704TIP3    H253604   1.937   5.986  10.496  0.5913  0.6855  0.3233
10705TIP3   OH253605   6.805   1.338   5.238  0.6749  0.3129 -0.6921
10705TIP3    H153606   6.874   1.274   5.257 -0.5752 -1.3714 -1.5727
10705TIP3    H253607   6.790   1.383   5.321 -0.9441 -3.1176  1.0644
10706TIP3   OH253608   0.311   1.496   1.817 -0.2120 -0.5168  0.1075
10706TIP3    H153609   0.254   1.537   1.882 -0.8499  1.5457 -1.6526
10706TIP3    H253610   0.390   1.474   1.866 -0.0417  2.3597  1.3404
10707TIP3   OH253611   5.248   0.815   4.555 -0.0233 -0.0746  0.0972
10707TIP3    H153612   5.196   0.858   4.487 -1.0478  1.4626  1.7716
10707TIP3    H253613   5.338   0.843   4.538 -0.5056  1.8184  0.4000
10708TIP3   OH253614   2.541   0.349  13.779  0.2974 -0.5821  0.0267
10708TIP3    H153615   2.507   0.428  13.737  1.1996 -1.3057 -2.2418
10708TIP3    H253616   2.544   0.284  13.708  2.5618 -1.7097  1.0572
10709TIP3   OH253617   5.116   2.709  12.568  0.4287 -0.1806 -0.1027
10709TIP3    H153618   5.095   2.799  12.595 -0.3049 -0.6509  0.9957
10709TIP3    H253619   5.034   2.662  12.581  1.0011 -1.1598  0.0016
10710TIP3   OH253620   2.962   0.967  16.030 -0.2657  0.8651  0.2958
10710TIP3    H153621   2.884   0.972  15.973 -0.0398 -0.7288 -0.2058
10710TIP3    H253622   2.988   1.058  16.042  0.1606  1.3012 -2.8849
10711TIP3   OH253623   0.722   2.746   1.591  0.0916 -0.7327  0.3634
10711TIP3    H153624   0.643   2.747   1.538 -0.7783 -1.5828  1.5763
10711TIP3    H253625   0.791   2.779   1.533 -0.6340 -2.3460 -1.5378
10712TIP3   OH253626   3.836   5.515  12.452  0.5855  0.1325  0.6084
10712TIP3    H153627   3.758   5.567  12.432  1.0901  1.2978  1.5338
10712TIP3    H253628   3.843   5.454  12.379 -0.4820  0.8412 -0.1272
10713TIP3   OH253629   1.525   0.071  16.162 -0.2713 -0.0326  1.1628
10713TIP3    H153630   1.541   0.065  16.068  1.3999 -0.5766  1.4317
10713TIP3    H253631   1.440   0.029  16.175 -0.9294  0.8287 -0.1901
10714TIP3   OH253632   3.670   5.474  15.533  1.2185  0.3857  0.1852
10714TIP3    H153633   3.754   5.470  15.579  2.0667  2.2776 -1.0805
10714TIP3    H253634   3.612   5.522  15.592  1.7019  1.0258  0.1461
10715TIP3   OH253635   5.846   2.598  14.787 -0.1980  0.5208  0.3255
10715TIP3    H153636   5.905   2.646  14.729 -0.6852  0.2159 -0.4375
10715TIP3    H253637   5.834   2.655  14.862 -0.6380  1.5359 -0.4928
10716TIP3   OH253638   5.351   6.369   3.089  0.5979 -0.0071  0.1568
10716TIP3    H153639   5.274   6.384   3.144  0.8393  1.6067  0.1032
10716TIP3    H253640   5.346   6.276   3.065 -1.0061 -0.0706  0.6287
10717TIP3   OH253641   1.136   5.639  14.339 -0.0795 -0.0143  0.6783
10717TIP3    H153642   1.176   5.710  14.389  1.7098 -0.7419  0.3545
10717TIP3    H253643   1.066   5.681  14.289  0.1085  1.2633  1.4549
10718TIP3   OH253644   4.435   3.699   2.521 -0.7551  0.0289 -0.3671
10718TIP3    H153645   4.454   3.782   2.477 -1.9883  1.3949  1.5085
10718TIP3    H253646   4.521   3.660   2.537  0.0826  2.2005  0.9073
10719TIP3   OH253647   2.623   3.232  16.641 -0.3952 -0.1938 -0.1517
10719TIP3    H153648   2.574   3.313  16.628  1.4793  1.0270  0.0019
10719TIP3    H253649   2.714   3.256  16.623  0.4761 -1.7889  1.7109
10720TIP3   OH253650   5.943   3.056   5.952  0.4263 -0.0949 -0.1767
10720TIP3    H153651   5.987   2.975   5.977 -0.4850 -0.7039 -0.5122
10720TIP3    H253652   5.925   3.046   5.858 -1.3478 -0.3201  0.1559
10721TIP3   OH253653   3.557   4.049   4.107  0.0043  0.6371 -0.1740
10721TIP3    H153654   3.486   4.065   4.045  0.8308  3.1229 -0.6304
10721TIP3    H253655   3.521   3.988   4.171 -1.7441  0.0406 -1.6361
10722TIP3   OH253656   6.007   1.437  10.803  0.0313  0.2105  0.3060
10722TIP3    H153657   5.933   1.428  10.743 -1.4925  2.8811  1.5929
10722TIP3    H253658   6.000   1.362  10.862 -1.0452 -0.1201 -0.2226
10723TIP3   OH253659   2.385   4.100  15.435 -0.5494  0.4317 -0.2756
10723TIP3    H153660   2.385   4.173  15.372  2.8778  0.8869  0.0731
10723TIP3    H253661   2.429   4.135  15.512  1.5219 -2.0391 -0.2232
10724TIP3   OH253662   0.196   3.771  14.655 -0.4298  0.0763 -0.1958
10724TIP3    H153663   0.262   3.840  14.656 -0.6076  0.2550  1.4266
10724TIP3    H253664   0.113   3.817  14.642 -0.5589  0.2133  0.9798
10725TIP3   OH253665   0.846   2.345  14.522  0.0399 -0.4904  0.1066
10725TIP3    H153666   0.884   2.308  14.443 -1.1068 -0.3281 -0.5525
10725TIP3    H253667   0.771   2.289  14.541 -2.1180  1.7021 -1.2623
10726TIP3   OH253668   1.804   5.631   1.185  0.5817  0.1300 -0.8330
10726TIP3    H153669   1.846   5.714   1.208  0.1934  0.8535 -2.5351
10726TIP3    H253670   1.835   5.614   1.096 -0.5002 -0.8005 -1.0383
10727TIP3   OH253671   0.776   2.280  11.555 -0.0568 -0.3820 -0.3778
10727TIP3    H153672   0.731   2.237  11.482  0.1076  1.0865 -1.3861
10727TIP3    H253673   0.723   2.357  11.573 -0.6788 -1.2457  1.7986
10728TIP3   OH253674   5.911   4.348   0.507  0.4076 -0.1427  0.1415
10728TIP3    H153675   5.897   4.263   0.547 -0.0657  0.5716  1.5421
10728TIP3    H253676   5.988   4.384   0.552 -0.6598  1.0450  1.0749
10729TIP3   OH253677   4.942   4.558  12.463  0.2512 -0.5160 -0.1732
10729TIP3    H153678   4.905   4.596  12.542 -1.7859 -1.4088 -0.6237
10729TIP3    H253679   4.996   4.485  12.494 -0.8852 -1.1418  0.4043
10730TIP3   OH253680   6.551   2.609  14.480  0.4437 -0.2559  1.0485
10730TIP3    H153681   6.497   2.673  14.527 -0.2339 -0.0109 -0.0342
10730TIP3    H253682   6.497   2.530  14.477  0.4504 -0.2439  0.6100
10731TIP3   OH253683   3.548   3.788  10.424  0.4945 -0.2275  0.4710
10731TIP3    H153684   3.485   3.839  10.473  0.4519  0.2308 -0.0476
10731TIP3    H253685   3.615   3.851  10.397  0.2313 -0.3556 -0.5277
10732TIP3   OH253686   2.438   2.196  14.792 -0.4159  0.2605  0.2714
10732TIP3    H153687   2.405   2.274  14.748  0.0021 -0.0868 -0.7001
10732TIP3    H253688   2.425   2.126  14.728  1.5904  0.0002  0.0754
10733TIP3   OH253689   5.298   0.691  12.529 -0.0124 -0.4806  0.0147
10733TIP3    H153690   5.276   0.598  12.533  1.3680 -0.9013 -1.2442
10733TIP3    H253691   5.393   0.693  12.519 -0.1952  0.9597 -2.0083
10734TIP3   OH253692   4.581   2.560  14.480  0.1396 -0.3396  0.4112
10734TIP3    H153693   4.532   2.511  14.547 -1.2795  0.6232  0.1214
10734TIP3    H253694   4.516   2.580  14.413  0.8924  1.1608  0.0992
10735TIP3   OH253695   0.320   3.095  16.489 -0.0853 -0.0238  0.0990
10735TIP3    H153696   0.382   3.139  16.547 -0.6982  0.8815  0.0877
10735TIP3    H253697   0.328   3.003  16.511  0.6167  0.1748  0.7234
10736TIP3   OH253698   1.147   0.986  13.965 -0.1013  0.2103  0.2111
10736TIP3    H153699   1.175   1.064  13.918  2.8497 -1.0828 -0.4018
10736TIP3    H253700   1.180   0.998  14.054  0.0870 -0.1782  0.1971
10737TIP3   OH253701   4.721   3.906  14.873  0.1007 -0.3447 -0.1325
10737TIP3    H153702   4.687   3.823  14.906 -1.6800  0.4443  0.1520
10737TIP3    H253703   4.686   3.971  14.934 -0.5279  0.8395 -1.6913
10738TIP3   OH253704   1.793   0.114  16.223 -0.2345 -0.1606 -0.0233
10738TIP3    H153705   1.781   0.208  16.215 -0.7832 -0.1971  0.3467
10738TIP3    H253706   1.704   0.078  16.224 -0.1392 -0.4637  2.5048
10739TIP3   OH253707   3.217   3.063  13.118  0.4074 -0.4395  0.2497
10739TIP3    H153708   3.165   2.989  13.150 -1.7825  0.0654 -1.8393
10739TIP3    H253709   3.306   3.029  13.112 -0.2649 -2.4234  0.7860
10740TIP3   OH253710   6.176   4.280   5.486 -0.2757  0.5298  0.3390
10740TIP3    H153711   6.170   4.262   5.580  0.0858 -1.3669  0.0364
10740TIP3    H253712   6.265   4.314   5.474  0.9017 -2.3206  0.2890
10741TIP3   OH253713   0.629   1.259  14.698 -0.0757  0.2515  0.8032
10741TIP3    H153714   0.688   1.210  14.641 -0.4117  0.9231 -0.1550
10741TIP3    H253715   0.682   1.278  14.776  0.5245 -0.3428  0.5551
10742TIP3   OH253716   4.178   5.923   3.637 -0.2471  0.3384 -0.3643
10742TIP3    H153717   4.159   5.877   3.718  0.1574 -1.0499 -1.0320
10742TIP3    H253718   4.114   5.891   3.574 -0.1755  0.9427 -0.7631
10743TIP3   OH253719   5.675   5.921  12.726  0.1032  0.0888 -0.1801
10743TIP3    H153720   5.731   5.945  12.652  0.2613 -1.5036 -0.6107
10743TIP3    H253721   5.597   5.884  12.685 -0.6531  0.9413  0.4481
10744TIP3   OH253722   1.869   6.086  11.267 -0.3223  0.1086  0.5364
10744TIP3    H153723   1.925   6.151  11.223  0.0432 -1.0591 -0.8109
10744TIP3    H253724   1.780   6.109  11.241 -0.1178 -0.4950 -0.7654
10745TIP3   OH253725   0.609   0.092   1.837 -0.2121 -0.4951 -0.0006
10745TIP3    H153726   0.642   0.046   1.760 -0.7965 -1.1726  0.1456
10745TIP3    H253727   0.639   0.040   1.911  0.5118  0.2575  0.2568
10746TIP3   OH253728   5.193   1.158   0.384  0.2692  1.4625  0.0124
10746TIP3    H153729   5.113   1.175   0.335  0.1715 -2.0480 -1.2959
10746TIP3    H253730   5.262   1.198   0.332 -0.4321  3.5900  0.6082
10747TIP3   OH253731   5.186   0.465  14.495  0.3374 -0.5385 -0.0183
10747TIP3    H153732   5.126   0.532  14.529 -0.6203 -0.9580 -0.8368
10747TIP3    H253733   5.263   0.514  14.468 -0.4328  0.2860 -0.7926
10748TIP3   OH253734   6.563   3.346  11.985 -0.5594 -0.2713  0.1796
10748TIP3    H153735   6.486   3.308  12.028 -1.1288 -0.9183 -1.3415
10748TIP3    H253736   6.532   3.370  11.897  1.0940 -1.0351 -0.6588
10749TIP3   OH253737   4.536   4.326  11.560 -0.2077 -0.3890 -0.5423
10749TIP3    H153738   4.469   4.258  11.570  0.0197 -0.5537 -0.1439
10749TIP3    H253739   4.602   4.286  11.502  0.6294 -1.0423  0.8236
10750TIP3   OH253740   2.538   3.360   5.516  0.4520  0.2181 -0.1143
10750TIP3    H153741   2.584   3.339   5.435  1.2804  1.3062  0.0400
10750TIP3    H253742   2.581   3.441   5.547 -2.4997  2.1856 -0.7481
10751TIP3   OH253743   0.111   3.271   3.685 -0.5542 -0.5145  0.0516
10751TIP3    H153744   0.106   3.329   3.761 -0.4434 -0.8634  0.3277
10751TIP3    H253745   0.026   3.279   3.643 -0.1826  0.6610 -0.5209
10752TIP3   OH253746   4.136   3.322   5.548 -0.0531  0.2710  0.1423
10752TIP3    H153747   4.220   3.365   5.534 -0.4388  1.2628  0.8089
10752TIP3    H253748   4.158   3.231   5.568  0.9151  0.7121  1.1460
10753TIP3   OH253749   3.685   0.428  16.319 -0.3772 -0.3535 -0.1756
10753TIP3    H153750   3.614   0.364  16.318 -2.7212  2.0541 -1.6230
10753TIP3    H253751   3.641   0.513  16.321  2.5373  1.3366  2.1001
10754TIP3   OH253752   4.096   5.382   0.089 -0.5268  0.7244  0.3106
10754TIP3    H153753   4.006   5.377   0.056 -0.2886  1.7904 -0.5856
10754TIP3    H253754   4.115   5.476   0.092  0.6621  0.5051  0.1909
10755TIP3   OH253755   0.433   4.409  11.878 -0.6897  0.4398  0.2500
10755TIP3    H153756   0.452   4.316  11.883  0.2810  0.6231  0.0378
10755TIP3    H253757   0.358   4.416  11.819 -0.5666 -0.1730  0.0248
10756TIP3   OH253758   2.726   3.600  16.589  0.2340 -0.8638  0.1462
10756TIP3    H153759   2.702   3.582  16.498  0.0392 -1.3720  0.2955
10756TIP3    H253760   2.721   3.695  16.596  1.7002 -0.6749 -0.7787
10757TIP3   OH253761   4.377   3.856  13.756  0.1484  0.0083 -0.4565
10757TIP3    H153762   4.445   3.802  13.796  0.6591  0.0751 -1.2198
10757TIP3    H253763   4.396   3.854  13.662 -0.3661  0.7697 -0.5905
10758TIP3   OH253764   1.378   3.958   5.259 -0.0800 -0.1622 -0.1058
10758TIP3    H153765   1.394   3.970   5.353  0.4696 -2.4294  0.1436
10758TIP3    H253766   1.305   4.017   5.240 -0.0995  0.4761  1.6964
10759TIP3   OH253767   0.644   3.932  16.184  0.1535 -0.2710 -0.4400
10759TIP3    H153768   0.591   3.866  16.139 -0.4402  0.5059 -0.9155
10759TIP3    H253769   0.721   3.884  16.215  0.1581 -1.0043 -1.5382
10760TIP3   OH253770   0.090   3.580  13.831 -0.3497  1.0953 -0.0450
10760TIP3    H153771   0.053   3.499  13.867 -0.0959  0.9011 -0.2155
10760TIP3    H253772   0.054   3.649  13.886  1.0055  0.7207  1.4197
10761TIP3   OH253773   4.866   5.784   4.561 -0.5013  0.2946  0.6739
10761TIP3    H153774   4.771   5.778   4.548 -0.4042 -0.8079  0.3716
10761TIP3    H253775   4.886   5.877   4.552 -1.6564  0.6502  1.4732
10762TIP3   OH253776   2.095   2.694   2.789 -0.2586 -0.2142  0.1018
10762TIP3    H153777   2.159   2.704   2.860 -1.2293 -0.0567  0.9762
10762TIP3    H253778   2.148   2.672   2.713  0.7181 -1.6576  1.1377
10763TIP3   OH253779   5.905   0.102  13.233 -0.0741  0.1487 -0.4397
10763TIP3    H153780   5.943   0.052  13.162  1.0225  0.9726 -0.4649
10763TIP3    H253781   5.939   0.061  13.313 -0.6370 -0.2611 -0.4060
10764TIP3   OH253782   1.043   2.937  14.187  0.2412 -0.5608  0.0667
10764TIP3    H153783   1.022   3.009  14.247  0.4596 -0.3526 -0.1039
10764TIP3    H253784   1.106   2.975  14.126  1.5657 -1.3275  0.9122
10765TIP3   OH253785   4.562   6.012  17.045  0.8967 -0.5558 -0.6104
10765TIP3    H153786   4.524   5.924  17.056  1.2970 -0.7758 -0.9846
10765TIP3    H253787   4.655   6.000  17.065  0.6479  0.1434  1.1277
10766TIP3   OH253788   3.983   0.466  10.921  0.3056 -0.0022 -0.1754
10766TIP3    H153789   4.021   0.471  10.833 -2.4605 -4.0301 -1.9450
10766TIP3    H253790   4.033   0.397  10.965 -1.9750 -2.3688 -1.0186
10767TIP3   OH253791   1.752   1.501   0.766  0.6740  0.5820 -0.5499
10767TIP3    H153792   1.772   1.436   0.833  0.3584  2.3387  1.3392
10767TIP3    H253793   1.671   1.542   0.795  0.7883  1.7304 -1.7538
10768TIP3   OH253794   2.941   4.702   2.848  0.2423 -0.2343 -0.3849
10768TIP3    H153795   2.872   4.636   2.834 -1.9772  1.4939  1.4645
10768TIP3    H253796   2.907   4.781   2.806  0.9059  0.7670  0.9032
10769TIP3   OH253797   6.101   4.337   4.332 -0.6491  0.0476  0.3353
10769TIP3    H153798   6.111   4.432   4.344 -1.4335  0.0705  0.9425
10769TIP3    H253799   6.067   4.328   4.243  1.0228  0.2036 -0.3480
10770TIP3   OH253800   1.350   5.436  12.766  0.5796  0.1485  0.1452
10770TIP3    H153801   1.340   5.348  12.729  0.3171  0.5673 -0.8281
10770TIP3    H253802   1.444   5.450  12.771  0.6214 -0.1230  0.1265
10771TIP3   OH253803   3.490   5.606  16.527  0.0098  1.1513  0.1429
10771TIP3    H153804   3.471   5.570  16.614 -0.3243 -2.0621 -1.1207
10771TIP3    H253805   3.580   5.639  16.535  0.4047 -0.1100  1.4263
10772TIP3   OH253806   1.239   6.152  13.480  0.1499 -0.0565  0.3607
10772TIP3    H153807   1.255   6.061  13.455 -2.2264 -0.3287 -0.4577
10772TIP3    H253808   1.194   6.147  13.564 -1.6587  0.1645 -0.5244
10773TIP3   OH253809   0.717   2.586   4.851 -0.3122 -0.0736  0.1454
10773TIP3    H153810   0.712   2.511   4.793  2.2075  0.7682 -1.3614
10773TIP3    H253811   0.770   2.556   4.925  0.0300 -0.0143 -0.0728
10774TIP3   OH253812   3.429   0.346   2.478 -0.3257 -0.2845 -0.0665
10774TIP3    H153813   3.451   0.391   2.559 -1.2159 -0.2152  0.1441
10774TIP3    H253814   3.470   0.399   2.409 -3.0807  2.1441 -0.0408
10775TIP3   OH253815   4.260   5.044  15.749  0.1058 -0.0237  0.3174
10775TIP3    H153816   4.289   5.058  15.659 -0.5796  0.9036  0.2255
10775TIP3    H253817   4.310   4.968  15.779 -1.6380 -2.1201 -1.7481
10776TIP3   OH253818   0.335   2.689  15.424 -0.0351 -0.5856 -0.2307
10776TIP3    H153819   0.252   2.728  15.397  0.9525  1.4516 -0.5292
10776TIP3    H253820   0.358   2.630  15.352 -0.1672  0.5397 -1.2388
10777TIP3   OH253821   1.928   2.803  15.196 -0.4227 -0.0178 -0.3800
10777TIP3    H153822   1.924   2.747  15.274  0.1794 -0.0034 -0.3283
10777TIP3    H253823   2.020   2.799  15.169 -0.9741 -1.6340 -2.2836
10778TIP3   OH253824   2.468   5.931   3.289  0.4887 -0.3615  0.3957
10778TIP3    H153825   2.418   6.006   3.256 -0.7318  0.3158  3.4295
10778TIP3    H253826   2.559   5.950   3.265  0.1267  1.7993  0.5095
10779TIP3   OH253827   0.485   0.371  14.695 -0.7093  0.1544  0.4964
10779TIP3    H153828   0.500   0.383  14.789  0.3280 -0.0322  0.3644
10779TIP3    H253829   0.508   0.456  14.656  1.7102 -0.6224  0.1140
10780TIP3   OH253830   3.996   0.905   5.971  0.1976 -0.5738  0.0454
10780TIP3    H153831   4.015   0.855   5.892 -0.7361  1.9080 -1.8814
10780TIP3    H253832   4.081   0.915   6.015  0.9104 -1.1248 -1.1717
10781TIP3   OH253833   3.999   2.672   0.132  0.0891 -0.1180  0.1461
10781TIP3    H153834   4.031   2.715   0.211  1.0839  0.2808 -0.4580
10781TIP3    H253835   3.917   2.630   0.159  0.7148 -0.4971  1.5345
10782TIP3   OH253836   3.051   0.324   0.914 -0.0412 -0.1524 -0.5494
10782TIP3    H153837   3.108   0.391   0.954 -0.5217 -0.1806  0.2055
10782TIP3    H253838   2.978   0.374   0.877 -3.7136 -0.3456  5.1895
10783TIP3   OH253839   3.377   2.243   1.702  0.3423  0.3463 -0.0508
10783TIP3    H153840   3.451   2.298   1.677 -0.4936  1.1932 -0.7421
10783TIP3    H253841   3.315   2.251   1.630 -0.1421 -0.9062  0.1883
10784TIP3   OH253842   0.288   0.424  13.491  0.0191  0.6206  0.0733
10784TIP3    H153843   0.325   0.506  13.524 -1.1357  1.0298  0.4049
10784TIP3    H253844   0.200   0.447  13.462 -0.0284 -0.3434 -0.5894
10785TIP3   OH253845   5.355   2.307  15.772 -0.7245 -0.0406  0.2881
10785TIP3    H153846   5.433   2.348  15.735 -0.6187  1.1523  1.7237
10785TIP3    H253847   5.307   2.274  15.697  1.1320 -0.7589 -0.6368
10786TIP3   OH253848   3.016   3.431   6.279 -0.4651 -0.0758  0.1078
10786TIP3    H153849   3.007   3.506   6.220 -0.9392  2.6627  3.3573
10786TIP3    H253850   2.931   3.388   6.277 -0.0384 -0.9825 -2.1669
10787TIP3   OH253851   6.609   1.566   2.054 -0.0456  0.1945 -0.0522
10787TIP3    H153852   6.593   1.486   2.105 -2.7557  0.5551 -0.1738
10787TIP3    H253853   6.601   1.537   1.963 -0.8789  0.5320 -0.0987
10788TIP3   OH253854   0.869   1.339   5.730 -0.7322  0.2473 -0.1453
10788TIP3    H153855   0.947   1.384   5.698 -0.2128 -1.1300 -0.8633
10788TIP3    H253856   0.831   1.400   5.794  1.7444  0.3189  1.3616
10789TIP3   OH253857   2.163   2.147   6.020  0.2633  0.2211 -0.4314
10789TIP3    H153858   2.174   2.139   6.115  0.0059  0.1460 -0.4076
10789TIP3    H253859   2.202   2.068   5.984 -1.7431 -0.9362 -0.2392
10790TIP3   OH253860   3.515   0.909   2.999 -0.2496 -0.3857  0.0789
10790TIP3    H153861   3.494   0.903   2.906 -0.0080 -0.1371  0.0071
10790TIP3    H253862   3.611   0.903   3.003  0.0119  2.5287  0.0392
10791TIP3   OH253863   1.172   0.534   0.439 -0.2829  0.6145  0.0532
10791TIP3    H153864   1.134   0.462   0.388 -1.3747  1.4779 -0.4016
10791TIP3    H253865   1.185   0.604   0.374 -1.1521  1.5278  0.8363
10792TIP3   OH253866   5.559   5.404  11.112 -0.3504  0.1014 -0.0069
10792TIP3    H153867   5.594   5.450  11.036  0.1729  2.7959  1.7600
10792TIP3    H253868   5.492   5.462  11.148  0.2562 -0.5060  2.2845
10793TIP3   OH253869   5.671   2.988   0.556  0.2150  0.1002 -0.1562
10793TIP3    H153870   5.705   2.982   0.645 -0.5187 -1.5425  0.0540
10793TIP3    H253871   5.592   3.042   0.564  0.0165 -0.2442  0.2338
10794TIP3   OH253872   0.669   1.631   4.223 -0.0756 -0.4015  0.2637
10794TIP3    H153873   0.729   1.631   4.149  0.9951 -0.0079  1.1121
10794TIP3    H253874   0.583   1.618   4.184  0.1068  2.4299 -1.3678
10795TIP3   OH253875   5.971   0.512   0.674  0.3477 -0.4663 -0.1369
10795TIP3    H153876   6.003   0.426   0.648 -1.6376 -0.7898 -1.7465
10795TIP3    H253877   5.960   0.560   0.592 -1.8838  0.0604  0.4062
10796TIP3   OH253878   3.435   3.578   5.767  0.0947  0.2102 -0.1365
10796TIP3    H153879   3.372   3.517   5.728  0.7207 -0.2065 -0.5266
10796TIP3    H253880   3.501   3.522   5.807 -0.1964  0.6388  0.9821
10797TIP3   OH253881   0.499   1.465  12.567  0.0736  0.7839  0.7015
10797TIP3    H153882   0.432   1.403  12.597 -0.2185  1.4386  1.4249
10797TIP3    H253883   0.574   1.410  12.543 -0.2766  0.1333  1.0826
10798TIP3   OH253884   3.937   1.377  15.123 -0.3776 -0.2121 -0.1915
10798TIP3    H153885   3.976   1.372  15.035  0.3301  2.2349 -0.0909
10798TIP3    H253886   4.012   1.391  15.181 -1.0274  0.1378  0.5752
10799TIP3   OH253887   2.222   5.292  15.052 -0.4934  0.3401 -0.3804
10799TIP3    H153888   2.180   5.211  15.024 -2.4222  1.3247 -0.4834
10799TIP3    H253889   2.156   5.360  15.039  0.4481  1.6853  1.3303
10800TIP3   OH253890   0.315   5.666   0.624 -0.9501  0.0458 -0.2544
10800TIP3    H153891   0.402   5.628   0.619 -0.4542  1.2925 -2.9096
10800TIP3    H253892   0.330   5.759   0.639 -1.9706 -0.0358  1.6245
10801TIP3   OH253893   2.832   0.741  17.209 -0.4972  0.0424  0.1168
10801TIP3    H153894   2.885   0.730  17.130 -1.6460  0.6524 -0.7535
10801TIP3    H253895   2.770   0.668  17.206 -1.3222  0.7456 -0.1876
10802TIP3   OH253896   2.891   1.828  14.334 -0.7849  0.0954  0.6840
10802TIP3    H153897   2.859   1.872  14.256 -1.0758 -0.7757  0.2970
10802TIP3    H253898   2.900   1.736  14.308  0.9684  0.1178  1.1073
10803TIP3   OH253899   5.629   0.324   5.325  0.1724  0.5733  0.0553
10803TIP3    H153900   5.683   0.353   5.399  0.5177 -1.2049  0.5594
10803TIP3    H253901   5.664   0.238   5.302 -1.7687 -0.1724 -0.3114
10804TIP3   OH253902   0.707   6.310   2.518  0.6169  0.4216 -0.1741
10804TIP3    H153903   0.744   6.285   2.434  1.0546  1.2450 -0.2360
10804TIP3    H253904   0.663   6.231   2.549  1.4315 -0.2350 -0.6404
10805TIP3   OH253905   2.448   1.842   5.710  0.2833  0.0704  0.2356
10805TIP3    H153906   2.530   1.849   5.760  0.6741 -1.2656 -0.1734
10805TIP3    H253907   2.472   1.790   5.633 -0.7327  0.5279 -0.4029
10806TIP3   OH253908   2.041   0.597   3.148 -0.3222 -0.4031 -0.4498
10806TIP3    H153909   1.955   0.576   3.186  0.0884 -1.2833  0.0394
10806TIP3    H253910   2.023   0.668   3.087 -1.3067 -0.1667  0.0761
10807TIP3   OH253911   6.598   0.226  17.020 -0.4798  0.2297 -0.2303
10807TIP3    H153912   6.622   0.140  16.986  1.5046  0.6260  0.0323
10807TIP3    H253913   6.641   0.232  17.105 -0.0080  1.7186 -0.5402
10808TIP3   OH253914   5.387   5.281   5.005 -0.7211 -0.0241  0.2639
10808TIP3    H153915   5.374   5.375   5.001 -1.0354 -0.0756  0.0462
10808TIP3    H253916   5.455   5.263   4.939  2.6919  0.6034  3.2979
10809TIP3   OH253917   2.706   3.718  15.028  0.2011  0.1211 -0.1981
10809TIP3    H153918   2.675   3.774  15.100 -1.4697  1.1800 -1.6529
10809TIP3    H253919   2.639   3.651  15.020 -0.3064  0.7473 -1.5363
10810TIP3   OH253920   1.651   5.900   1.780 -0.6968 -0.3084  0.2976
10810TIP3    H153921   1.667   5.848   1.701  0.0716 -0.8916  0.8188
10810TIP3    H253922   1.726   5.880   1.837 -1.4294 -0.1869  1.3235
10811TIP3   OH253923   2.532   2.993  16.440  0.1283 -0.2522  0.2146
10811TIP3    H153924   2.627   2.992  16.425 -0.0688 -1.4284 -1.1533
10811TIP3    H253925   2.501   3.070  16.393  0.3409 -0.2042  0.1526
10812TIP3   OH253926   5.002   1.329  14.648  0.0755  0.0701 -0.5518
10812TIP3    H153927   4.941   1.260  14.672  1.7771 -1.6626 -0.9506
10812TIP3    H253928   5.044   1.298  14.568  2.4403  0.4914  0.4286
10813TIP3   OH253929   0.437   4.523  16.779 -0.5181  0.6879 -0.2842
10813TIP3    H153930   0.528   4.539  16.804 -0.5281  0.2894  0.0145
10813TIP3    H253931   0.410   4.604  16.736 -0.0337  0.8230 -0.3475
10814TIP3   OH253932   0.089   0.805  11.944 -0.1063  0.7023 -0.1387
10814TIP3    H153933   0.038   0.726  11.926 -0.3955  0.0689  2.9582
10814TIP3    H253934   0.056   0.836  12.028  1.7731  2.6795 -0.0522
10815TIP3   OH253935   4.872   5.952   0.826 -0.0400 -0.0288  0.3517
10815TIP3    H153936   4.891   5.984   0.738 -0.5395  2.5724  1.0862
10815TIP3    H253937   4.782   5.919   0.820  0.5188 -1.4918 -0.4617
10816TIP3   OH253938   3.094   0.963   4.597 -0.1969  0.0158 -0.3108
10816TIP3    H153939   3.023   0.947   4.659 -0.5471  1.0650 -0.4084
10816TIP3    H253940   3.126   1.051   4.621  0.8045 -0.2816 -0.5234
10817TIP3   OH253941   6.642   5.702  15.812  0.3119 -0.4706 -0.1576
10817TIP3    H153942   6.553   5.702  15.846  0.5297 -1.7690  0.5214
10817TIP3    H253943   6.646   5.776  15.752 -2.0382 -1.9158 -2.3241
10818TIP3   OH253944   5.601   1.969   1.476  0.3005  0.6299  0.0082
10818TIP3    H153945   5.580   2.049   1.428  0.1668  1.7879  1.8727
10818TIP3    H253946   5.682   1.937   1.437  1.0495  2.4010  0.0211
10819TIP3   OH253947   3.507   1.382  16.662  0.0396 -0.2469  0.6427
10819TIP3    H153948   3.435   1.386  16.724 -0.5045  0.7624 -0.0213
10819TIP3    H253949   3.578   1.339  16.710  0.0324  1.5544  2.3790
10820TIP3   OH253950   1.877   1.712  15.938  0.3798  0.4031  0.6654
10820TIP3    H153951   1.846   1.629  15.974 -0.8627  0.1140 -0.9262
10820TIP3    H253952   1.890   1.694  15.845  1.0958  1.7358  0.4837
10821TIP3   OH253953   3.257   1.093  14.056  0.1380  0.1407 -0.5443
10821TIP3    H153954   3.329   1.067  14.114  0.6328  0.8331 -0.8383
10821TIP3    H253955   3.296   1.092  13.968 -0.5244 -0.5982 -0.8397
10822TIP3   OH253956   5.876   5.980   4.765  1.0061 -0.1944 -0.1330
10822TIP3    H153957   5.792   5.999   4.806  1.4836  1.8086  0.0184
10822TIP3    H253958   5.853   5.930   4.686 -0.5674  2.0375 -1.2172
10823TIP3   OH253959   1.799   4.676  14.244 -0.0144 -0.3818  0.3575
10823TIP3    H153960   1.724   4.620  14.265 -0.1955  0.1138  1.0832
10823TIP3    H253961   1.777   4.761  14.284  1.4355 -0.5542  1.5832
10824TIP3   OH253962   3.934   3.127  13.097  0.2151 -0.7131 -0.1633
10824TIP3    H153963   3.929   3.218  13.067 -0.7206 -1.0817 -1.2044
10824TIP3    H253964   4.004   3.088  13.045  0.2456 -0.7279 -0.1118
10825TIP3   OH253965   2.155   3.538  15.604  0.1169  0.3762 -0.9294
10825TIP3    H153966   2.101   3.526  15.682 -0.6775  1.7871 -1.2393
10825TIP3    H253967   2.111   3.487  15.536 -0.3559  0.8162 -0.9599
10826TIP3   OH253968   0.767   0.333  15.701  0.3417  0.2271  0.1213
10826TIP3    H153969   0.704   0.278  15.746 -1.1428 -0.5819 -2.7033
10826TIP3    H253970   0.852   0.307  15.736 -0.5480 -1.8309  0.8965
10827TIP3   OH253971   4.562   6.274  10.978 -1.0244  0.7659 -0.1471
10827TIP3    H153972   4.593   6.364  10.985 -1.2610  0.8611 -0.3058
10827TIP3    H253973   4.641   6.221  10.986 -0.9992  0.9496  0.8789
10828TIP3   OH253974   0.688   5.830  14.610  0.0314  0.1653 -0.4650
10828TIP3    H153975   0.759   5.895  14.611 -0.1638  0.3830  0.5228
10828TIP3    H253976   0.708   5.774  14.534  0.8549  0.6617 -0.6327
10829TIP3   OH253977   4.419   2.865   0.868  0.5324  0.7075 -0.5309
10829TIP3    H153978   4.324   2.875   0.864  0.2491 -0.5517  1.7468
10829TIP3    H253979   4.447   2.867   0.776 -1.6297  1.4140 -1.2259
10830TIP3   OH253980   3.528   6.476  14.701 -0.1156 -0.6349  0.7262
10830TIP3    H153981   3.441   6.498  14.734 -0.5271 -1.6087  0.3636
10830TIP3    H253982   3.588   6.532  14.749 -0.9416  0.0078  1.0292
10831TIP3   OH253983   2.266   6.057  16.513 -0.4427 -0.4699  0.0212
10831TIP3    H153984   2.178   6.055  16.477  0.0123 -3.8711 -1.2683
10831TIP3    H253985   2.316   6.109  16.450 -1.2557  0.3903  0.0695
10832TIP3   OH253986   5.528   5.465  14.694 -0.0363 -0.1277 -0.3755
10832TIP3    H153987   5.440   5.501  14.689 -0.5426 -1.3703 -0.7591
10832TIP3    H253988   5.525   5.403  14.767  0.1955 -0.9764 -1.0638
10833TIP3   OH253989   3.213   3.377  12.602  0.0788 -0.0049  0.0722
10833TIP3    H153990   3.307   3.382  12.620  0.2158  1.8846 -0.9193
10833TIP3    H253991   3.173   3.364  12.688  1.3025 -2.9318  0.3170
10834TIP3   OH253992   1.124   3.643  11.322 -0.0013  0.4615  0.4216
10834TIP3    H153993   1.102   3.635  11.414  0.0156  1.2196  0.5011
10834TIP3    H253994   1.113   3.555  11.286  1.5241 -0.1998  1.4832
10835TIP3   OH253995   3.959   1.951   5.406 -0.2966 -0.3388  1.0228
10835TIP3    H153996   4.004   2.013   5.350  0.5975  0.9618  3.0667
10835TIP3    H253997   3.909   1.896   5.346  1.1300  0.5209 -1.0581
10836TIP3   OH253998   4.978   3.807   3.112 -0.5540 -0.3315  0.1649
10836TIP3    H153999   4.951   3.716   3.110 -1.4167 -0.0982  0.7877
10836TIP3    H254000   4.934   3.847   3.037 -0.7534 -0.2683  0.3165
10837TIP3   OH254001   4.448   1.399   2.564 -0.2455 -0.0820 -0.0600
10837TIP3    H154002   4.450   1.475   2.622 -1.3938  0.3573 -0.5790
10837TIP3    H254003   4.540   1.372   2.558  0.5940  2.7545 -1.8126
10838TIP3   OH254004   0.075   4.239  15.782  0.1699 -0.8538 -0.5739
10838TIP3    H154005  -0.019   4.223  15.772 -0.7009  2.1486  1.4868
10838TIP3    H254006   0.102   4.179  15.851 -0.4493 -1.1293 -0.5605
10839TIP3   OH254007   2.028   5.829   1.138 -0.1294  0.5430 -0.0130
10839TIP3    H154008   2.031   5.913   1.183 -1.3091  0.0449  1.0404
10839TIP3    H254009   1.986   5.848   1.054 -1.3871  0.8522  0.6570
10840TIP3   OH254010   3.713   5.546  10.892 -0.4055 -0.3999 -0.6389
10840TIP3    H154011   3.621   5.560  10.917 -0.3515 -0.6836 -0.2707
10840TIP3    H254012   3.710   5.472  10.832 -0.4344 -0.3032 -0.7578
10841TIP3   OH254013   4.413   5.721  13.908  0.6737 -0.5334 -0.3117
10841TIP3    H154014   4.435   5.801  13.860 -0.9315 -0.6631 -1.3240
10841TIP3    H254015   4.466   5.653  13.868  2.1068 -0.0143  0.6032
10842TIP3   OH254016   6.568   0.797  12.500  0.3792  0.7945  0.3370
10842TIP3    H154017   6.500   0.828  12.560 -2.3294 -0.5094 -1.8552
10842TIP3    H254018   6.581   0.871  12.440 -0.9517  0.2494 -0.6775
10843TIP3   OH254019   4.986   1.601  13.789 -0.2717 -0.1066  0.3070
10843TIP3    H154020   5.029   1.522  13.823 -0.8227  0.0561  1.4231
10843TIP3    H254021   5.045   1.632  13.721  0.5190 -0.8514  0.6268
10844TIP3   OH254022   4.857   2.942   1.739  0.2455  0.7224  0.3135
10844TIP3    H154023   4.876   2.961   1.831  0.2072 -0.6403  0.6384
10844TIP3    H254024   4.762   2.929   1.736  0.4794 -1.5557  0.6174
10845TIP3   OH254025   0.314   2.124   2.238  0.2531  0.4173 -0.2731
10845TIP3    H154026   0.304   2.111   2.143 -0.8788  0.4551 -0.1732
10845TIP3    H254027   0.295   2.217   2.251 -0.9669  0.1385  0.1339
10846TIP3   OH254028   1.664   1.337   5.256  0.0801  0.3455 -0.2259
10846TIP3    H154029   1.711   1.270   5.205 -1.2395 -1.5580  0.9247
10846TIP3    H254030   1.578   1.299   5.273 -0.0503  1.4973  2.1668
10847TIP3   OH254031   6.231   1.216  10.866  0.5639  0.0829 -0.3530
10847TIP3    H154032   6.277   1.212  10.782 -0.0863  0.9337 -0.7594
10847TIP3    H254033   6.240   1.307  10.894 -0.0966  0.0457  0.0027
10848TIP3   OH254034   4.326   6.391   4.524 -0.2407  0.6218 -0.1840
10848TIP3    H154035   4.353   6.328   4.458  0.2601 -0.0386  0.6217
10848TIP3    H254036   4.408   6.424   4.560 -0.4883  1.9958 -0.8124
10849TIP3   OH254037   2.162   3.043   0.238 -0.3510 -0.0979  0.5094
10849TIP3    H154038   2.139   2.951   0.249 -0.7677  0.1416  1.7009
10849TIP3    H254039   2.086   3.092   0.270  0.9060  0.6837  2.4560
10850TIP3   OH254040   3.157   1.632  16.624 -0.7480 -0.2487 -0.6103
10850TIP3    H154041   3.125   1.555  16.670 -2.3810  0.0633 -1.1594
10850TIP3    H254042   3.143   1.612  16.531 -0.0737  0.2374 -0.8293
10851TIP3   OH254043   0.080   4.506  11.432  0.4625 -0.6655 -0.5101
10851TIP3    H154044   0.136   4.430  11.443  0.6099 -0.8401 -2.1978
10851TIP3    H254045  -0.002   4.483  11.475  0.5525 -1.7317 -0.8939
10852TIP3   OH254046   5.184   4.383   1.017 -0.4661 -0.1831  0.7248
10852TIP3    H154047   5.213   4.364   1.106 -1.1168  5.2255  2.4573
10852TIP3    H254048   5.089   4.395   1.025 -0.7318 -0.8817 -1.0426
10853TIP3   OH254049   1.220   5.808   3.739  0.2470 -0.1232 -1.0313
10853TIP3    H154050   1.206   5.714   3.729  1.5299 -0.4419 -0.1242
10853TIP3    H254051   1.172   5.848   3.666 -0.0878 -1.4931 -1.5821
10854TIP3   OH254052   5.485   4.328   1.545  0.6447  0.0410 -0.6838
10854TIP3    H154053   5.420   4.381   1.591  1.7362  0.7477  0.1115
10854TIP3    H254054   5.510   4.260   1.608 -0.5997 -1.3430 -1.6277
10855TIP3   OH254055   5.158   1.214  15.607  0.5965  0.0282 -0.1450
10855TIP3    H154056   5.164   1.270  15.684  2.4992  0.9184 -0.9072
10855TIP3    H254057   5.155   1.274  15.533  0.6727 -0.8412 -0.8701
10856TIP3   OH254058   6.571   3.707  12.418 -0.6041  0.1319  0.1781
10856TIP3    H154059   6.590   3.696  12.325 -3.1625 -0.1064 -0.3661
10856TIP3    H254060   6.514   3.634  12.441  0.6028 -0.2839  2.1911
10857TIP3   OH254061   1.480   0.396   1.403  0.3510  1.0667  0.2001
10857TIP3    H154062   1.541   0.329   1.432 -0.6049 -0.6081 -1.4589
10857TIP3    H254063   1.441   0.361   1.323  0.5402  4.0526 -1.3422
10858TIP3   OH254064   1.944   0.719  13.735 -0.3114  0.1384  0.5795
10858TIP3    H154065   1.900   0.772  13.669 -0.3380 -1.6594 -0.9201
10858TIP3    H254066   1.887   0.643  13.747  1.4156 -1.3298 -0.0541
10859TIP3   OH254067   4.222   4.714   5.230  0.2718 -0.0610 -0.5223
10859TIP3    H154068   4.128   4.704   5.217  0.2517 -2.1883  0.8628
10859TIP3    H254069   4.261   4.693   5.145 -0.4728  1.4808 -1.2945
10860TIP3   OH254070   4.441   0.236   4.448 -0.1707 -0.0879  0.3586
10860TIP3    H154071   4.391   0.264   4.524 -0.4625 -0.2429  0.2274
10860TIP3    H254072   4.407   0.149   4.427 -0.8410  0.3846 -0.5893
10861TIP3   OH254073   2.683   0.736  15.390 -0.0894 -0.1253 -0.1853
10861TIP3    H154074   2.670   0.715  15.298  0.2741 -1.9693  0.1554
10861TIP3    H254075   2.774   0.765  15.395  0.1117 -0.7375 -0.2853
10862TIP3   OH254076   5.836   6.064   0.666  0.3747 -0.0952  0.1967
10862TIP3    H154077   5.884   6.012   0.731  0.6053  1.1855  1.1076
10862TIP3    H254078   5.750   6.078   0.706  0.0964 -0.3116 -0.3250
10863TIP3   OH254079   2.096   3.911   4.179 -0.0023 -0.0758  0.5077
10863TIP3    H154080   2.079   3.960   4.099  3.3177  0.3748 -0.0825
10863TIP3    H254081   2.125   3.977   4.242 -0.4487 -0.6944  1.3949
10864TIP3   OH254082   3.174   1.467  11.513  0.6266  0.5424  0.1202
10864TIP3    H154083   3.189   1.545  11.568 -0.0803  2.4419 -2.2099
10864TIP3    H254084   3.081   1.472  11.490  0.2283 -1.8026  0.9652
10865TIP3   OH254085   3.257   6.582   5.589 -0.4310  0.0462  0.0614
10865TIP3    H154086   3.321   6.555   5.655 -1.0688 -1.0615  0.2393
10865TIP3    H254087   3.234   6.502   5.543  0.1894  0.8424 -1.7046
10866TIP3   OH254088   0.636   3.274   1.656 -0.2847 -0.1943  0.1472
10866TIP3    H154089   0.700   3.234   1.598 -1.2075  0.1896 -1.1781
10866TIP3    H254090   0.657   3.367   1.656 -0.7993 -0.0704 -0.2656
10867TIP3   OH254091   3.275   5.863   5.691 -0.1459 -0.4209 -0.2049
10867TIP3    H154092   3.198   5.807   5.699 -0.5272  0.2657  1.3700
10867TIP3    H254093   3.268   5.924   5.764 -0.0763  2.0999 -2.1663
10868TIP3   OH254094   0.616   2.212  15.767  0.2644  0.9302 -0.0196
10868TIP3    H154095   0.673   2.136  15.780  0.2455  0.8248 -0.5461
10868TIP3    H254096   0.665   2.284  15.807  0.2553  0.6376  0.5374
10869TIP3   OH254097   2.899   4.315  12.138  0.1430 -0.4449  0.0636
10869TIP3    H154098   2.936   4.328  12.225  0.1040  1.0359 -0.1111
10869TIP3    H254099   2.824   4.258  12.153  0.2889 -0.4193  0.9676
10870TIP3   OH254100   4.552   5.588  15.642  0.5083 -0.6172  0.0392
10870TIP3    H154101   4.557   5.538  15.561  0.1025  1.6542 -1.4823
10870TIP3    H254102   4.603   5.667  15.625 -0.2101  0.2728  1.7303
10871TIP3   OH254103   4.558   6.306   1.368  0.2430 -0.0551  0.0906
10871TIP3    H154104   4.642   6.269   1.343  1.6701  2.2023  1.1428
10871TIP3    H254105   4.572   6.401   1.364 -3.2747  0.5704 -2.9455
10872TIP3   OH254106   3.339   4.066  15.796  0.0242 -0.3190 -0.5892
10872TIP3    H154107   3.381   3.987  15.764 -0.1039 -1.6060  2.1178
10872TIP3    H254108   3.404   4.105  15.856 -1.4254 -0.7214  1.3383
10873TIP3   OH254109   3.324   2.851   0.793 -1.4041 -0.7765 -0.2505
10873TIP3    H154110   3.238   2.893   0.796 -0.8294  0.4292  0.0317
10873TIP3    H254111   3.344   2.846   0.699 -1.9194 -1.3834 -0.3369
10874TIP3   OH254112   0.237   5.148  13.144 -0.7348  0.4903  0.2675
10874TIP3    H154113   0.156   5.097  13.139 -0.1427 -0.5320  0.8295
10874TIP3    H254114   0.264   5.140  13.236  1.3682 -1.3573 -0.4360
10875TIP3   OH254115   2.473   0.863  11.850  0.4631  0.4910 -0.2568
10875TIP3    H154116   2.384   0.846  11.881 -0.0052  1.6553 -0.9122
10875TIP3    H254117   2.505   0.777  11.823 -0.9372  0.2299 -1.2243
10876TIP3   OH254118   6.007   6.245   2.033  0.2630  0.2190  0.2259
10876TIP3    H154119   5.979   6.223   2.122  1.5325 -0.0217  0.5873
10876TIP3    H254120   5.944   6.200   1.976  0.0529 -0.4890  1.0007
10877TIP3   OH254121   1.756   1.293   4.206 -0.6123 -0.2283 -0.0092
10877TIP3    H154122   1.784   1.331   4.289  1.1165  0.2334 -0.7618
10877TIP3    H254123   1.665   1.320   4.197  0.3638  3.4002 -0.2721
10878TIP3   OH254124   2.358   4.122   5.611  0.0922 -0.1150  0.6150
10878TIP3    H154125   2.275   4.117   5.659  0.0647 -0.4909  0.5324
10878TIP3    H254126   2.334   4.106   5.520  0.1793  0.3559  0.5097
10879TIP3   OH254127   4.685   0.677   1.216  0.1037 -0.1418 -0.2325
10879TIP3    H154128   4.603   0.689   1.264 -0.1093 -2.1498  0.0166
10879TIP3    H254129   4.753   0.691   1.281 -0.0603  0.6157 -0.2158
10880TIP3   OH254130   3.205   2.525   4.507 -0.6021  0.4489  0.2034
10880TIP3    H154131   3.183   2.479   4.426 -1.8260 -1.8473  1.7323
10880TIP3    H254132   3.274   2.587   4.481 -2.6003  1.5625 -3.0417
10881TIP3   OH254133   0.329   0.961  11.983  0.0520  0.7426 -0.5234
10881TIP3    H154134   0.250   0.907  11.991 -0.2865  0.8715 -2.4098
10881TIP3    H254135   0.386   0.931  12.054 -0.8469 -0.8346 -0.4118
10882TIP3   OH254136   5.194   4.582   0.757  0.7782 -0.1686 -0.1427
10882TIP3    H154137   5.203   4.510   0.819  0.5553 -0.0966 -0.0231
10882TIP3    H254138   5.259   4.646   0.785  0.8265 -0.2290 -0.1150
10883TIP3   OH254139   0.962   6.323   5.592 -0.0821 -0.3967 -0.3269
10883TIP3    H154140   0.952   6.245   5.537 -0.9802  0.4043 -1.3513
10883TIP3    H254141   0.997   6.390   5.533 -1.1478  0.5134  0.0343
10884TIP3   OH254142   1.685   1.793  15.322 -0.2405 -0.2737 -0.3113
10884TIP3    H154143   1.769   1.812  15.364  0.0095 -0.9896 -0.4649
10884TIP3    H254144   1.640   1.877  15.319  0.6489  0.2057 -0.6329
10885TIP3   OH254145   4.325   4.634   4.982  0.0799  0.2107  0.2283
10885TIP3    H154146   4.336   4.539   4.988  0.1104  0.2833  1.9950
10885TIP3    H254147   4.374   4.660   4.904 -0.6624 -1.3211 -0.7860
10886TIP3   OH254148   3.832   2.124   6.134 -0.3572  0.2959 -0.0883
10886TIP3    H154149   3.823   2.138   6.229 -2.1511 -0.0937 -0.1807
10886TIP3    H254150   3.747   2.148   6.098 -0.9622 -2.9673 -1.1782
10887TIP3   OH254151   3.152   2.548  15.152  0.2274 -0.1975 -0.6997
10887TIP3    H154152   3.128   2.579  15.239  0.1256 -1.1305 -0.3811
10887TIP3    H254153   3.202   2.620  15.113 -0.2514  0.4605 -0.1055
10888TIP3   OH254154   5.814   1.357  11.625 -0.2563 -0.3121 -0.1206
10888TIP3    H154155   5.756   1.388  11.556 -1.2302 -0.1224  0.7600
10888TIP3    H254156   5.775   1.389  11.706 -0.0451 -1.9055  0.6512
10889TIP3   OH254157   6.519   6.769   1.809  0.1813 -0.3652 -0.2406
10889TIP3    H154158   6.481   6.734   1.890  0.2291 -1.2484 -0.5883
10889TIP3    H254159   6.451   6.827   1.774  0.5110  0.7412  0.8868
10890TIP3   OH254160   2.205   5.927   1.820  0.2378 -0.2905  0.3989
10890TIP3    H154161   2.124   5.953   1.776  1.0011  0.8561 -0.3804
10890TIP3    H254162   2.200   5.969   1.906  1.7567  3.3197 -1.0661
10891TIP3   OH254163   6.429   2.218  15.764  1.0486 -0.2177  0.0362
10891TIP3    H154164   6.339   2.210  15.795  0.3862 -0.6538 -1.8735
10891TIP3    H254165   6.461   2.128  15.757  2.2851 -0.0347  2.3249
10892TIP3   OH254166   2.215   4.824   0.184 -0.6098  0.3871  0.0509
10892TIP3    H154167   2.302   4.855   0.159 -0.1072 -0.7778  0.2479
10892TIP3    H254168   2.203   4.744   0.132  0.2512 -1.8176  2.9819
10893TIP3   OH254169   4.678   6.452  15.935 -0.7453  0.3849  0.2561
10893TIP3    H154170   4.725   6.386  15.986 -1.4631 -0.6281 -0.3877
10893TIP3    H254171   4.586   6.428  15.942 -1.2882  2.5619  1.8049
10894TIP3   OH254172   0.704   0.003   3.393  0.5219 -0.4008  0.8027
10894TIP3    H154173   0.687  -0.009   3.299  0.6621  3.0268  0.1974
10894TIP3    H254174   0.617   0.021   3.430  0.7982  1.5547  0.6245
10895TIP3   OH254175   4.355   5.201  15.993 -0.1877  0.0524 -0.0379
10895TIP3    H154176   4.340   5.157  15.910  0.9258 -0.6640  0.1114
10895TIP3    H254177   4.450   5.197  16.005 -0.1244  1.9381  0.3072
10896TIP3   OH254178   5.807   0.998   3.910 -0.5087  0.5295 -0.7605
10896TIP3    H154179   5.863   0.943   3.965 -0.9826 -0.0437 -0.8397
10896TIP3    H254180   5.748   1.041   3.971  0.8705  2.1937 -0.5318
10897TIP3   OH254181   3.770   3.253  12.560  0.3584  0.0911  0.1489
10897TIP3    H154182   3.835   3.212  12.617  0.9170  0.3279 -0.3062
10897TIP3    H254183   3.755   3.189  12.491 -1.4641 -0.8588  1.3308
10898TIP3   OH254184   1.048   6.435  12.335  0.2165  0.1005  0.5791
10898TIP3    H154185   1.111   6.505  12.357  0.7887 -0.8278  2.0295
10898TIP3    H254186   0.982   6.440  12.404 -1.0140  0.6537 -0.5860
10899TIP3   OH254187   4.764   0.080   3.056 -0.4184 -0.2116 -0.7925
10899TIP3    H154188   4.817   0.153   3.089  0.5054 -1.6395  1.1006
10899TIP3    H254189   4.743   0.104   2.966 -2.2668  3.5468  0.4170
10900TIP3   OH254190   3.867   5.899  11.138 -0.4883  0.7696  0.0125
10900TIP3    H154191   3.858   5.993  11.151 -0.1534  0.9260 -0.8291
10900TIP3    H254192   3.961   5.882  11.149 -0.9947 -0.2425  4.8815
10901TIP3   OH254193   3.040   6.628  16.148 -0.1249 -0.3251  0.0051
10901TIP3    H154194   3.006   6.658  16.064  0.5265  0.5816  0.0444
10901TIP3    H254195   3.124   6.588  16.127  0.5212  0.8196  0.3189
10902TIP3   OH254196   2.029   5.513  14.989  0.3053  0.3684 -0.4310
10902TIP3    H154197   1.935   5.523  15.006  0.5669  0.1637  1.2718
10902TIP3    H254198   2.070   5.587  15.034  1.0763 -0.4413  0.2532
10903TIP3   OH254199   4.135   3.774   1.984  0.5301 -0.2311  0.3370
10903TIP3    H154200   4.099   3.689   2.009  0.8953  0.0441  1.9462
10903TIP3    H254201   4.093   3.836   2.044 -0.7455  0.9579 -1.6828
10904TIP3   OH254202   4.806   2.015  15.266 -0.0265  0.0129  0.3531
10904TIP3    H154203   4.876   2.022  15.201  0.4086 -1.3330  0.6322
10904TIP3    H254204   4.850   1.982  15.345 -0.5253  1.7240  1.3950
10905TIP3   OH254205   5.364   3.953  14.179 -0.0532  0.3085 -0.1000
10905TIP3    H154206   5.274   3.941  14.210 -0.0887 -1.4654 -0.7608
10905TIP3    H254207   5.417   3.906  14.243  0.0078 -2.0078 -1.7070
10906TIP3   OH254208   6.128   3.435   4.766 -0.3747  0.0395  0.3697
10906TIP3    H154209   6.205   3.441   4.822 -0.4270 -0.2108  0.4696
10906TIP3    H254210   6.084   3.520   4.776  0.8609  0.9081 -1.1169
10907TIP3   OH254211   6.012   2.353  14.916 -0.0115  0.4023  0.3535
10907TIP3    H154212   5.946   2.412  14.881  0.3315  0.8629  0.4613
10907TIP3    H254213   6.063   2.408  14.977 -0.8544 -0.4680  1.9048
10908TIP3   OH254214   6.435   2.612   1.416 -0.0728 -0.5603 -0.3659
10908TIP3    H154215   6.364   2.559   1.379  0.1291  0.4101 -2.2289
10908TIP3    H254216   6.402   2.640   1.501 -1.4457 -1.0805 -0.7006
10909TIP3   OH254217   3.184   4.630   3.131  0.0637  0.2155 -0.6941
10909TIP3    H154218   3.110   4.690   3.138  0.1087  0.2345 -0.3919
10909TIP3    H254219   3.228   4.657   3.050  0.4213  0.9729 -0.2572
10910TIP3   OH254220   0.583   6.375  11.896  0.4899 -0.1728  0.7959
10910TIP3    H154221   0.495   6.398  11.925 -0.5816 -2.3456 -0.4318
10910TIP3    H254222   0.632   6.359  11.977 -0.7739 -0.6241  1.5023
10911TIP3   OH254223   1.542   3.387   0.035 -0.0755 -0.7163  0.3173
10911TIP3    H154224   1.517   3.304  -0.006 -1.2686  0.0473 -0.5802
10911TIP3    H254225   1.461   3.419   0.075 -1.0256  2.3111 -3.4951
10912TIP3   OH254226   3.643   4.810  15.511  0.2576 -0.3312 -0.4182
10912TIP3    H154227   3.661   4.904  15.505 -3.1578  0.6303  1.4853
10912TIP3    H254228   3.682   4.783  15.594 -0.2945 -0.1238 -0.0838
10913TIP3   OH254229   5.614   1.964   5.254  0.2080  0.4936  0.1706
10913TIP3    H154230   5.539   1.997   5.204  0.6515 -0.5421 -1.2151
10913TIP3    H254231   5.684   2.027   5.235 -0.0621  1.0055  0.8165
10914TIP3   OH254232   4.824   5.368   5.241 -0.2504 -0.3584 -0.2824
10914TIP3    H154233   4.888   5.381   5.311  0.7302 -0.8561 -1.0610
10914TIP3    H254234   4.784   5.455   5.228 -0.6994 -0.3421  1.1119
10915TIP3   OH254235   5.886   3.157   1.247 -0.0340 -0.8245  0.3450
10915TIP3    H154236   5.810   3.212   1.266 -0.6265 -1.1789 -0.9575
10915TIP3    H254237   5.955   3.220   1.226  0.3525 -0.4546  2.4166
10916TIP3   OH254238   2.549   5.571   0.569 -0.2008  0.7188  0.1480
10916TIP3    H154239   2.548   5.509   0.496 -2.3390  1.7928 -0.8224
10916TIP3    H254240   2.639   5.567   0.602  0.6296 -0.4067 -2.0150
10917TIP3   OH254241   3.169   2.333   4.312  0.6134 -0.0063 -0.3682
10917TIP3    H154242   3.109   2.337   4.238  0.2723 -0.0882 -0.1003
10917TIP3    H254243   3.250   2.297   4.276  0.6413  0.4963 -0.8238
10918TIP3   OH254244   5.279   4.064  10.829 -0.1319  1.1310 -0.1018
10918TIP3    H154245   5.261   4.007  10.754 -2.0224  2.3711 -0.6606
10918TIP3    H254246   5.197   4.065  10.878  0.1257  2.7149  0.3281
10919TIP3   OH254247   5.555   5.488   2.554 -0.0057 -0.3025  0.3556
10919TIP3    H154248   5.569   5.394   2.546 -1.0423 -0.3068 -2.1836
10919TIP3    H254249   5.617   5.527   2.493 -0.7825  0.5344  0.0872
10920TIP3   OH254250   5.270   0.220   4.496 -0.1929 -0.5264 -0.2433
10920TIP3    H154251   5.293   0.216   4.404  2.5183 -0.7228  0.3497
10920TIP3    H254252   5.258   0.128   4.522  1.2498 -0.6595  0.0384
10921TIP3   OH254253   0.018   4.015   3.877  0.4367 -0.7151 -0.0748
10921TIP3    H154254   0.015   4.079   3.948  0.0510  1.3245 -1.8482
10921TIP3    H254255   0.106   4.022   3.842 -0.2913  0.6066 -1.7645
10922TIP3   OH254256   1.382   5.454   2.518 -0.2471  0.7917  0.5372
10922TIP3    H154257   1.361   5.403   2.596 -0.1972 -1.0193 -0.5838
10922TIP3    H254258   1.478   5.453   2.513 -0.2419  1.0649  0.5406
10923TIP3   OH254259   4.134   5.908  14.481 -0.4756 -0.6273 -0.3559
10923TIP3    H154260   4.162   5.880  14.394 -1.9347  2.5952 -2.0314
10923TIP3    H254261   4.213   5.942  14.522 -0.0650 -0.6251 -1.1218
10924TIP3   OH254262   2.284   0.333  13.141 -0.0013  0.2386  0.3510
10924TIP3    H154263   2.330   0.404  13.187  2.0303 -0.1521 -0.9180
10924TIP3    H254264   2.211   0.376  13.097  1.2148  1.6067 -0.4285
10925TIP3   OH254265   3.965   0.940   6.256  0.5815  0.1052  0.8530
10925TIP3    H154266   4.024   0.868   6.233  0.2842  0.1684 -0.1662
10925TIP3    H254267   3.972   0.948   6.351  2.5535  0.4038  0.7198
10926TIP3   OH254268   3.271   4.848  15.021  0.0426 -0.5302 -0.1560
10926TIP3    H154269   3.200   4.902  14.986 -0.5690 -0.0461  1.6878
10926TIP3    H254270   3.328   4.910  15.068 -0.2803 -1.3405  1.3938
10927TIP3   OH254271   4.540   3.200  12.073  0.0008 -0.5131 -0.6333
10927TIP3    H154272   4.581   3.121  12.039 -1.2009 -1.0973 -0.7970
10927TIP3    H254273   4.508   3.175  12.160  0.3887  0.0601 -0.3204
10928TIP3   OH254274   1.742   1.631   0.047  0.3240 -0.2884 -0.3477
10928TIP3    H154275   1.782   1.709   0.009  0.7133  0.4755  1.4816
10928TIP3    H254276   1.648   1.647   0.042  0.3847  1.5734  2.2623
10929TIP3   OH254277   4.377   1.665   3.479 -0.3916 -0.2301  0.3579
10929TIP3    H154278   4.301   1.607   3.487  0.8832 -1.8288  1.7575
10929TIP3    H254279   4.342   1.753   3.492 -2.3154 -0.6871 -1.2548
10930TIP3   OH254280   4.485   6.035  16.083  0.1321  0.1807  0.4372
10930TIP3    H154281   4.518   6.093  16.014  1.0911 -0.4440  0.3559
10930TIP3    H254282   4.537   6.058  16.160 -0.6550  0.5909  0.8576
10931TIP3   OH254283   0.302   1.991  13.110 -0.4864  0.0343 -0.1254
10931TIP3    H154284   0.371   1.972  13.046  0.1306  0.5432  0.3779
10931TIP3    H254285   0.332   1.949  13.191 -0.8047  0.1951  0.0785
10932TIP3   OH254286   2.678   0.070  11.886  0.2443  0.3470 -0.1816
10932TIP3    H154287   2.594   0.115  11.892  0.9794  1.8574 -0.6902
10932TIP3    H254288   2.732   0.111  11.953  0.2921 -1.3499  0.8749
10933TIP3   OH254289   4.153   6.705  10.742  0.1847 -0.0928 -0.2046
10933TIP3    H154290   4.157   6.628  10.685 -1.8365 -0.1536 -0.3313
10933TIP3    H254291   4.059   6.719  10.756  0.5923  0.7969  1.9313
10934TIP3   OH254292   0.387   1.465   5.325  0.3996 -0.6444  0.2216
10934TIP3    H154293   0.372   1.466   5.420 -2.0271  2.4824 -0.0528
10934TIP3    H254294   0.475   1.501   5.315  0.5968 -0.8014  1.2337
10935TIP3   OH254295   6.592   0.711  16.589 -0.4181 -0.4061 -0.3499
10935TIP3    H154296   6.613   0.636  16.644  0.6821  0.6693  0.7544
10935TIP3    H254297   6.548   0.772  16.648 -0.1614  0.3431 -0.9284
10936TIP3   OH254298   0.473   6.388  12.463 -0.6733  0.6671 -0.8701
10936TIP3    H154299   0.541   6.450  12.437 -1.4163  2.5481  1.3899
10936TIP3    H254300   0.520   6.307  12.481  0.6823  1.3360 -1.2498
10937TIP3   OH254301   2.493   4.466  11.904  0.7265  0.3753 -0.5936
10937TIP3    H154302   2.489   4.384  11.854  2.8768  0.5311 -1.1008
10937TIP3    H254303   2.583   4.469  11.937 -1.0360 -1.0694  5.6736
10938TIP3   OH254304   5.473   2.496  11.886 -0.4021  0.4006  0.1553
10938TIP3    H154305   5.544   2.432  11.888 -1.1248 -0.4182 -0.1999
10938TIP3    H254306   5.470   2.525  11.795 -0.5710  0.3831  0.1558
10939TIP3   OH254307   4.935   4.028  12.418 -0.2663  0.1483 -0.2454
10939TIP3    H154308   4.926   3.999  12.327  2.3847 -1.2630 -0.1525
10939TIP3    H254309   4.845   4.027  12.452 -1.7015  2.9743 -3.3727
10940TIP3   OH254310   6.580   6.580   2.697 -0.7367 -0.2301  0.0269
10940TIP3    H154311   6.513   6.642   2.666 -1.3483 -1.8915 -2.2834
10940TIP3    H254312   6.570   6.505   2.639  2.4304 -1.0099  0.3567
10941TIP3   OH254313   1.492   6.687  12.444 -0.0569  0.1853  0.1568
10941TIP3    H154314   1.508   6.774  12.480 -1.4377  0.7062 -0.4049
10941TIP3    H254315   1.556   6.679  12.373 -0.3101  0.9998 -0.1785
10942TIP3   OH254316   2.078   6.015  14.449 -0.1682 -0.0838  0.4174
10942TIP3    H154317   2.149   6.080  14.456  0.7706 -0.7913 -1.6770
10942TIP3    H254318   2.116   5.945  14.397 -1.9210 -1.2698  0.6756
10943TIP3   OH254319   1.178   0.715  16.843  0.2769 -0.0780 -0.1889
10943TIP3    H154320   1.241   0.764  16.790 -0.8012  2.6005  0.8390
10943TIP3    H254321   1.096   0.722  16.795  0.1347 -1.0371 -0.0919
10944TIP3   OH254322   2.728   0.231   1.312  0.1318  0.3962 -0.1181
10944TIP3    H154323   2.634   0.246   1.320  0.1020  0.4558 -0.5535
10944TIP3    H254324   2.753   0.191   1.395 -0.7219 -1.8419 -0.8492
10945TIP3   OH254325   4.861   2.911  15.790  0.2848  0.2560 -0.0130
10945TIP3    H154326   4.857   2.820  15.819  0.6587  0.6499  1.3443
10945TIP3    H254327   4.955   2.930  15.784  0.3252  1.3778  2.6142
10946TIP3   OH254328   6.386   5.517   6.448  0.2506  0.4371  0.2633
10946TIP3    H154329   6.422   5.466   6.521 -1.0534 -1.2742 -0.1976
10946TIP3    H254330   6.293   5.496   6.449 -0.6525  3.9003  0.8115
10947TIP3   OH254331   1.549   5.168  11.769  0.0858 -0.2623  0.2257
10947TIP3    H154332   1.485   5.123  11.714  0.5314  0.5799 -1.0205
10947TIP3    H254333   1.533   5.261  11.754 -0.3922  0.0346  2.2580
10948TIP3   OH254334   5.602   4.841   5.660  0.0929  0.1337  0.3078
10948TIP3    H154335   5.508   4.847   5.676 -0.2138 -2.5131 -0.0178
10948TIP3    H254336   5.642   4.871   5.741 -1.0818  0.2171  0.8811
10949TIP3   OH254337   5.113   6.341  16.139  0.5413  0.2626 -0.1242
10949TIP3    H154338   5.034   6.289  16.154  0.6288  0.8539  3.2341
10949TIP3    H254339   5.182   6.295  16.187  1.1987  2.0096  0.6950
10950TIP3   OH254340   1.927   0.389  11.301  0.0892 -0.4087 -0.2873
10950TIP3    H154341   1.998   0.443  11.337 -0.2466 -1.3057  1.8519
10950TIP3    H254342   1.957   0.299  11.310 -0.7335 -0.7378 -0.6927
10951TIP3   OH254343   2.923   6.089   1.496 -0.0393 -0.3741 -0.0322
10951TIP3    H154344   2.922   6.055   1.406  0.1187  0.2179 -0.2670
10951TIP3    H254345   2.851   6.044   1.540  1.8579 -3.1233  0.4937
10952TIP3   OH254346   3.710   5.880  16.762  0.2970  0.1867  0.3363
10952TIP3    H154347   3.619   5.877  16.792  0.0819 -0.8738 -0.3717
10952TIP3    H254348   3.759   5.909  16.838 -0.6387  0.8693  0.7023
10953TIP3   OH254349   1.823   2.114   4.357 -0.1101 -0.1698 -0.0751
10953TIP3    H154350   1.798   2.025   4.383 -1.0976  1.1046  4.1191
10953TIP3    H254351   1.760   2.137   4.289 -0.5998 -2.2526 -0.4032
10954TIP3   OH254352   6.129   5.087  13.062 -0.2470 -0.2437 -0.3130
10954TIP3    H154353   6.038   5.112  13.046 -0.5308 -1.1462 -0.1620
10954TIP3    H254354   6.132   5.061  13.154  0.6096  1.5890  0.2325
10955TIP3   OH254355   5.004   6.065  16.274  0.0027 -0.2872 -0.2516
10955TIP3    H154356   5.043   6.129  16.334 -0.2574 -0.3096 -0.0551
10955TIP3    H254357   4.941   6.018  16.328  0.8543 -1.3483 -0.1446
10956TIP3   OH254358   6.049   6.139  12.491 -0.5419 -0.1338 -0.2063
10956TIP3    H154359   6.042   6.117  12.398  3.3180  0.9986 -0.9080
10956TIP3    H254360   6.138   6.172  12.502 -1.4936  1.7175  3.5377
10957TIP3   OH254361   6.178   5.305   0.810  0.2486  0.1972  0.5007
10957TIP3    H154362   6.112   5.240   0.833  0.5619 -0.3966 -0.2190
10957TIP3    H254363   6.137   5.389   0.829  0.0143 -0.2167  1.8961
10958TIP3   OH254364   2.508   3.455   0.560  0.5233  0.3924  0.5254
10958TIP3    H154365   2.490   3.410   0.477  0.5022 -0.3303  0.9148
10958TIP3    H254366   2.487   3.391   0.627 -0.0416  1.1796  1.1157
10959TIP3   OH254367   2.811   6.350   2.466 -0.2201  0.1068  0.4665
10959TIP3    H154368   2.765   6.425   2.428 -0.5359 -0.1934  0.2579
10959TIP3    H254369   2.898   6.384   2.486  0.3145 -0.0097 -1.4876
10960TIP3   OH254370   1.990   0.012   4.260 -0.0863  0.0140 -0.0960
10960TIP3    H154371   1.985   0.107   4.256 -3.3438 -0.0418  0.3551
10960TIP3    H254372   2.007  -0.008   4.352 -0.7812  0.1478  0.0629
10961TIP3   OH254373   5.253   2.597  16.810 -0.0979 -0.0591  0.0906
10961TIP3    H154374   5.239   2.510  16.848  1.7286 -0.3307  0.2327
10961TIP3    H254375   5.342   2.593  16.774  0.4375  2.0900  1.0434
10962TIP3   OH254376   6.381   0.966   6.056  0.6854  0.2658  0.4437
10962TIP3    H154377   6.305   0.970   6.115 -0.8299  0.0307 -1.4099
10962TIP3    H254378   6.438   1.037   6.086 -0.2907  0.5038  1.8322
10963TIP3   OH254379   3.330   5.436   6.144  0.1951  0.5430 -0.4906
10963TIP3    H154380   3.423   5.418   6.129  0.2988  0.1101  0.5638
10963TIP3    H254381   3.321   5.529   6.125  0.8483  0.5985 -0.5734
10964TIP3   OH254382   0.377   0.825   5.312 -0.2012 -0.2494  0.3381
10964TIP3    H154383   0.305   0.809   5.250 -0.0164 -1.1066  0.3369
10964TIP3    H254384   0.396   0.918   5.302 -2.6623  0.5050  1.7958
10965TIP3   OH254385   4.489   6.721  12.609  0.4145  0.2947  0.0366
10965TIP3    H154386   4.557   6.654  12.617  0.6162  0.3247 -1.1744
10965TIP3    H254387   4.411   6.674  12.581 -0.3755  0.1217  2.3395
10966TIP3   OH254388   5.434   2.007   5.811  0.1960 -1.4001 -0.2234
10966TIP3    H154389   5.466   2.006   5.721  0.0870  0.0978 -0.3023
10966TIP3    H254390   5.340   2.023   5.802  0.3921  0.1870  0.1578
10967TIP3   OH254391   6.588   6.066  16.901 -0.4671  0.6801  0.5386
10967TIP3    H154392   6.537   6.039  16.825  0.3002 -0.7504  0.5023
10967TIP3    H254393   6.526   6.117  16.954 -1.1994  1.1163 -0.6937
10968TIP3   OH254394   4.951   2.609   4.935 -0.6693  0.0924 -0.7525
10968TIP3    H154395   4.874   2.552   4.938 -0.0520 -0.7455 -0.6355
10968TIP3    H254396   4.958   2.634   4.843 -0.0834 -1.2276 -1.0804
10969TIP3   OH254397   3.675   2.613   2.266 -0.1009  0.2470  0.4557
10969TIP3    H154398   3.761   2.588   2.233  1.0500  0.2418  3.2018
10969TIP3    H254399   3.674   2.708   2.262 -0.0845  0.2369  0.1960
10970TIP3   OH254400   3.489   1.081  14.245  0.1206 -0.5550 -0.0855
10970TIP3    H154401   3.537   1.077  14.328 -0.9718 -3.0672  0.5372
10970TIP3    H254402   3.555   1.060  14.178  0.0999 -3.6731  0.7226
10971TIP3   OH254403   2.964   3.210  16.339  0.2729 -0.0473 -0.1850
10971TIP3    H154404   3.051   3.235  16.370  0.4578  1.2495 -1.6534
10971TIP3    H254405   2.949   3.264  16.262 -1.6109 -0.6662 -0.3053
10972TIP3   OH254406   0.417   4.056   4.837 -0.5109 -0.4755 -0.0945
10972TIP3    H154407   0.408   4.124   4.904  0.1542 -0.8076  0.3439
10972TIP3    H254408   0.485   3.998   4.871  1.0595  0.2528 -1.7899
10973TIP3   OH254409   1.260   3.663  16.545  0.3313  0.3780 -0.0078
10973TIP3    H154410   1.205   3.726  16.497 -0.6392  0.7126  1.4891
10973TIP3    H254411   1.340   3.711  16.564  1.1101 -0.0241 -1.9697
10974TIP3   OH254412   4.091   1.767  15.364 -0.0276 -0.3600 -0.4084
10974TIP3    H154413   4.054   1.721  15.288  0.3780 -1.0516 -0.1868
10974TIP3    H254414   4.169   1.717  15.387  2.3421  2.2326 -2.1620
10975TIP3   OH254415   6.689   6.453   1.742 -0.0494 -0.2857 -0.7744
10975TIP3    H154416   6.665   6.481   1.653 -2.6800  0.0831 -0.0348
10975TIP3    H254417   6.749   6.520   1.773 -0.2194  0.3485 -1.7720
10976TIP3   OH254418   1.090   5.909   1.841  0.0823  0.0964 -0.0365
10976TIP3    H154419   1.147   5.844   1.883 -0.9668 -0.4151  0.6388
10976TIP3    H254420   1.028   5.934   1.909 -1.6016 -0.6573 -1.2129
10977TIP3   OH254421   1.566   4.566  15.331 -0.0579 -0.3953  0.2554
10977TIP3    H154422   1.512   4.580  15.408  0.7998  0.6580  0.6892
10977TIP3    H254423   1.652   4.542  15.365  0.7178  1.3975 -0.2837
10978TIP3   OH254424   4.702   4.039  11.375 -0.1031 -0.1371 -0.1205
10978TIP3    H154425   4.702   4.055  11.280  0.6372 -1.9077 -0.4471
10978TIP3    H254426   4.619   3.995  11.392 -0.7257  1.1321  0.2623
10979TIP3   OH254427   2.175   4.339   0.075 -0.3629  0.1716  0.5093
10979TIP3    H154428   2.153   4.247   0.069 -1.5301  0.5066 -0.7842
10979TIP3    H254429   2.270   4.342   0.066 -0.1836 -0.9636  1.7217
10980TIP3   OH254430   0.468   6.788  16.731 -0.0978  0.3917  0.0054
10980TIP3    H154431   0.434   6.868  16.691 -0.4621  0.2265 -0.0247
10980TIP3    H254432   0.525   6.819  16.801 -1.2957  0.7058  0.8916
10981TIP3   OH254433   4.746   0.775  12.287  0.2065 -0.3994  0.6764
10981TIP3    H154434   4.696   0.827  12.224 -0.5851 -0.1662  1.4723
10981TIP3    H254435   4.767   0.837  12.358  3.4703  0.0808 -0.5477
10982TIP3   OH254436   3.326   3.688  16.051  0.4632 -0.9254  0.2119
10982TIP3    H154437   3.316   3.781  16.030 -1.6914 -0.9919  0.7301
10982TIP3    H254438   3.356   3.648  15.969 -0.2361 -0.0146 -0.5016
10983TIP3   OH254439   6.781   4.313  15.064  0.0516  0.2435  0.3256
10983TIP3    H154440   6.805   4.365  14.987 -0.0298  0.6431  0.5684
10983TIP3    H254441   6.686   4.324  15.072 -0.1650 -0.9398 -0.3443
10984TIP3   OH254442   5.328   2.550   4.559 -0.4343  0.2496 -0.6440
10984TIP3    H154443   5.361   2.618   4.618 -1.8125  0.2526  0.1654
10984TIP3    H254444   5.335   2.469   4.610 -1.2681  0.1937 -0.6048
10985TIP3   OH254445   6.649   4.836  10.709 -0.1230 -0.3354 -0.4082
10985TIP3    H154446   6.618   4.926  10.720  0.0246 -0.3003 -0.2656
10985TIP3    H254447   6.584   4.795  10.652 -0.5546 -0.3262  0.0669
10986TIP3   OH254448   5.152   5.659   3.294 -0.0419  0.6406 -0.2275
10986TIP3    H154449   5.157   5.599   3.220 -1.5893  0.1396  0.0500
10986TIP3    H254450   5.162   5.746   3.255  0.1238  0.3294 -0.8946
10987TIP3   OH254451   5.151   6.243  16.418  0.4056 -0.3549  0.0319
10987TIP3    H154452   5.187   6.188  16.488  1.3757 -0.1579 -0.3028
10987TIP3    H254453   5.114   6.318  16.464  4.5776  1.8742  0.2741
10988TIP3   OH254454   4.565   6.794   1.231  0.3117  0.4073 -0.3637
10988TIP3    H154455   4.558   6.886   1.207 -0.7452  1.3682  3.0264
10988TIP3    H254456   4.651   6.786   1.272  0.2173  0.0404 -0.2296
10989TIP3   OH254457   1.512   6.535   6.694  0.1084 -0.0663 -0.0148
10989TIP3    H154458   1.464   6.549   6.613 -0.1461 -0.0141  0.1449
10989TIP3    H254459   1.599   6.506   6.666  0.4404  1.1997 -0.3315
10990TIP3   OH254460   5.669   4.145  13.663 -0.1979  0.4269  0.9083
10990TIP3    H154461   5.606   4.214  13.643 -0.7670  0.0510  1.3703
10990TIP3    H254462   5.690   4.156  13.756 -0.4446 -0.1391  1.0358
10991TIP3   OH254463   2.270   0.006   1.768 -0.1255  0.0155 -0.0644
10991TIP3    H154464   2.281   0.054   1.686 -1.4237  0.3347 -0.0656
10991TIP3    H254465   2.244  -0.082   1.742 -2.8479  0.7257 -0.0143
10992TIP3   OH254466   4.709   3.436  12.012 -0.6595  0.0168 -0.5489
10992TIP3    H154467   4.649   3.361  12.014 -2.1512  1.1613  0.7967
10992TIP3    H254468   4.676   3.491  11.941 -0.4608  0.0756 -0.5952
10993TIP3   OH254469   5.954   0.655  15.526 -0.0182  0.2783  0.2336
10993TIP3    H154470   6.039   0.684  15.562  0.6249 -0.8283 -0.3521
10993TIP3    H254471   5.913   0.608  15.599 -0.9975  2.4127  1.1385
10994TIP3   OH254472   4.429   1.969   5.237  0.4022  0.2556  0.4496
10994TIP3    H154473   4.408   1.946   5.146 -0.7917  1.1163  0.4915
10994TIP3    H254474   4.457   2.060   5.232 -1.5687  0.9437  1.1834
10995TIP3   OH254475   0.213   5.033   6.235  0.1216 -0.4060  0.3459
10995TIP3    H154476   0.138   4.999   6.186 -1.3918  0.2409  2.0482
10995TIP3    H254477   0.185   5.029   6.327  0.6026  3.3328  0.8428
10996TIP3   OH254478   5.625   3.253  16.429 -0.5870  0.0986 -0.3730
10996TIP3    H154479   5.673   3.171  16.415 -0.2969  0.1664  0.1959
10996TIP3    H254480   5.621   3.293  16.342  0.4707  0.1329 -0.4160
10997TIP3   OH254481   0.267   4.406  10.918  0.2113  0.2114 -0.5237
10997TIP3    H154482   0.338   4.466  10.945 -0.8244  2.1558 -1.8681
10997TIP3    H254483   0.293   4.376  10.831  0.8673 -1.6120  0.2626
10998TIP3   OH254484   2.018   4.288   3.840  0.2907  0.5257  0.4172
10998TIP3    H154485   2.021   4.194   3.820  0.1056  0.8123 -1.0999
10998TIP3    H254486   2.101   4.306   3.885  0.3361 -0.3564  0.7000
10999TIP3   OH254487   0.827   0.608  15.175  0.0902  0.1135 -0.3098
10999TIP3    H154488   0.736   0.586  15.155  0.1239  1.3919 -2.1349
10999TIP3    H254489   0.834   0.598  15.270 -2.1971  0.7643 -0.0067
11000TIP3   OH254490   5.260   4.782   3.376  0.4401 -0.1489  0.0624
11000TIP3    H154491   5.228   4.773   3.466  1.3021  3.6952  0.9456
11000TIP3    H254492   5.181   4.789   3.323 -0.1695  1.1507  1.0810
11001TIP3   OH254493   6.003   4.460   5.748 -0.0136 -0.3276 -0.5394
11001TIP3    H154494   6.006   4.519   5.672  0.0642  2.6513  1.5963
11001TIP3    H254495   6.084   4.409   5.741 -0.1127 -0.3141 -2.5359
11002TIP3   OH254496   4.476   1.265   3.359 -0.5459  0.0172 -0.0639
11002TIP3    H154497   4.517   1.343   3.398  1.4354 -0.5940 -0.8081
11002TIP3    H254498   4.403   1.300   3.307  1.5419  1.6835 -2.0693
11003TIP3   OH254499   6.829   6.772  11.435 -0.1593 -0.0968  0.8254
11003TIP3    H154500   6.904   6.773  11.377 -1.1226 -0.7123 -0.4908
11003TIP3    H254501   6.847   6.701  11.497 -0.1305 -0.9738 -0.1666
11004TIP3   OH254502   3.290   6.082   1.092 -0.1967 -0.6447 -0.0405
11004TIP3    H154503   3.317   6.156   1.146 -0.1579  0.3981 -1.4406
11004TIP3    H254504   3.318   6.105   1.004 -2.5046 -1.1109 -0.9748
11005TIP3   OH254505   6.405   3.754  15.293  0.8690  0.1412  0.3208
11005TIP3    H154506   6.453   3.672  15.296  1.5930  0.5681  0.6955
11005TIP3    H254507   6.457   3.811  15.235 -0.9458 -0.4598 -2.0952
11006TIP3   OH254508   6.167   4.508  11.653  0.1994  0.2089 -0.2549
11006TIP3    H154509   6.211   4.441  11.704 -1.6836 -0.3476  0.7495
11006TIP3    H254510   6.117   4.559  11.717 -1.2905  0.2398 -1.3854
11007TIP3   OH254511   2.620   6.368  12.336  0.3469  0.3100 -0.8140
11007TIP3    H154512   2.588   6.454  12.308  0.2755  0.5269 -0.1091
11007TIP3    H254513   2.660   6.330  12.258  1.0682  1.3117 -0.9561
11008TIP3   OH254514   3.906   6.478  14.568  0.1838 -0.0022  0.4599
11008TIP3    H154515   3.987   6.490  14.519 -0.3544 -0.1445 -0.4961
11008TIP3    H254516   3.906   6.549  14.633  1.8169 -0.9314  1.5428
11009TIP3   OH254517   2.334   2.359   5.078  0.4816 -0.8819 -0.3811
11009TIP3    H154518   2.288   2.396   5.002 -0.2004  1.6738  1.1455
11009TIP3    H254519   2.293   2.274   5.092 -1.2086 -0.2654 -1.3182
11010TIP3   OH254520   6.295   2.654   0.602  0.2988 -0.1438  0.9339
11010TIP3    H154521   6.227   2.590   0.623 -0.5279  0.1300 -0.7356
11010TIP3    H254522   6.263   2.736   0.639  0.0940 -0.1674  0.8072
11011TIP3   OH254523   6.465   5.961   3.428 -0.0663  0.1179 -0.0212
11011TIP3    H154524   6.453   6.052   3.402 -2.3692 -0.3953 -0.9957
11011TIP3    H254525   6.420   5.910   3.360  1.0578 -1.7542  0.5563
11012TIP3   OH254526   5.005   1.206   4.082  0.4063  0.0701  0.2934
11012TIP3    H154527   5.069   1.136   4.089 -2.1508 -2.3153  1.6709
11012TIP3    H254528   4.974   1.220   4.171 -0.6153  1.5278 -0.2429
11013TIP3   OH254529   4.221   3.054   5.429  0.3292  0.2077  0.0985
11013TIP3    H154530   4.211   2.963   5.458  0.2916  0.7840  2.0386
11013TIP3    H254531   4.311   3.060   5.398  0.7387 -0.2059  1.1602
11014TIP3   OH254532   2.497   4.305  10.358 -0.4609  0.4510  0.0854
11014TIP3    H154533   2.574   4.347  10.396  0.0886  0.6395 -1.1777
11014TIP3    H254534   2.427   4.322  10.421  0.2380  1.3989  0.6386
11015TIP3   OH254535   1.260   1.506  11.633  0.8031 -0.5984 -0.4832
11015TIP3    H154536   1.196   1.563  11.591  2.4571  1.7953  0.0538
11015TIP3    H254537   1.283   1.442  11.565  0.3330  0.5939 -1.8077
11016TIP3   OH254538   1.792   4.885  11.212  0.2393 -0.3440  0.0064
11016TIP3    H154539   1.816   4.935  11.134  1.1826  0.1382  0.5829
11016TIP3    H254540   1.854   4.914  11.278 -2.6567  1.8848  1.9927
11017TIP3   OH254541   0.411   6.608   1.330  0.0124 -0.1802 -0.0932
11017TIP3    H154542   0.338   6.549   1.347 -0.0154  0.1510  1.0476
11017TIP3    H254543   0.377   6.695   1.353  0.0122  0.3329 -1.8537
11018TIP3   OH254544   1.130   6.235   0.443 -0.7196 -0.0705  0.4558
11018TIP3    H154545   1.076   6.162   0.473  0.5910 -1.1166  0.3671
11018TIP3    H254546   1.182   6.199   0.371  0.9120  0.5469  1.2598
11019TIP3   OH254547   0.018   4.288   1.655 -0.3401  0.1926 -0.3110
11019TIP3    H154548  -0.051   4.332   1.605 -0.0493  0.4419 -0.4919
11019TIP3    H254549   0.085   4.355   1.667  0.2792 -0.3123 -0.9223
11020TIP3   OH254550   4.759   1.801   4.278 -0.0385 -0.5254  0.1010
11020TIP3    H154551   4.679   1.812   4.228  0.1249  0.9985  0.1314
11020TIP3    H254552   4.729   1.786   4.368 -0.3087 -2.2447 -0.2505
11021TIP3   OH254553   6.392   4.780   4.387  0.0281 -0.4219  0.1279
11021TIP3    H154554   6.358   4.782   4.476  0.4188 -1.0244  0.2947
11021TIP3    H254555   6.321   4.744   4.334 -0.0824 -0.3766  0.2467
11022TIP3   OH254556   6.192   3.495   3.344 -0.5847 -0.1974  0.1042
11022TIP3    H154557   6.109   3.541   3.331 -0.0780  1.3041  1.8098
11022TIP3    H254558   6.242   3.512   3.265 -0.5159  2.0173  0.5787
11023TIP3   OH254559   1.553   2.788  13.573  0.0303  0.0135  0.2073
11023TIP3    H154560   1.533   2.751  13.486  2.6916 -2.1519  0.3760
11023TIP3    H254561   1.613   2.860  13.555  0.7964 -0.6071  0.2226
11024TIP3   OH254562   4.414   4.864   0.823  0.0193  0.1332  0.3077
11024TIP3    H154563   4.319   4.879   0.822  0.1517  1.0360 -0.6255
11024TIP3    H254564   4.449   4.935   0.877  0.5127  2.5797 -2.9104
11025TIP3   OH254565   2.232   2.602   6.388 -0.2468  0.7840 -0.1273
11025TIP3    H154566   2.213   2.509   6.390 -0.8714  0.8022 -2.2888
11025TIP3    H254567   2.320   2.610   6.425  0.1139 -0.7621 -0.5666
11026TIP3   OH254568   5.121   4.236  12.867  0.1863  0.2325  0.3868
11026TIP3    H154569   5.190   4.171  12.858  1.3915  1.3687  1.0027
11026TIP3    H254570   5.057   4.195  12.925  1.1466 -0.2445  1.1353
11027TIP3   OH254571   2.856   0.476   5.627 -0.1067 -0.2635  0.1023
11027TIP3    H154572   2.947   0.452   5.642  0.1441  1.2168  1.0688
11027TIP3    H254573   2.817   0.483   5.714 -1.1454 -0.8120 -0.2897
11028TIP3   OH254574   6.375   6.351  17.193 -0.8272 -0.1986  0.0249
11028TIP3    H154575   6.368   6.440  17.227  0.3185 -0.6097  1.4617
11028TIP3    H254576   6.318   6.299  17.249 -0.6109 -0.5471 -0.0726
11029TIP3   OH254577   6.626   0.348  12.582  0.0985 -0.4047 -0.4139
11029TIP3    H154578   6.605   0.297  12.504 -2.3571  0.3127 -0.3257
11029TIP3    H254579   6.678   0.289  12.637  0.7536 -1.3595 -2.0107
11030TIP3   OH254580   0.499   0.871   3.024  0.2901 -0.3605  0.2484
11030TIP3    H154581   0.517   0.798   2.965  0.7974 -0.8038  0.9410
11030TIP3    H254582   0.427   0.918   2.982  0.5030 -0.7834 -0.6155
11031TIP3   OH254583   6.827   2.079   3.593 -0.1333  0.7844  0.1295
11031TIP3    H154584   6.891   2.039   3.535 -0.3141 -1.4395  1.3503
11031TIP3    H254585   6.859   2.168   3.607  2.7664 -0.2587  0.7771
11032TIP3   OH254586   3.073   6.610  15.575 -0.4557 -0.7260 -0.4618
11032TIP3    H154587   3.120   6.530  15.599  2.7461  0.4485 -2.1525
11032TIP3    H254588   3.026   6.587  15.495  0.7273 -0.9040 -1.1362
11033TIP3   OH254589   0.257   1.993  12.689 -0.3574 -0.0524  0.5601
11033TIP3    H154590   0.283   2.080  12.720  1.7126  0.0859 -1.3242
11033TIP3    H254591   0.200   2.011  12.614 -1.5627 -0.3623  1.3811
11034TIP3   OH254592   4.176   0.285   2.494  0.5550 -0.3898 -0.3702
11034TIP3    H154593   4.168   0.381   2.497 -0.3301 -0.4553 -0.2217
11034TIP3    H254594   4.198   0.261   2.584 -0.5830 -0.4164 -0.0819
11035TIP3   OH254595   4.660   3.950   0.644  0.2360  0.2239  0.5435
11035TIP3    H154596   4.631   4.041   0.654 -1.0788 -0.0284 -0.6470
11035TIP3    H254597   4.743   3.956   0.597 -0.8244  0.7807 -1.3638
11036TIP3   OH254598   4.285   4.484   1.496  0.6266  0.0331  0.0275
11036TIP3    H154599   4.264   4.413   1.556  1.6803  0.5511  1.0588
11036TIP3    H254600   4.376   4.506   1.517  0.2783  1.7712 -0.1490
11037TIP3   OH254601   4.217   6.137  12.046 -0.0734 -0.0543  0.5803
11037TIP3    H154602   4.178   6.146  12.133 -0.6578  1.5716  0.1935
11037TIP3    H254603   4.304   6.100  12.062 -0.5218 -0.6520  1.7543
11038TIP3   OH254604   5.126   3.947  11.518  0.4426  0.2751  0.5860
11038TIP3    H154605   5.063   3.922  11.450  1.9030 -0.4829 -0.5418
11038TIP3    H254606   5.203   3.894  11.500  1.2880  0.9067  2.1641
11039TIP3   OH254607   3.001   2.794   4.475  0.1572 -0.4355 -0.0975
11039TIP3    H154608   2.918   2.791   4.427  0.4645  0.4214 -0.6975
11039TIP3    H254609   3.067   2.770   4.410  0.4958 -0.0275  0.0913
11040TIP3   OH254610   3.827   5.713  13.092  0.2826 -0.0686 -0.6006
11040TIP3    H154611   3.742   5.757  13.093 -0.1407 -0.8286 -1.2420
11040TIP3    H254612   3.891   5.783  13.083 -0.2315  0.5616  0.5234
11041TIP3   OH254613   2.418   3.970   6.046  0.0499  0.2374 -0.5695
11041TIP3    H154614   2.341   3.979   5.990 -0.3317  1.0267  0.0580
11041TIP3    H254615   2.437   4.059   6.076  0.0686 -0.1940  0.7823
11042TIP3   OH254616   1.274   3.578   3.932  0.0100  1.0685  1.0099
11042TIP3    H154617   1.182   3.561   3.914  0.5642  0.5735 -1.7294
11042TIP3    H254618   1.300   3.509   3.993 -1.0314  0.2018  0.5009
11043TIP3   OH254619   2.813   1.016  16.644  0.0575  0.1082 -0.1488
11043TIP3    H154620   2.903   0.983  16.652 -0.2559 -0.6001  0.5167
11043TIP3    H254621   2.779   1.014  16.734 -0.9937 -0.6884 -0.5495
11044TIP3   OH254622   3.849   2.437  12.122  0.3735 -0.6443 -0.2836
11044TIP3    H154623   3.896   2.496  12.063  0.0121  0.9901  1.0017
11044TIP3    H254624   3.907   2.361  12.131  1.1916 -0.1826 -1.3816
11045TIP3   OH254625   2.693   4.425   1.729 -0.5853  0.9029  0.4172
11045TIP3    H154626   2.765   4.407   1.669 -1.6604 -1.1340 -0.3421
11045TIP3    H254627   2.637   4.487   1.682  0.4821  2.3076  0.9156
11046TIP3   OH254628   0.149   2.370   5.732  0.4431  0.5347 -0.2488
11046TIP3    H154629   0.073   2.402   5.780  0.2544  0.0939 -0.2512
11046TIP3    H254630   0.222   2.422   5.766  0.5394 -0.6305  1.4543
11047TIP3   OH254631   0.658   1.251   3.033  0.7203 -0.2849  0.3034
11047TIP3    H154632   0.734   1.195   3.047  1.2707  0.4004  0.1160
11047TIP3    H254633   0.638   1.241   2.939 -0.9833 -2.3859  0.8069
11048TIP3   OH254634   5.488   3.142   5.472 -0.2675 -0.1208 -0.3999
11048TIP3    H154635   5.546   3.136   5.396  0.4763 -0.8066  0.2033
11048TIP3    H254636   5.522   3.077   5.533 -2.0758 -1.0227 -0.2911
11049TIP3   OH254637   6.157   3.947  15.636  0.7191  0.5022  0.1409
11049TIP3    H154638   6.173   3.963  15.544 -0.3748 -0.0189 -0.1655
11049TIP3    H254639   6.163   4.033  15.677 -1.4424  1.2149 -0.8683
11050TIP3   OH254640   2.240   2.212   1.496  0.3051  0.4485 -0.3840
11050TIP3    H154641   2.227   2.307   1.493 -0.3205  0.3398 -1.2289
11050TIP3    H254642   2.334   2.202   1.512  0.0979  1.2059  1.6924
11051TIP3   OH254643   2.449   1.652   1.939  0.0031 -0.0006 -0.3235
11051TIP3    H154644   2.415   1.704   1.866 -0.1054  0.7328  0.2324
11051TIP3    H254645   2.452   1.714   2.012 -0.8749 -0.9890  0.5677
11052TIP3   OH254646   3.430   2.439  11.908  0.0112 -0.2935 -0.2101
11052TIP3    H154647   3.464   2.400  11.828  3.1259 -0.1621  0.9268
11052TIP3    H254648   3.456   2.378  11.977  0.9182  1.4834  1.0951
11053TIP3   OH254649   0.528   4.161   3.532 -0.8530 -0.0912 -0.2330
11053TIP3    H154650   0.541   4.255   3.519 -2.0961 -0.0738 -1.5123
11053TIP3    H254651   0.577   4.141   3.612 -0.5916  1.6437  0.0716
11054TIP3   OH254652   3.605   3.469  15.050  0.0176 -0.0112 -0.2908
11054TIP3    H154653   3.664   3.456  15.123 -0.4226  1.4004  0.3467
11054TIP3    H254654   3.517   3.463  15.088 -0.2578 -0.7439 -0.9868
11055TIP3   OH254655   5.344   3.139   1.463  0.0491 -0.2918  0.2285
11055TIP3    H154656   5.318   3.047   1.462 -0.8413 -0.0441  0.3791
11055TIP3    H254657   5.351   3.161   1.556 -0.1687 -0.0866  0.1970
11056TIP3   OH254658   4.873   5.171   1.194  0.2600  1.2778  0.1114
11056TIP3    H154659   4.956   5.124   1.191  0.6837  1.9948  0.4392
11056TIP3    H254660   4.887   5.248   1.138  0.0149  1.7171  0.6475
11057TIP3   OH254661   3.885   1.270  16.081  0.0911 -0.1273  0.5653
11057TIP3    H154662   3.793   1.295  16.086 -0.2259 -1.2367  0.5885
11057TIP3    H254663   3.929   1.324  16.146 -0.4080  0.9763 -0.0012
11058TIP3   OH254664   5.595   0.474   3.538 -0.2324 -0.0708  0.0484
11058TIP3    H154665   5.619   0.382   3.550  0.4647  0.1513  0.4313
11058TIP3    H254666   5.528   0.473   3.470  0.0830 -0.8272 -0.2621
11059TIP3   OH254667   1.348   3.554   1.084  0.9073 -0.1135 -0.6073
11059TIP3    H154668   1.341   3.463   1.114 -0.9094  0.2720  0.2679
11059TIP3    H254669   1.259   3.578   1.059  1.3716  1.4149 -0.9050
11060TIP3   OH254670   0.880   3.907  15.235  0.8066 -0.1920  0.2302
11060TIP3    H154671   0.919   3.827  15.270 -0.3464 -1.1965 -0.6780
11060TIP3    H254672   0.807   3.926  15.295  1.6886  0.7889  1.0278
11061TIP3   OH254673   6.591   1.193   4.431 -0.1206  0.5819 -0.5668
11061TIP3    H154674   6.497   1.207   4.445 -0.3805 -0.2019 -1.4205
11061TIP3    H254675   6.597   1.160   4.341  0.6117 -2.5185  0.4834
11062TIP3   OH254676   3.904   4.391  11.967 -0.1750  0.0093 -0.4508
11062TIP3    H154677   3.915   4.450  12.042 -1.0256  0.5049 -0.6980
11062TIP3    H254678   3.883   4.306  12.005 -0.2398  0.1771 -0.1130
11063TIP3   OH254679   3.717   1.941  11.723 -0.4680 -0.5182 -0.1679
11063TIP3    H154680   3.795   1.989  11.697 -0.0741 -1.4322 -0.7410
11063TIP3    H254681   3.657   2.007  11.758  1.6784 -0.1020  3.1876
11064TIP3   OH254682   4.797   5.738   3.924  0.0573  0.1261 -0.6658
11064TIP3    H154683   4.861   5.765   3.858 -0.0377 -1.3756 -1.4238
11064TIP3    H254684   4.724   5.701   3.873 -1.6434  2.1567  0.1497
11065TIP3   OH254685   1.161   5.676  13.244  0.0866 -0.1234 -0.2315
11065TIP3    H154686   1.211   5.598  13.220  0.7401  0.0263  0.6247
11065TIP3    H254687   1.212   5.749  13.209 -0.4478 -0.0539 -0.8991
11066TIP3   OH254688   2.532   0.238  13.126  0.1333 -0.2949  0.2039
11066TIP3    H154689   2.535   0.158  13.073  0.4900 -1.0751  1.3418
11066TIP3    H254690   2.444   0.274  13.112  0.3968 -0.1939 -1.2872
11067TIP3   OH254691   5.962   6.391   1.746 -0.1375  0.2104  0.6277
11067TIP3    H154692   5.894   6.388   1.813 -1.6421  0.4265 -0.8296
11067TIP3    H254693   6.029   6.330   1.777 -1.3050 -0.5341  1.7727
11068TIP3   OH254694   5.304   5.022   0.557 -0.1435 -0.1293  0.7152
11068TIP3    H154695   5.339   5.033   0.645 -0.5185 -0.9425  0.9737
11068TIP3    H254696   5.347   4.944   0.523 -0.5430 -0.2419  0.4523
11069TIP3   OH254697   0.077   0.465   1.398 -0.2443  0.2118 -0.1128
11069TIP3    H154698   0.131   0.535   1.435  0.8665 -0.0018 -1.2782
11069TIP3    H254699   0.065   0.403   1.470  0.0315  0.8607  0.4994
11070TIP3   OH254700   0.507   2.884  15.780  0.8677 -0.3486  0.1829
11070TIP3    H154701   0.463   2.802  15.802 -0.2668 -0.0857 -0.9812
11070TIP3    H254702   0.438   2.940  15.746  1.5345  1.2848  1.3715
11071TIP3   OH254703   3.665   2.813  12.353  0.1270 -0.2733  0.1722
11071TIP3    H154704   3.680   2.880  12.419 -0.9700 -1.3089  1.5369
11071TIP3    H254705   3.657   2.861  12.270 -1.1010  1.3173  1.1620
11072TIP3   OH254706   4.851   5.186  14.638  0.0158 -0.2472  0.1160
11072TIP3    H154707   4.896   5.256  14.591 -0.4531  0.6693  0.9909
11072TIP3    H254708   4.797   5.143  14.572  1.1759 -0.5319 -0.6689
11073TIP3   OH254709   2.029   5.775  12.727  0.5679  0.1949  0.1431
11073TIP3    H154710   1.971   5.848  12.750 -0.1961 -0.3227 -0.1046
11073TIP3    H254711   2.109   5.791  12.777  0.9014  1.8950 -0.8699
11074TIP3   OH254712   0.846   1.915  13.014  0.1318 -0.1580 -0.1554
11074TIP3    H154713   0.892   1.832  13.019  0.8676  0.2659  0.2115
11074TIP3    H254714   0.877   1.965  13.089  2.2739  1.7183 -2.1111
11075TIP3   OH254715   4.810   0.276  16.508 -0.3881  0.7318 -0.0597
11075TIP3    H154716   4.831   0.343  16.573  0.6735  0.1456  0.2329
11075TIP3    H254717   4.786   0.199  16.560 -0.4289  0.5358 -0.3687
11076TIP3   OH254718   3.866   6.101   4.004 -0.0058  0.8735 -0.3274
11076TIP3    H154719   3.854   6.106   3.910 -1.9382 -2.2060 -0.3948
11076TIP3    H254720   3.940   6.041   4.016 -1.3662 -0.8106  0.0248
11077TIP3   OH254721   6.390   4.790  11.701 -0.0017 -0.1585  0.0703
11077TIP3    H154722   6.378   4.695  11.698 -0.0844 -0.1131 -1.5581
11077TIP3    H254723   6.343   4.823  11.625  1.6835  0.9869 -0.5359
11078TIP3   OH254724   5.287   2.236  16.680  0.2094  0.1920  0.5628
11078TIP3    H154725   5.376   2.269  16.667  0.9326 -1.5028  0.9571
11078TIP3    H254726   5.298   2.141  16.689 -1.6786 -0.0794  0.3022
11079TIP3   OH254727   3.874   2.812   2.265 -0.2599 -0.3646  0.6022
11079TIP3    H154728   3.802   2.867   2.297 -0.2896 -1.5479  2.7515
11079TIP3    H254729   3.895   2.848   2.179 -2.0588  1.2904  0.7839
11080TIP3   OH254730   3.843   6.821  14.184  0.1602 -0.6955 -0.2309
11080TIP3    H154731   3.899   6.776  14.121  1.3896  1.7899 -1.0405
11080TIP3    H254732   3.764   6.842  14.134 -0.7312 -2.4402  0.3490
11081TIP3   OH254733   5.931   6.114  12.202  0.4587  1.0035  0.5852
11081TIP3    H154734   5.851   6.060  12.204  1.7620 -1.1043  3.8587
11081TIP3    H254735   5.986   6.072  12.136 -0.1033  0.8717  0.1840
11082TIP3   OH254736   4.056   3.449   0.907  0.0296 -0.1441 -0.3991
11082TIP3    H154737   3.978   3.402   0.877 -0.2884  0.9829 -1.3813
11082TIP3    H254738   4.029   3.488   0.991 -0.5980  0.5524 -0.9141
11083TIP3   OH254739   4.987   1.642  15.791 -0.1597 -0.2218  0.0050
11083TIP3    H154740   5.031   1.727  15.786  0.4070 -0.4669  0.6134
11083TIP3    H254741   5.021   1.603  15.871  0.7793 -1.6775 -1.0557
11084TIP3   OH254742   3.912   3.689   5.695  0.1694 -0.0164  0.5545
11084TIP3    H154743   3.991   3.635   5.701 -0.2418 -0.6545  0.4043
11084TIP3    H254744   3.913   3.741   5.775  1.9428  1.7191 -0.5011
11085TIP3   OH254745   4.855   5.885   3.152  0.2853  0.2193 -0.2464
11085TIP3    H154746   4.822   5.952   3.212 -2.5542 -1.2323 -0.0260
11085TIP3    H254747   4.885   5.934   3.076 -3.8362  1.8344 -1.1201
11086TIP3   OH254748   2.806   6.737  11.684 -0.2426 -0.6422 -0.6497
11086TIP3    H154749   2.789   6.644  11.700  1.6926 -0.9536 -0.1695
11086TIP3    H254750   2.765   6.782  11.757  0.3945 -1.2952  0.1367
11087TIP3   OH254751   1.818   3.618  13.788  0.3301  0.1474  0.0724
11087TIP3    H154752   1.774   3.561  13.725 -0.1549  0.5104  0.0808
11087TIP3    H254753   1.761   3.695  13.796 -0.0761 -0.2667  1.6040
11088TIP3   OH254754   1.151   4.075  16.076  0.1051 -0.5663  0.5972
11088TIP3    H154755   1.238   4.101  16.106 -0.4356 -0.1442  1.8506
11088TIP3    H254756   1.164   4.050  15.985  1.5224 -0.4247  0.7367
11089TIP3   OH254757   3.108   2.250  15.474 -0.1262  0.0238 -0.2271
11089TIP3    H154758   3.013   2.266  15.476 -0.1488  0.1221 -1.4652
11089TIP3    H254759   3.116   2.156  15.461 -0.0540  0.0183 -0.1399
11090TIP3   OH254760   4.897   2.621   3.575  0.5310  0.2688 -0.0892
11090TIP3    H154761   4.987   2.594   3.558  0.9006  0.2751  1.7392
11090TIP3    H254762   4.902   2.676   3.652 -0.7239  2.4631 -1.4638
11091TIP3   OH254763   2.891   1.410   1.875 -0.0644  0.1196 -0.1364
11091TIP3    H154764   2.965   1.350   1.879 -0.5708 -0.4850  0.6000
11091TIP3    H254765   2.916   1.483   1.932 -0.0494 -0.1104  0.1577
11092TIP3   OH254766   0.144   0.749  14.955 -0.2313 -0.1520  0.0843
11092TIP3    H154767   0.203   0.725  14.884  1.1020  1.9681  0.4043
11092TIP3    H254768   0.165   0.688  15.026  0.6354 -0.2497 -0.2537
11093TIP3   OH254769   6.676   0.739   5.499 -0.5960  0.0190  0.2422
11093TIP3    H154770   6.628   0.672   5.549 -1.0404 -0.3076 -0.6099
11093TIP3    H254771   6.630   0.820   5.519 -0.4594 -0.0208  0.7567
11094TIP3   OH254772   5.285   3.301  14.627  0.0813 -0.4660 -0.5495
11094TIP3    H154773   5.222   3.235  14.600 -1.6015  0.5694  0.6528
11094TIP3    H254774   5.325   3.264  14.706 -2.1059  0.5656  1.1493
11095TIP3   OH254775   4.746   1.655   2.737  0.3517 -0.0392 -0.0971
11095TIP3    H154776   4.703   1.571   2.720 -1.7561  0.9739 -0.0024
11095TIP3    H254777   4.706   1.687   2.817  0.4536  1.5006 -0.6310
11096TIP3   OH254778   5.686   2.048   3.664  0.0875 -0.2270 -0.2851
11096TIP3    H154779   5.741   2.119   3.632  0.2283 -0.2678 -0.1345
11096TIP3    H254780   5.645   2.084   3.743  0.2366 -0.3456 -0.1518
11097TIP3   OH254781   1.800   0.084  13.780 -0.2928 -0.3637  0.7787
11097TIP3    H154782   1.778  -0.008  13.794 -0.9278 -0.3436 -0.0532
11097TIP3    H254783   1.808   0.093  13.685 -0.9194  0.5947  0.8079
11098TIP3   OH254784   6.652   2.180  11.425 -0.0530  0.1304  0.8619
11098TIP3    H154785   6.658   2.106  11.364  3.0567  0.6894  0.3175
11098TIP3    H254786   6.615   2.142  11.505  3.4229 -2.6998  1.3990
11099TIP3   OH254787   0.056   6.596   1.136  0.0056 -0.2527  0.1225
11099TIP3    H154788   0.030   6.504   1.129  0.3711 -0.2204 -2.3378
11099TIP3    H254789  -0.016   6.644   1.097  1.3355  0.2098 -1.8897
11100TIP3   OH254790   1.132   2.492   6.633  0.3516 -0.0903  0.1119
11100TIP3    H154791   1.161   2.569   6.585  2.8062 -2.8502 -3.4039
11100TIP3    H254792   1.203   2.473   6.694 -0.7214  0.8857  1.7384
11101TIP3   OH254793   0.431   6.319  13.962 -0.2665 -0.2477  0.4427
11101TIP3    H154794   0.370   6.337  13.891  1.1964  0.7864 -0.6199
11101TIP3    H254795   0.377   6.311  14.040 -1.9741 -1.7989 -0.8175
11102TIP3   OH254796   4.149   4.737   4.706 -0.1907  0.1391  0.2233
11102TIP3    H154797   4.177   4.784   4.785 -2.9539  0.0887  1.3432
11102TIP3    H254798   4.170   4.645   4.724  0.9449  0.3440  0.0318
11103TIP3   OH254799   3.064   4.992  14.880 -0.5224 -0.2905  0.1897
11103TIP3    H154800   2.982   4.962  14.919 -0.0842 -0.7771  0.7691
11103TIP3    H254801   3.095   4.916  14.831 -0.4287 -0.1038 -0.0371
11104TIP3   OH254802   5.265   2.988   1.063 -0.1118  0.4999 -0.3236
11104TIP3    H154803   5.299   2.960   0.979 -0.2265  1.0666 -0.5647
11104TIP3    H254804   5.195   2.926   1.083  0.9224 -0.5819  0.1000
11105TIP3   OH254805   2.889   0.796   1.538 -0.0585  0.0424  0.5897
11105TIP3    H154806   2.890   0.807   1.633  0.8231 -1.4987  0.7815
11105TIP3    H254807   2.840   0.715   1.523  2.1456 -1.2530 -0.0523
11106TIP3   OH254808   4.745   2.732  17.092  0.4461 -0.1289  0.1300
11106TIP3    H154809   4.763   2.641  17.116  0.6327 -0.4449 -1.1463
11106TIP3    H254810   4.793   2.745  17.010  1.2589  1.4365  0.8086
11107TIP3   OH254811   4.745   4.799   5.543 -0.2103  0.4018 -0.0689
11107TIP3    H154812   4.697   4.746   5.479 -1.7224 -0.5655  1.7694
11107TIP3    H254813   4.793   4.735   5.596  2.1128  1.2687 -0.9975
11108TIP3   OH254814   1.144   0.838   4.441 -0.3978 -0.0589  0.3523
11108TIP3    H154815   1.189   0.775   4.498 -1.6530 -1.0173  0.3107
11108TIP3    H254816   1.202   0.847   4.365  0.6815  0.2640  1.1921
11109TIP3   OH254817   6.152   0.932   2.231  0.3340  0.3662  0.0430
11109TIP3    H154818   6.169   0.847   2.273 -1.6909 -0.7103 -1.1860
11109TIP3    H254819   6.126   0.910   2.142 -1.1969  2.2267 -0.0224
11110TIP3   OH254820   4.392   5.785   3.805 -0.1678  0.0616  0.1852
11110TIP3    H154821   4.311   5.745   3.776 -0.4081 -0.7723  1.8755
11110TIP3    H254822   4.392   5.773   3.900  0.7206  2.3130  0.5316
11111TIP3   OH254823   2.855   3.223   0.175  0.2267  0.7716 -0.4974
11111TIP3    H154824   2.864   3.135   0.138  0.0336  0.1548  0.8588
11111TIP3    H254825   2.803   3.210   0.254  3.6335  1.4327  2.0713
11112TIP3   OH254826   5.939   2.127  15.488 -0.3338  0.7216  0.3397
11112TIP3    H154827   5.890   2.050  15.460  0.4547 -0.4846  2.0850
11112TIP3    H254828   6.030   2.107  15.466 -0.0965  1.0638  0.9872
11113TIP3   OH254829   1.844   3.318   2.856 -0.0080 -0.8505 -0.5839
11113TIP3    H154830   1.753   3.310   2.887 -0.7217  2.1889 -1.5197
11113TIP3    H254831   1.839   3.298   2.763 -0.0013  0.4162 -0.8795
11114TIP3   OH254832   4.511   3.053  16.435  0.0345 -0.4673  0.3133
11114TIP3    H154833   4.445   3.092  16.493  0.7968  1.1564  0.1361
11114TIP3    H254834   4.475   3.062  16.347  1.1531  2.0229  0.0228
11115TIP3   OH254835   6.164   6.787   0.334 -0.1434 -0.3022  0.3251
11115TIP3    H154836   6.081   6.739   0.333 -0.0109 -0.5211 -0.5537
11115TIP3    H254837   6.169   6.828   0.248  0.3504  0.2500  0.6172
11116TIP3   OH254838   1.562   1.111  13.037  0.2536  0.1077 -0.0788
11116TIP3    H154839   1.624   1.129  13.108 -0.0239 -0.5606  0.3432
11116TIP3    H254840   1.570   1.017  13.021  0.3795  0.2659 -1.0105
11117TIP3   OH254841   1.668   5.754   1.535 -0.0534  0.1552  0.3924
11117TIP3    H154842   1.676   5.661   1.512 -1.2507  0.1511 -0.0536
11117TIP3    H254843   1.718   5.800   1.467 -0.0157 -0.1162  0.2347
11118TIP3   OH254844   1.692   3.473  11.726 -0.2666 -0.3953 -0.0347
11118TIP3    H154845   1.788   3.471  11.723 -0.2891 -1.1564 -1.7243
11118TIP3    H254846   1.668   3.382  11.744 -0.6503 -0.7345 -1.9905
11119TIP3   OH254847   0.811   1.309   5.268  0.2475  0.1697  0.0522
11119TIP3    H154848   0.795   1.244   5.336  1.1964  0.5638  0.6614
11119TIP3    H254849   0.870   1.266   5.206  0.4579  0.2683  0.1834
11120TIP3   OH254850   3.234   2.350   3.967 -0.1529  0.4353  0.6155
11120TIP3    H154851   3.158   2.335   4.023 -1.3783  1.3166 -0.7270
11120TIP3    H254852   3.278   2.266   3.963 -1.0212 -0.0770  1.4872
11121TIP3   OH254853   6.537   3.423   0.851  0.0834  0.1206  0.2686
11121TIP3    H154854   6.540   3.364   0.927  3.4123  0.1225  0.3020
11121TIP3    H254855   6.515   3.366   0.777  0.0529 -0.5193  0.7628
11122TIP3   OH254856   1.300   5.691  14.596  0.6739  0.4300  0.0519
11122TIP3    H154857   1.357   5.649  14.660  0.0236  1.4040  1.3188
11122TIP3    H254858   1.345   5.771  14.572  0.3324  0.6907  0.2671
11123TIP3   OH254859   3.702   0.046   2.796 -0.1104  0.1230 -0.8832
11123TIP3    H154860   3.680   0.134   2.825  0.0364 -0.2630  0.5023
11123TIP3    H254861   3.620   0.010   2.763 -0.9663 -0.2592  1.4505
11124TIP3   OH254862   4.522   1.700   6.115  0.3977 -0.4831  0.0577
11124TIP3    H154863   4.543   1.630   6.177  0.4276 -2.1718 -1.7565
11124TIP3    H254864   4.599   1.758   6.118  0.9148 -1.1836  0.7279
11125TIP3   OH254865   1.118   2.858   4.511  0.2500 -0.3909 -0.8722
11125TIP3    H154866   1.197   2.912   4.517  0.1808 -0.2757 -0.9990
11125TIP3    H254867   1.062   2.904   4.448 -0.7483  0.5845  0.6724
11126TIP3   OH254868   2.150   3.185  15.707  0.1691  0.0190  0.5650
11126TIP3    H154869   2.173   3.215  15.619 -0.3737  1.7647  0.9954
11126TIP3    H254870   2.179   3.255  15.765 -2.5959  0.5319  1.4753
11127TIP3   OH254871   3.622   5.809   6.320 -0.2778 -0.1493 -0.2105
11127TIP3    H154872   3.531   5.805   6.349 -0.4394 -1.3440 -0.8013
11127TIP3    H254873   3.619   5.860   6.239 -0.7303 -1.6144 -1.1732
11128TIP3   OH254874   6.420   6.726   5.346  0.6172  0.1157 -0.2082
11128TIP3    H154875   6.368   6.688   5.276  1.9037 -1.4383 -0.3713
11128TIP3    H254876   6.410   6.665   5.420  1.0774  0.5256  0.2055
11129TIP3   OH254877   5.334   5.936   0.921 -0.8065  0.1750 -0.0937
11129TIP3    H154878   5.408   5.952   0.979 -0.1991  1.3781 -1.1445
11129TIP3    H254879   5.278   5.876   0.969 -0.5125  1.4096  1.8800
11130TIP3   OH254880   3.666   6.365   2.436  0.6320  0.4242  0.5170
11130TIP3    H154881   3.682   6.421   2.361 -0.7607  0.1434 -0.0212
11130TIP3    H254882   3.574   6.339   2.428  0.6424 -0.1686  1.9400
11131TIP3   OH254883   2.357   3.453  17.203 -0.4582  0.2282  0.4606
11131TIP3    H154884   2.367   3.378  17.145 -0.5783  1.0636 -0.6895
11131TIP3    H254885   2.303   3.422  17.275  0.0033 -0.9422  0.3184
11132TIP3   OH254886   1.267   5.835   4.568  0.0112  0.0942 -0.2185
11132TIP3    H154887   1.317   5.917   4.567  3.5336 -1.8303  1.2125
11132TIP3    H254888   1.247   5.821   4.661  0.3895 -1.1612 -0.3166
11133TIP3   OH254889   0.649   6.611  12.136 -0.9486  0.0683 -0.2694
11133TIP3    H154890   0.638   6.658  12.054 -1.5559  0.7600  0.1997
11133TIP3    H254891   0.701   6.534  12.113  1.4978  1.7596 -0.7899
11134TIP3   OH254892   4.609   5.662  12.594  0.1039  0.2323  0.8222
11134TIP3    H154893   4.662   5.635  12.520 -0.4545 -0.7029  0.7475
11134TIP3    H254894   4.672   5.690  12.660  0.5862  2.1699 -0.3730
11135TIP3   OH254895   6.443   4.416  11.084 -0.1099  0.7733  0.1758
11135TIP3    H154896   6.357   4.394  11.046 -0.8344  0.9333  1.6497
11135TIP3    H254897   6.422   4.468  11.161  1.2654 -0.2180  1.2654
11136TIP3   OH254898   4.256   5.059  14.510  0.2161 -0.1319 -0.1406
11136TIP3    H154899   4.317   5.132  14.501  0.6971 -0.6447 -1.2395
11136TIP3    H254900   4.306   4.992  14.557  0.3642 -0.3848 -0.6482
11137TIP3   OH254901   1.013   3.190   0.563  0.3734 -0.5275  0.4324
11137TIP3    H154902   0.975   3.270   0.598  0.3715 -1.0195  1.5912
11137TIP3    H254903   1.098   3.183   0.607  1.5665  0.1844 -1.5846
11138TIP3   OH254904   2.386   1.747   0.659 -0.7802 -0.1902  0.1583
11138TIP3    H154905   2.310   1.689   0.664 -0.6042 -0.4013  0.4428
11138TIP3    H254906   2.364   1.811   0.591 -0.5854 -1.1493 -0.8331
11139TIP3   OH254907   6.644   1.610   1.031 -0.1905 -0.1470 -0.2012
11139TIP3    H154908   6.727   1.609   1.078  0.7722  1.6871 -1.7244
11139TIP3    H254909   6.600   1.690   1.061 -1.2205 -0.8422  0.2224
11140TIP3   OH254910   5.178   4.894   2.680  0.6096 -0.0015 -0.0109
11140TIP3    H154911   5.253   4.849   2.639  0.3540 -1.2829  0.8726
11140TIP3    H254912   5.171   4.854   2.766 -0.9794  0.2598 -0.0059
11141TIP3   OH254913   5.562   3.206   1.062  0.0169  1.1260  0.4334
11141TIP3    H154914   5.568   3.118   1.100 -0.9665  0.5114 -0.7656
11141TIP3    H254915   5.630   3.256   1.107  0.9661 -0.3913  0.7681
11142TIP3   OH254916   2.613   1.896  14.917  0.1661  0.3073  0.4525
11142TIP3    H154917   2.597   1.974  14.970  2.1671  1.9014 -1.1206
11142TIP3    H254918   2.546   1.899  14.849  1.1535  1.6409 -0.5355
11143TIP3   OH254919   2.637   1.491  15.033  0.0084 -0.4382 -0.2798
11143TIP3    H154920   2.691   1.429  15.083  0.6435  0.2715 -0.0655
11143TIP3    H254921   2.625   1.449  14.948 -0.2277 -1.2049  0.1197
11144TIP3   OH254922   3.377   0.714   2.728 -0.1767 -0.0081 -0.1939
11144TIP3    H154923   3.341   0.706   2.640 -1.0463  1.0871  0.0348
11144TIP3    H254924   3.435   0.790   2.725  0.1467 -0.2384  0.0699
11145TIP3   OH254925   5.661   4.842  11.283  0.2136 -0.6963  0.0990
11145TIP3    H154926   5.753   4.823  11.265  0.7774  1.8818 -0.0953
11145TIP3    H254927   5.650   4.822  11.376  1.9417  2.0252  1.0017
11146TIP3   OH254928   4.932   3.813   3.566  0.0687 -0.2516  0.4340
11146TIP3    H154929   4.902   3.826   3.476  1.1184 -0.3836  0.0509
11146TIP3    H254930   4.940   3.718   3.575 -1.9911 -0.4086  1.3549
11147TIP3   OH254931   3.370   2.811   0.526  0.2098 -0.5661  0.1356
11147TIP3    H154932   3.428   2.736   0.511  0.1360 -0.3995 -1.1273
11147TIP3    H254933   3.336   2.832   0.439  0.4102  1.0850  0.4314
11148TIP3   OH254934   4.941   1.233  13.405 -0.2206  0.1605 -0.8226
11148TIP3    H154935   4.903   1.172  13.468 -2.6447 -0.2293 -2.5398
11148TIP3    H254936   4.958   1.180  13.327  0.4386  1.1008 -1.3382
11149TIP3   OH254937   4.892   2.510   1.322  0.2067  0.7098  0.6295
11149TIP3    H154938   4.873   2.601   1.301  0.5710  1.0469  1.6904
11149TIP3    H254939   4.896   2.508   1.418 -2.2023 -0.8773  0.7928
11150TIP3   OH254940   0.905   5.066  15.530  0.2683 -0.2847 -0.7849
11150TIP3    H154941   0.908   5.015  15.611  0.7479 -0.1753 -0.7270
11150TIP3    H254942   0.935   5.006  15.462  1.8362  0.1929 -0.5570
11151TIP3   OH254943   0.387   4.058  12.749  0.3960  0.2482 -0.0141
11151TIP3    H154944   0.312   4.003  12.771  0.1797  0.0009 -1.2762
11151TIP3    H254945   0.460   3.997  12.742  0.6989  0.4733  1.1014
11152TIP3   OH254946   1.425   4.900   0.829 -0.2682  0.0100  0.6655
11152TIP3    H154947   1.454   4.991   0.830 -1.3369  0.3807 -0.0433
11152TIP3    H254948   1.446   4.868   0.741 -2.5713  0.5257 -0.1544
11153TIP3   OH254949   5.485   3.329  11.526  0.0643  0.4953 -0.4722
11153TIP3    H154950   5.488   3.246  11.478  0.9468  0.1297  0.1802
11153TIP3    H254951   5.401   3.327  11.571  0.3272 -0.3231  0.0081
11154TIP3   OH254952   3.014   2.507   3.697  0.0566  0.3709  0.0861
11154TIP3    H154953   3.026   2.583   3.753  0.9743 -0.3883  0.9517
11154TIP3    H254954   3.099   2.465   3.695  0.3534  0.9278 -2.7642
11155TIP3   OH254955   6.661   1.872   0.850  0.3340  0.6563 -0.5850
11155TIP3    H154956   6.646   1.905   0.938 -2.2536 -1.0723 -0.2573
11155TIP3    H254957   6.753   1.845   0.849 -0.2201 -1.9100  2.5948
11156TIP3   OH254958   2.100   6.826  11.483 -0.6339 -0.3264  0.2589
11156TIP3    H154959   2.139   6.783  11.559 -1.0110 -1.2669 -0.0637
11156TIP3    H254960   2.065   6.754  11.430 -1.7617  0.4048 -0.0374
11157TIP3   OH254961   1.271   0.235   3.346 -0.0348  0.7334  0.0894
11157TIP3    H154962   1.208   0.306   3.365 -0.3532  0.1907  1.1786
11157TIP3    H254963   1.230   0.157   3.385 -0.6243 -0.4847 -2.7426
11158TIP3   OH254964   1.032   2.786  14.432  0.3000  0.2006 -0.2518
11158TIP3    H154965   1.053   2.792  14.339 -1.4492 -0.8276 -0.7718
11158TIP3    H254966   1.111   2.815  14.477  0.6487  2.2782 -2.0520
11159TIP3   OH254967   0.697   6.087   4.935  0.1466 -0.1235 -0.8496
11159TIP3    H154968   0.709   6.052   4.847  0.0066  0.2142 -1.0044
11159TIP3    H254969   0.618   6.044   4.967  0.3888 -0.5038 -0.7578
11160TIP3   OH254970   5.686   2.012   1.741 -0.2664 -0.0233  0.0607
11160TIP3    H154971   5.754   1.948   1.761 -0.2151 -0.1566 -0.5388
11160TIP3    H254972   5.681   2.014   1.646 -0.2651  0.8702  0.0721
11161TIP3   OH254973   5.517   2.781  15.906 -0.2429 -0.2703 -0.3738
11161TIP3    H154974   5.423   2.772  15.926  0.0381  1.0556  1.8677
11161TIP3    H254975   5.519   2.811  15.815 -1.9306 -1.2552 -0.7892
11162TIP3   OH254976   2.774   6.040  15.820 -0.2044 -0.4895  0.1638
11162TIP3    H154977   2.713   6.037  15.894 -0.0050  0.0152  0.3492
11162TIP3    H254978   2.758   6.125  15.778  0.2170 -0.4483  0.0822
11163TIP3   OH254979   2.805   4.788  11.279 -1.0825 -0.6041 -0.7097
11163TIP3    H154980   2.823   4.706  11.233 -0.2522 -0.4587 -0.6551
11163TIP3    H254981   2.719   4.815  11.247 -0.4020 -0.3358 -2.4337
11164TIP3   OH254982   3.716   6.789   3.259 -0.2481 -0.3029 -0.0150
11164TIP3    H154983   3.691   6.741   3.338  0.9115 -2.1049 -0.6756
11164TIP3    H254984   3.750   6.873   3.292  1.9112 -1.7008  1.6186
11165TIP3   OH254985   3.965   0.837  11.770 -0.3901  0.0658  0.6653
11165TIP3    H154986   4.011   0.754  11.766  1.3927  0.9161  2.0725
11165TIP3    H254987   3.899   0.832  11.700 -0.5616 -2.6107  0.9494
11166TIP3   OH254988   0.934   4.786   1.033  0.0774 -0.5145 -0.6433
11166TIP3    H154989   1.000   4.804   0.966  0.7968 -0.3746  0.0869
11166TIP3    H254990   0.984   4.757   1.110 -0.4859  1.9733  0.7553
11167TIP3   OH254991   1.686   2.105  14.245  0.3641  0.5020 -0.0839
11167TIP3    H154992   1.621   2.171  14.221 -0.1293 -0.1865 -0.6690
11167TIP3    H254993   1.746   2.102  14.171  0.2166  0.0761 -0.1840
11168TIP3   OH254994   0.896   1.243  14.332  0.1509 -0.2117  0.2039
11168TIP3    H154995   0.852   1.293  14.263  0.8254 -0.8734 -0.7173
11168TIP3    H254996   0.847   1.265  14.411 -2.6660 -1.8404 -0.9222
11169TIP3   OH254997   5.147   4.432  15.041 -0.2289  0.2269 -0.2822
11169TIP3    H154998   5.183   4.388  15.118  0.5028 -1.1706 -1.3777
11169TIP3    H254999   5.182   4.521  15.045 -4.1407  1.9804  3.6434
11170TIP3   OH255000   3.184   4.082   5.231  0.7384 -0.4828  0.0351
11170TIP3    H155001   3.227   4.023   5.293  1.2993 -1.7971 -1.5286
11170TIP3    H255002   3.118   4.027   5.188 -0.6979  0.8109  0.5120
11171TIP3   OH255003   6.754   0.818   1.709  0.3620  0.5349  0.0735
11171TIP3    H155004   6.819   0.856   1.768 -2.5330  1.2319  3.1048
11171TIP3    H255005   6.697   0.892   1.686 -1.5529 -0.6673  0.7029
11172TIP3   OH255006   1.973   6.340   0.913 -0.0031 -0.0954  0.5047
11172TIP3    H155007   1.975   6.370   1.003  2.0083 -1.0600  0.8337
11172TIP3    H255008   2.059   6.363   0.878  0.1599 -1.8990 -0.4005
11173TIP3   OH255009   5.974   3.702  15.516  0.6114 -0.1504 -0.0756
11173TIP3    H155010   5.900   3.726  15.460  0.9828  1.5317  0.1026
11173TIP3    H255011   6.016   3.786  15.536  1.7301 -0.9484  0.9827
11174TIP3   OH255012   5.536   1.169  16.254 -0.4129 -0.1849 -0.5988
11174TIP3    H155013   5.585   1.136  16.179  2.4860 -0.9521  1.4504
11174TIP3    H255014   5.603   1.189  16.320 -2.8090 -0.3615  2.1177
11175TIP3   OH255015   3.247   5.691   6.123  0.0326 -0.2415 -0.1756
11175TIP3    H155016   3.182   5.758   6.105  0.2920  0.2720  0.7423
11175TIP3    H255017   3.295   5.681   6.041 -2.3865 -2.0003 -1.5122
11176TIP3   OH255018   3.271   3.122   1.709 -0.2453 -0.2186  0.0469
11176TIP3    H155019   3.259   3.037   1.668  0.9292 -1.2816  1.7908
11176TIP3    H255020   3.365   3.141   1.698 -0.6215  1.2622 -1.0149
11177TIP3   OH255021   5.060   1.487  12.353 -0.2233  0.3345 -0.3138
11177TIP3    H155022   5.063   1.456  12.444  1.2611 -1.8164 -1.0209
11177TIP3    H255023   4.966   1.499  12.335 -0.6185 -0.3260  1.1353
11178TIP3   OH255024   3.455   3.512  15.847 -0.3472 -0.2767  0.2494
11178TIP3    H155025   3.438   3.424  15.881  1.3010 -0.7603 -0.0882
11178TIP3    H255026   3.545   3.531  15.875 -0.0745  0.6006 -1.1422
11179TIP3   OH255027   6.269   3.695   3.080  0.3094  0.5078 -0.5775
11179TIP3    H155028   6.319   3.767   3.041 -0.9886  1.1065 -1.1903
11179TIP3    H255029   6.215   3.737   3.147 -0.7715  0.1832 -1.2330
11180TIP3   OH255030   0.966   6.241  11.797 -0.3411 -0.2698  0.1604
11180TIP3    H155031   0.974   6.332  11.826 -1.2532 -0.3419  0.6758
11180TIP3    H255032   0.972   6.247  11.701 -1.8606  0.5323  0.0766
11181TIP3   OH255033   2.271   4.297  12.659 -0.5475 -0.0539 -0.3440
11181TIP3    H155034   2.315   4.357  12.600 -1.4239  0.6671 -0.2772
11181TIP3    H255035   2.218   4.241  12.602 -1.0010  0.3098 -0.2784
11182TIP3   OH255036   5.781   5.609  11.136  0.1707 -0.1743  0.1638
11182TIP3    H155037   5.863   5.635  11.179 -0.5933 -0.5657  1.9657
11182TIP3    H255038   5.738   5.553  11.201 -2.3688  1.5012  0.0326
11183TIP3   OH255039   3.636   4.065   5.175 -0.1551 -0.3667  0.1302
11183TIP3    H155040   3.624   4.015   5.095  0.3745  0.5401 -0.5390
11183TIP3    H255041   3.639   4.000   5.245  1.6186 -1.3723 -0.8224
11184TIP3   OH255042   3.706   1.411   1.721 -0.6054 -0.1911 -0.3780
11184TIP3    H155043   3.736   1.492   1.763  1.3852 -0.2375 -1.6163
11184TIP3    H255044   3.643   1.441   1.655  0.9437  0.4946 -1.5878
11185TIP3   OH255045   6.304   2.377   1.466  0.4053 -0.0571  0.0999
11185TIP3    H155046   6.365   2.304   1.473  0.6781  0.0652 -0.8851
11185TIP3    H255047   6.251   2.372   1.546  1.3462 -0.4790  0.7034
11186TIP3   OH255048   1.831   5.353  12.620 -0.7576  0.6826 -0.0672
11186TIP3    H155049   1.797   5.278  12.668 -0.6175  0.8940  0.3694
11186TIP3    H255050   1.798   5.341  12.530 -1.4305  0.5352  0.1897
11187TIP3   OH255051   1.423   1.922  15.730 -0.0746 -0.6056  0.1039
11187TIP3    H155052   1.480   1.999  15.717 -0.8190 -0.4617 -3.0187
11187TIP3    H255053   1.471   1.868  15.793  3.1913 -0.1191 -1.7490
11188TIP3   OH255054   4.318   5.794  11.824 -0.0463 -0.2773 -0.0747
11188TIP3    H155055   4.397   5.847  11.835 -0.3852  0.4087 -0.8039
11188TIP3    H255056   4.248   5.848  11.861 -0.2230 -0.7322  0.2526
11189TIP3   OH255057   5.392   0.801   0.777 -0.0009 -0.0870 -0.3674
11189TIP3    H155058   5.353   0.740   0.714 -0.7767  0.9825 -0.9622
11189TIP3    H255059   5.370   0.887   0.742 -0.7827  0.5357  1.5671
11190TIP3   OH255060   3.934   2.030  14.825  0.1209 -0.2861 -0.0852
11190TIP3    H155061   3.881   1.958  14.790  1.0097 -1.2819  0.5234
11190TIP3    H255062   3.916   2.104  14.768 -1.6630 -0.6797 -0.0939
11191TIP3   OH255063   6.203   2.393  13.466  0.0330  0.1902 -0.2447
11191TIP3    H155064   6.148   2.336  13.412 -0.5678  1.2100 -0.7300
11191TIP3    H255065   6.286   2.398  13.419  1.6248 -3.4567  1.7478
11192TIP3   OH255066   5.979   3.217   0.498 -0.0470  0.0513 -0.3232
11192TIP3    H155067   6.003   3.209   0.590 -2.9174  1.8183  0.7053
11192TIP3    H255068   6.026   3.294   0.467 -1.5132  1.3950  0.6552
11193TIP3   OH255069   0.551   1.084  11.847 -0.3288 -0.6527  0.3314
11193TIP3    H155070   0.597   1.145  11.904  1.2957 -1.9153  0.4557
11193TIP3    H255071   0.497   1.032  11.906 -0.6268 -0.2657  0.3994
11194TIP3   OH255072   4.610   2.006  13.419  0.5507  0.4725  0.0454
11194TIP3    H155073   4.655   1.924  13.439  0.4770  0.8903  2.0656
11194TIP3    H255074   4.570   1.991  13.333  1.0276 -1.3866  0.1136
11195TIP3   OH255075   0.302   0.730  11.663 -0.1051  0.0948 -0.0841
11195TIP3    H155076   0.250   0.781  11.724  0.9004  1.4471 -0.3099
11195TIP3    H255077   0.274   0.639  11.677 -1.3265  0.5996  0.9271
11196TIP3   OH255078   3.530   2.909   2.731  0.5944  0.2070 -0.4031
11196TIP3    H155079   3.498   2.837   2.677 -0.2542 -0.1286  0.5215
11196TIP3    H255080   3.572   2.866   2.805  0.3412  0.6615  0.0081
11197TIP3   OH255081   4.809   2.312  15.825 -0.6851  0.4618 -0.7421
11197TIP3    H155082   4.762   2.378  15.774 -1.9706 -2.2906 -3.3580
11197TIP3    H255083   4.746   2.242  15.840  0.5761 -0.2522  2.0561
11198TIP3   OH255084   1.959   5.920  12.970  0.5592 -0.1248  0.3828
11198TIP3    H155085   1.937   5.999  13.020  0.7159  0.4924 -0.4966
11198TIP3    H255086   2.015   5.952  12.899 -0.0432 -0.9043 -0.4623
11199TIP3   OH255087   1.888   0.007  12.941  0.1413 -0.3056  0.0093
11199TIP3    H155088   1.907   0.100  12.954 -2.2184  0.3659 -0.8250
11199TIP3    H255089   1.905  -0.033  13.027  0.0027  1.1426  0.7429
11200TIP3   OH255090   5.844   5.283  12.686  0.1876  0.1046  0.3998
11200TIP3    H155091   5.832   5.377  12.671  0.4462 -0.0789 -1.1074
11200TIP3    H255092   5.802   5.241  12.611  3.0324 -0.8482 -0.7958
11201TIP3   OH255093   1.783   2.008   1.324  0.0758  0.3255 -0.3087
11201TIP3    H155094   1.764   1.924   1.365  2.0859 -0.3288 -0.6342
11201TIP3    H255095   1.833   2.056   1.390 -1.6280  1.5994  0.1421
11202TIP3   OH255096   3.114   6.073   4.115  0.2851  0.6048 -0.5784
11202TIP3    H155097   3.133   6.075   4.022 -2.0380 -0.4837 -1.1534
11202TIP3    H255098   3.059   6.151   4.130 -3.5436 -1.6988 -1.3003
11203TIP3   OH255099   5.885   1.284  16.044 -0.2786  0.0602 -0.3807
11203TIP3    H155100   5.797   1.318  16.059 -0.6787 -1.3808  0.8200
11203TIP3    H255101   5.892   1.277  15.948 -1.6564 -0.2288 -0.4880
11204TIP3   OH255102   0.748   0.533  16.918 -0.3849 -0.1455 -0.3350
11204TIP3    H155103   0.787   0.497  16.838  0.3992  0.3102 -0.1779
11204TIP3    H255104   0.763   0.627  16.911 -0.9106 -0.0322  0.0406
11205TIP3   OH255105   0.042   1.406   5.567 -0.4913 -0.1438  0.2911
11205TIP3    H155106   0.040   1.350   5.644  0.5223  0.3281  0.6816
11205TIP3    H255107  -0.032   1.465   5.577  0.0629  0.4001  1.2861
11206TIP3   OH255108   1.781   6.534   0.484  0.1653  0.0938 -0.4115
11206TIP3    H155109   1.837   6.499   0.415 -0.0308  1.0644 -1.0825
11206TIP3    H255110   1.832   6.604   0.524  0.7791 -1.2563  1.2978
11207TIP3   OH255111   6.554   1.245   3.917  0.4310 -0.0827 -0.1309
11207TIP3    H155112   6.479   1.301   3.899  2.0407  2.4472  0.4670
11207TIP3    H255113   6.579   1.210   3.831 -0.5251  0.2564 -0.5566
11208TIP3   OH255114   2.681   5.472   5.444  0.4891  0.4840  0.5496
11208TIP3    H155115   2.728   5.540   5.493 -0.2508  1.6817 -0.3539
11208TIP3    H255116   2.749   5.408   5.421  1.3768  1.3660  0.6473
11209TIP3   OH255117   0.299   0.866   4.647  0.0197  0.1073  0.1327
11209TIP3    H155118   0.392   0.888   4.644  0.1077 -0.2367  0.2818
11209TIP3    H255119   0.294   0.791   4.706 -0.3948  0.3395  0.4013
11210TIP3   OH255120   0.354   5.955   2.196  0.7948 -0.2641  0.4551
11210TIP3    H155121   0.388   5.866   2.190  0.2144 -0.4739  0.1782
11210TIP3    H255122   0.424   6.009   2.160  0.5058 -0.7790 -0.9839
11211TIP3   OH255123   6.130   0.395  14.874 -0.2988  0.0189 -0.1450
11211TIP3    H155124   6.150   0.420  14.784  1.2795  0.2812  0.2405
11211TIP3    H255125   6.072   0.319  14.866 -0.2892  0.1240 -1.3718
11212TIP3   OH255126   3.180   0.414   4.484 -0.1457 -0.0261 -0.5596
11212TIP3    H155127   3.254   0.421   4.545 -1.6525 -0.1424  1.3888
11212TIP3    H255128   3.155   0.505   4.467 -0.2623 -0.0042 -0.2857
11213TIP3   OH255129   6.115   5.901   2.615  0.5129  0.0737 -0.1915
11213TIP3    H155130   6.209   5.882   2.605  0.8112  0.3081  1.7417
11213TIP3    H255131   6.113   5.987   2.658 -0.5631 -0.1943  0.3129
11214TIP3   OH255132   3.323   0.236   0.600 -0.2663  0.4710 -0.6815
11214TIP3    H155133   3.324   0.195   0.513 -1.0754  1.4822 -1.1948
11214TIP3    H255134   3.230   0.254   0.616 -0.2123 -0.3811  0.7382
11215TIP3   OH255135   4.607   3.800  11.085 -0.0914  0.4318  0.4356
11215TIP3    H155136   4.605   3.754  11.002 -0.7962  0.2084  0.5718
11215TIP3    H255137   4.572   3.887  11.065  0.9140  0.8080  0.2491
11216TIP3   OH255138   0.740   3.041  16.988  0.2903  0.4881  0.0945
11216TIP3    H155139   0.798   3.089  16.929  0.5860  1.3275  1.0433
11216TIP3    H255140   0.683   3.108  17.025 -0.7865 -0.2175 -0.2212
11217TIP3   OH255141   4.728   4.919   3.111  0.0429  0.2782  0.6398
11217TIP3    H155142   4.650   4.914   3.056  1.1090 -2.5136 -0.8220
11217TIP3    H255143   4.700   4.884   3.196 -0.3108 -0.8407  0.0843
11218TIP3   OH255144   1.734   2.307  12.999 -0.9529 -0.5103  0.6596
11218TIP3    H155145   1.665   2.324  12.934 -0.4284 -0.7075  0.0399
11218TIP3    H255146   1.704   2.230  13.047 -1.2728 -0.4520  0.5554
11219TIP3   OH255147   6.131   6.653   2.464 -0.1733 -0.0040 -0.4508
11219TIP3    H155148   6.222   6.626   2.476 -0.0845  0.1029 -0.8606
11219TIP3    H255149   6.097   6.592   2.399 -1.9768 -3.5564  3.3119
11220TIP3   OH255150   4.349   4.990  15.484  0.0411  0.0369  0.8375
11220TIP3    H155151   4.381   5.031  15.403 -1.4197 -1.9066 -0.8284
11220TIP3    H255152   4.427   4.948  15.521  1.1344  2.4953  1.5291
11221TIP3   OH255153   2.388   3.842  16.483 -0.2232  0.1746  0.2469
11221TIP3    H155154   2.467   3.859  16.534 -1.0405  0.4406  1.4767
11221TIP3    H255155   2.420   3.802  16.402  1.2371  1.2891  0.2262
11222TIP3   OH255156   6.320   0.645   1.621 -0.0836  0.0347  0.2535
11222TIP3    H155157   6.354   0.694   1.696 -0.4420  1.4183 -0.4536
11222TIP3    H255158   6.269   0.709   1.572  3.4663  0.4031 -3.4852
11223TIP3   OH255159   2.342   0.592  11.917 -0.4391  0.6012 -0.7818
11223TIP3    H155160   2.348   0.499  11.937 -1.3332  1.0230  1.8454
11223TIP3    H255161   2.303   0.596  11.829  1.4735 -1.4660 -1.8172
11224TIP3   OH255162   5.643   5.314  12.002  0.1984 -0.3684  0.8180
11224TIP3    H155163   5.557   5.318  11.961  0.1149  1.3554  1.0706
11224TIP3    H255164   5.626   5.318  12.096  0.5347  2.4122  0.8681
11225TIP3   OH255165   0.965   0.175  13.810  0.1409  0.0236 -0.5619
11225TIP3    H155166   1.006   0.120  13.876 -0.9436  0.3093  0.3810
11225TIP3    H255167   1.006   0.261  13.821  0.0899  0.0249 -0.3845
11226TIP3   OH255168   4.653   4.811  16.045 -0.0842 -0.2199 -0.6585
11226TIP3    H155169   4.558   4.812  16.033 -0.2221 -2.7944 -0.4517
11226TIP3    H255170   4.667   4.854  16.129 -1.2663 -1.2332  0.0946
11227TIP3   OH255171   2.929   0.378   4.701  0.4004 -0.0172 -0.1489
11227TIP3    H155172   2.995   0.438   4.737  0.1725 -1.3921  2.8000
11227TIP3    H255173   2.977   0.297   4.685 -0.3246 -0.6548  0.8715
11228TIP3   OH255174   3.639   6.578  12.482 -0.0127  0.0358 -0.0294
11228TIP3    H155175   3.734   6.585  12.481  0.0851 -1.0889 -0.7534
11228TIP3    H255176   3.621   6.486  12.500 -0.9930  0.4225  1.0998
11229TIP3   OH255177   1.898   1.026   5.570  0.3208  0.0795  0.7392
11229TIP3    H155178   1.938   1.112   5.555  0.2999  0.2088  1.4168
11229TIP3    H255179   1.933   0.971   5.500 -2.2977  1.4831 -1.9120
11230TIP3   OH255180   5.478   0.088  14.776  0.0160  0.0333  0.0718
11230TIP3    H155181   5.501   0.022  14.711 -0.3987  0.6086 -0.6822
11230TIP3    H255182   5.529   0.065  14.853 -1.0445 -1.9242  0.2766
11231TIP3   OH255183   0.403   1.834  13.321 -0.4805  0.2350  0.1365
11231TIP3    H155184   0.372   1.895  13.388  0.7420  0.9913  0.0389
11231TIP3    H255185   0.472   1.783  13.364  2.0961  2.4054 -1.1254
11232TIP3   OH255186   0.984   1.943  17.043 -0.0737  0.2027 -0.4157
11232TIP3    H155187   1.002   1.889  16.966 -0.9615 -0.3171 -0.2742
11232TIP3    H255188   0.924   1.890  17.096  1.5521 -0.0123  1.2985
11233TIP3   OH255189   4.181   4.761  15.511 -0.6484 -0.1576 -0.4926
11233TIP3    H155190   4.161   4.855  15.517 -1.2376 -0.2839 -0.4218
11233TIP3    H255191   4.277   4.757  15.509 -0.6286  0.5065 -1.4370
11234TIP3   OH255192   3.338   1.741   0.135  0.0005 -0.2602  0.1036
11234TIP3    H155193   3.306   1.821   0.178  2.5348  1.2358 -0.5957
11234TIP3    H255194   3.322   1.756   0.042  0.0525 -0.8034  0.0034
11235TIP3   OH255195   2.092   5.814   4.839 -0.3335  0.3269 -0.2578
11235TIP3    H155196   2.003   5.780   4.828  0.5742 -2.1628 -0.5238
11235TIP3    H255197   2.101   5.827   4.934 -1.3586  1.9087 -0.3290
11236TIP3   OH255198   4.611   0.109  13.336 -0.3814  0.0785 -0.1586
11236TIP3    H155199   4.638   0.108  13.428 -0.2156  0.7478 -0.1931
11236TIP3    H255200   4.688   0.076  13.288  0.3370  1.7592 -0.2348
11237TIP3   OH255201   6.603   3.552  13.262  0.0102  0.8260  0.1969
11237TIP3    H155202   6.667   3.486  13.288 -1.8235 -0.4316  1.8922
11237TIP3    H255203   6.619   3.625  13.322  0.9155  1.2261 -0.5152
11238TIP3   OH255204   1.896   4.853   5.905 -0.1186 -0.6256  0.0274
11238TIP3    H155205   1.866   4.942   5.920  2.3539  0.2886 -0.0261
11238TIP3    H255206   1.887   4.840   5.810  2.3147  0.7704 -0.4891
11239TIP3   OH255207   5.792   1.151   0.283 -0.2446  0.1735  0.3743
11239TIP3    H155208   5.828   1.095   0.214 -1.2495 -0.2254  0.1624
11239TIP3    H255209   5.765   1.090   0.352 -3.2347  0.1530 -0.7056
11240TIP3   OH255210   3.758   2.449   4.349 -0.6609  0.4172  0.8275
11240TIP3    H155211   3.746   2.535   4.307 -0.5195  0.4177  0.7904
11240TIP3    H255212   3.668   2.419   4.365 -0.8417 -0.8064 -1.9262
11241TIP3   OH255213   1.227   2.858  11.232  0.0551  0.1126 -0.0181
11241TIP3    H155214   1.179   2.940  11.236  0.3381  0.2592  0.5494
11241TIP3    H255215   1.267   2.857  11.146  2.2249  1.8293  0.8831
11242TIP3   OH255216   4.662   3.584  17.169 -0.1710  0.5218 -0.3086
11242TIP3    H155217   4.711   3.665  17.155 -1.9808  2.0861  1.7245
11242TIP3    H255218   4.688   3.555  17.256 -1.7112  0.5942  0.2063
11243TIP3   OH255219   2.334   0.551   0.831 -0.4459 -0.6730 -0.1722
11243TIP3    H155220   2.423   0.532   0.862 -0.1589  0.5420 -0.2211
11243TIP3    H255221   2.282   0.476   0.860 -0.2554  0.4197  3.4101
11244TIP3   OH255222   0.536   2.648  16.887 -0.3593  0.3230  0.3680
11244TIP3    H155223   0.562   2.606  16.969 -0.8110 -0.2394  0.2227
11244TIP3    H255224   0.445   2.622  16.874 -0.7399  1.5700  0.4209
11245TIP3   OH255225   5.461   6.104   2.607  0.2567 -0.2559 -0.3706
11245TIP3    H155226   5.385   6.070   2.560 -1.4203  0.8947  1.3429
11245TIP3    H255227   5.492   6.177   2.554 -0.7222  0.1389 -0.4165
11246TIP3   OH255228   4.295   3.670  14.313 -0.1608 -0.6084 -0.4297
11246TIP3    H155229   4.220   3.721  14.342 -1.3916 -2.4185 -0.3077
11246TIP3    H255230   4.347   3.656  14.392 -0.6459 -0.8853 -0.1578
11247TIP3   OH255231   4.730   1.148   2.118  0.1516  0.0858 -0.0901
11247TIP3    H155232   4.717   1.090   2.043  1.2570  1.1447 -1.1351
11247TIP3    H255233   4.761   1.230   2.080  0.6906  0.6648  1.5269
11248TIP3   OH255234   1.433   6.745  15.306 -0.3460 -0.2449  0.4004
11248TIP3    H155235   1.373   6.671  15.312 -1.0196  0.2807  0.2497
11248TIP3    H255236   1.453   6.767  15.396 -2.5886  1.3217  0.6034
11249TIP3   OH255237   2.454   4.257  13.058  0.3050 -0.2984  0.0240
11249TIP3    H155238   2.477   4.197  12.987  1.1941  0.2249 -0.1527
11249TIP3    H255239   2.537   4.275  13.103 -0.0171  0.4256  0.3576
11250TIP3   OH255240   4.233   5.558   6.247 -0.7592  0.1357 -0.2033
11250TIP3    H155241   4.297   5.581   6.179 -1.0767 -0.8889 -0.8753
11250TIP3    H255242   4.259   5.609   6.323 -0.8184  1.8953 -1.3049
11251TIP3   OH255243   5.656   0.915  11.940  0.7270  0.1582 -0.4339
11251TIP3    H155244   5.591   0.958  11.885  1.4097 -0.9517 -2.2367
11251TIP3    H255245   5.697   0.851  11.881  1.4452 -1.1754  1.4341
11252TIP3   OH255246   2.457   0.224   1.432 -0.0999  0.0110 -0.1863
11252TIP3    H155247   2.407   0.262   1.505  0.8745 -0.1098  0.5637
11252TIP3    H255248   2.431   0.276   1.356 -0.7632  0.4671  0.3383
11253TIP3   OH255249   4.489   0.818  14.968 -0.2831 -0.3470  0.2752
11253TIP3    H155250   4.565   0.760  14.974 -0.5355 -1.1128 -2.4230
11253TIP3    H255251   4.430   0.775  14.906 -0.9357  2.2509 -1.0962
11254TIP3   OH255252   5.060   0.087  14.437 -0.1708  0.1224 -0.0064
11254TIP3    H155253   5.042   0.169  14.484 -1.6801  0.0602 -0.3995
11254TIP3    H255254   5.134   0.048  14.483 -1.2627  0.3112  2.0109
11255TIP3   OH255255   4.091   5.774   1.292  0.0846  0.2786 -0.0828
11255TIP3    H155256   4.079   5.869   1.294  0.6537  0.3452  0.3347
11255TIP3    H255257   4.007   5.740   1.262 -0.0823  0.9220 -0.3609
11256TIP3   OH255258   4.321   6.283   0.361 -0.4165  0.1578  0.1984
11256TIP3    H155259   4.371   6.202   0.371 -1.4739 -0.8501 -2.0203
11256TIP3    H255260   4.300   6.308   0.451  1.2949 -1.1309  1.0244
11257TIP3   OH255261   0.107   1.869  11.931  0.4120 -0.0960 -0.3503
11257TIP3    H155262   0.096   1.795  11.872  0.1790 -0.0174 -0.4072
11257TIP3    H255263   0.136   1.941  11.874 -1.0972  0.3455 -0.6033
11258TIP3   OH255264   5.568   4.732   3.323  0.5342 -0.3399 -0.0363
11258TIP3    H155265   5.563   4.702   3.233 -1.7011 -0.1616 -0.0334
11258TIP3    H255266   5.479   4.721   3.357  0.6641  2.0021  1.3272
11259TIP3   OH255267   4.016   1.618   3.032  0.1077  0.1782  0.3895
11259TIP3    H155268   4.004   1.631   3.126 -0.7503  2.7081 -0.0203
11259TIP3    H255269   4.111   1.612   3.021  0.2440  0.3847  1.3583
11260TIP3   OH255270   5.375   0.477   6.172  0.6134 -0.3730 -0.0673
11260TIP3    H155271   5.342   0.564   6.194 -1.4020 -0.4893 -2.2697
11260TIP3    H255272   5.344   0.421   6.243 -1.8808 -0.0166 -0.8128
11261TIP3   OH255273   3.921   2.166   0.178 -0.5956  0.4822  0.7085
11261TIP3    H155274   3.991   2.131   0.122 -1.2215  0.9509 -0.4013
11261TIP3    H255275   3.904   2.253   0.142 -1.1314  0.7257  1.5406
11262TIP3   OH255276   1.665   0.042   3.796 -0.3585 -0.6050 -0.2707
11262TIP3    H155277   1.736  -0.022   3.787 -0.1498 -0.8482  2.3615
11262TIP3    H255278   1.684   0.087   3.878 -0.9624  2.3117 -1.6023
11263TIP3   OH255279   1.084   3.763  12.982 -0.6379  0.4373  0.2594
11263TIP3    H155280   1.003   3.725  12.946 -1.3155 -0.3986  2.4822
11263TIP3    H255281   1.142   3.770  12.907 -1.5353 -2.2878 -0.8443
11264TIP3   OH255282   1.118   6.154   2.591 -0.2156  0.1724  0.2619
11264TIP3    H155283   1.057   6.194   2.652 -0.8299 -1.6415  0.9014
11264TIP3    H255284   1.168   6.092   2.644 -0.7017 -1.3870 -1.0395
11265TIP3   OH255285   4.698   6.240  14.809 -0.0931  0.4505 -0.4121
11265TIP3    H155286   4.716   6.146  14.815  1.8710  0.7569 -0.8206
11265TIP3    H255287   4.744   6.268  14.730 -1.6429  1.5721 -0.9638
11266TIP3   OH255288   0.787   6.363  16.340 -0.0017  0.0789  0.2946
11266TIP3    H155289   0.840   6.409  16.405 -0.5261 -0.2210  0.9445
11266TIP3    H255290   0.698   6.364  16.375 -0.9459  2.4889 -1.7799
11267TIP3   OH255291   6.305   3.868   5.496 -0.1762 -0.1844  0.1199
11267TIP3    H155292   6.370   3.928   5.533 -0.9611  0.1794  0.9420
11267TIP3    H255293   6.332   3.857   5.405  1.8258 -1.1284  0.7732
11268TIP3   OH255294   0.830   3.304  13.888  0.0178 -0.3626 -0.5914
11268TIP3    H155295   0.906   3.277  13.939 -1.1881 -0.5835  1.2116
11268TIP3    H255296   0.773   3.227  13.888 -1.2007  0.5049  0.1223
11269TIP3   OH255297   1.288   4.723  10.850  0.0028  0.4575  0.0120
11269TIP3    H155298   1.329   4.724  10.764  1.4990 -0.4215  0.6853
11269TIP3    H255299   1.209   4.776  10.839  0.2681  0.5333 -1.8344
11270TIP3   OH255300   5.667   5.019  14.008  0.2712 -0.3670 -0.4847
11270TIP3    H155301   5.670   5.093  14.069  1.4114 -0.8122  0.0281
11270TIP3    H255302   5.697   5.055  13.925 -0.4540  0.0411 -0.5796
11271TIP3   OH255303   3.812   4.920   6.225 -0.2468  0.2539 -0.5300
11271TIP3    H155304   3.751   4.991   6.247  0.6280  0.6503  0.7130
11271TIP3    H255305   3.758   4.858   6.175 -0.7708  2.2723 -2.6664
11272TIP3   OH255306   6.669   1.474   6.160 -0.4404  0.0273 -0.0657
11272TIP3    H155307   6.724   1.398   6.144 -0.1746  0.6204 -2.3911
11272TIP3    H255308   6.580   1.442   6.146 -0.4392 -0.1669  0.3613
11273TIP3   OH255309   5.014   4.730  13.378  0.1739 -0.5196 -0.0973
11273TIP3    H155310   4.997   4.638  13.399  0.2104 -0.7413 -1.0069
11273TIP3    H255311   5.012   4.775  13.463  1.6252 -1.5816  0.5408
11274TIP3   OH255312   6.464   4.210   2.071 -1.0163  0.5528 -0.3014
11274TIP3    H155313   6.548   4.165   2.079 -1.7279 -0.8617 -0.4563
11274TIP3    H255314   6.442   4.236   2.160 -0.6193  0.5345 -0.1964
11275TIP3   OH255315   2.249   1.791  16.367  0.4880 -0.5778  0.0783
11275TIP3    H155316   2.214   1.874  16.398 -2.1735 -1.3795 -0.5209
11275TIP3    H255317   2.188   1.725  16.400  0.6265 -1.9609 -2.1897
11276TIP3   OH255318   2.700   3.618   1.895 -0.2862  0.0936 -0.4825
11276TIP3    H155319   2.725   3.626   1.803  0.5265 -0.8838 -0.3594
11276TIP3    H255320   2.619   3.567   1.894  0.5179 -1.2229 -0.5868
11277TIP3   OH255321   5.399   5.349  15.327 -0.1082 -0.6290 -0.0812
11277TIP3    H155322   5.434   5.312  15.246 -1.3937  0.6528 -1.2777
11277TIP3    H255323   5.439   5.436  15.333 -0.3701 -0.5383  0.4064
11278TIP3   OH255324   1.142   3.062  15.595  0.2143 -0.2252 -0.3683
11278TIP3    H155325   1.051   3.076  15.620 -0.0436 -1.0500 -0.7951
11278TIP3    H255326   1.187   3.039  15.676 -0.3038 -1.4117 -0.4009
11279TIP3   OH255327   3.426   1.661   4.669  0.2636  0.3517 -0.6529
11279TIP3    H155328   3.461   1.643   4.582 -0.2527  2.0325 -1.2507
11279TIP3    H255329   3.448   1.753   4.685 -1.0983  0.5521  0.2667
11280TIP3   OH255330   2.642   0.410   1.679  0.3922 -0.2547  0.4619
11280TIP3    H155331   2.640   0.380   1.770  0.9202 -1.0987  0.1966
11280TIP3    H255332   2.553   0.394   1.647  0.2411 -0.0813  0.7830
11281TIP3   OH255333   0.630   2.055  10.944  0.2895  0.1584  0.1546
11281TIP3    H155334   0.610   2.113  10.870  2.7711  1.6305  0.5249
11281TIP3    H255335   0.589   1.972  10.921  2.0742  0.0958 -3.6466
11282TIP3   OH255336   3.530   4.355  15.573 -0.3433  0.1039 -0.7223
11282TIP3    H155337   3.599   4.383  15.513 -0.4349 -0.1596 -0.9550
11282TIP3    H255338   3.463   4.317  15.516  0.1622 -1.3827 -0.3673
11283TIP3   OH255339   5.553   5.619   1.039 -0.1045 -0.3935  0.3111
11283TIP3    H155340   5.536   5.632   0.945 -1.8068 -0.5355  0.5566
11283TIP3    H255341   5.610   5.692   1.063 -1.6140  1.0842 -0.3569
11284TIP3   OH255342   4.425   2.724  11.293  0.0443  0.3412  0.7815
11284TIP3    H155343   4.456   2.634  11.284 -2.0982 -0.5334  1.5719
11284TIP3    H255344   4.424   2.740  11.387 -2.8749 -0.1253  0.9230
11285TIP3   OH255345   4.127   2.677  11.179  0.1148  0.2776 -0.0909
11285TIP3    H155346   4.216   2.653  11.153 -0.3848 -1.2528 -0.4716
11285TIP3    H255347   4.081   2.691  11.097 -0.6488 -1.4778 -0.0005
11286TIP3   OH255348   3.311   6.474  13.051 -0.2162  0.3477  0.1251
11286TIP3    H155349   3.375   6.442  12.986  0.9611  0.1593  1.3405
11286TIP3    H255350   3.228   6.473  13.004  0.4739 -0.5265 -1.1567
11287TIP3   OH255351   0.111   0.978  16.556  0.4198 -0.1447 -0.2391
11287TIP3    H155352   0.101   0.971  16.461  2.0942 -2.6818 -0.3300
11287TIP3    H255353   0.115   0.887  16.586 -1.4002  0.5481  2.4727
11288TIP3   OH255354   3.299   2.689   2.779 -0.1706 -0.2875  0.0534
11288TIP3    H155355   3.334   2.681   2.868  0.3553 -1.2492 -0.2302
11288TIP3    H255356   3.271   2.781   2.773  1.1203  0.1776  0.7269
11289TIP3   OH255357   0.095   0.771  13.445  0.4619 -0.0016  0.3225
11289TIP3    H155358   0.064   0.681  13.457  2.0393 -0.4592  1.1367
11289TIP3    H255359   0.144   0.768  13.363 -0.3034  0.3578 -0.1550
11290TIP3   OH255360   5.996   2.709  12.084  0.4372  0.5475  0.1556
11290TIP3    H155361   5.970   2.619  12.067  1.9778  0.2399 -0.7309
11290TIP3    H255362   6.088   2.703  12.112  0.2848  1.7651  1.0340
11291TIP3   OH255363   4.453   1.734  16.572  0.5036  0.0752  0.2607
11291TIP3    H155364   4.510   1.711  16.498  1.4965  2.2674  0.2673
11291TIP3    H255365   4.392   1.799  16.537 -0.6232 -0.6638  0.7971
11292TIP3   OH255366   0.079   0.004   2.955 -0.5705 -0.5558 -0.0411
11292TIP3    H155367   0.114  -0.063   2.896 -1.2945 -0.6138 -0.4225
11292TIP3    H255368   0.156   0.040   2.999 -0.2546 -2.3719  0.9669
11293TIP3   OH255369   1.940   3.357   5.556  0.5715 -0.2293 -0.2228
11293TIP3    H155370   1.931   3.400   5.642  1.4443 -0.2056 -0.1429
11293TIP3    H255371   2.022   3.309   5.561  1.8843  1.6681 -1.8397
11294TIP3   OH255372   3.989   4.732   0.123  0.1481  0.0988  0.0889
11294TIP3    H155373   4.066   4.786   0.105 -0.5680  1.1799  0.1686
11294TIP3    H255374   3.929   4.791   0.168 -1.8400  0.1045 -2.3772
11295TIP3   OH255375   4.662   2.965   1.175  0.0278 -0.1477  0.3340
11295TIP3    H155376   4.604   2.959   1.099  0.4835  1.3805 -0.1618
11295TIP3    H255377   4.746   2.992   1.139  0.2311  0.6920  1.3811
11296TIP3   OH255378   4.399   2.896  16.670  0.0985  0.5781 -0.0950
11296TIP3    H155379   4.348   2.957  16.723  0.7797  2.4246 -1.4487
11296TIP3    H255380   4.339   2.869  16.601 -0.1926 -0.3081  0.4864
11297TIP3   OH255381   0.210   1.069   1.558  0.0043  0.0990 -0.0287
11297TIP3    H155382   0.279   1.133   1.577 -1.1861  1.7786 -1.1343
11297TIP3    H255383   0.134   1.122   1.536 -1.2458 -1.7277 -0.2561
11298TIP3   OH255384   3.380   4.398  11.557 -0.8269  0.1633  0.1616
11298TIP3    H155385   3.286   4.408  11.540 -0.6991  5.3766  0.9515
11298TIP3    H255386   3.386   4.385  11.652 -0.7260  0.4967  0.1997
11299TIP3   OH255387   1.203   6.179   3.640  0.0624 -0.0963  0.0685
11299TIP3    H155388   1.170   6.103   3.593  0.7049 -0.5770  0.3860
11299TIP3    H255389   1.298   6.171   3.635  0.1342  0.2555  0.7878
11300TIP3   OH255390   3.872   4.596  10.628 -0.6417  0.0899 -0.1020
11300TIP3    H155391   3.848   4.515  10.585 -0.9567 -0.2133  0.6220
11300TIP3    H255392   3.810   4.661  10.596 -1.9858 -0.5119  1.1601
11301TIP3   OH255393   1.086   2.103   1.214 -0.1433  0.1769 -0.0128
11301TIP3    H155394   1.141   2.181   1.202 -0.3447 -0.0124 -3.0315
11301TIP3    H255395   1.147   2.033   1.236  0.7081  0.3032 -1.7703
11302TIP3   OH255396   5.034   5.806   1.700  0.4098 -0.2660 -0.4346
11302TIP3    H155397   4.971   5.750   1.655  0.8413  0.7346 -2.4083
11302TIP3    H255398   5.115   5.754   1.703  0.1922 -0.5949 -0.1852
11303TIP3   OH255399   4.507   3.424  16.756 -0.2993  0.1135 -0.0579
11303TIP3    H155400   4.583   3.458  16.709 -0.5524  1.7803  0.6394
11303TIP3    H255401   4.496   3.484  16.830 -1.9552 -0.4084  0.1662
11304TIP3   OH255402   4.550   2.017  12.714 -0.2490  0.8662  0.4096
11304TIP3    H155403   4.457   2.002  12.729 -0.8262  3.1371 -0.4239
11304TIP3    H255404   4.569   1.971  12.633 -0.0652 -1.3412  1.6182
11305TIP3   OH255405   3.990   3.147  14.580 -0.0831 -0.0164  0.2572
11305TIP3    H155406   4.002   3.197  14.661  0.9102 -0.2672  0.2737
11305TIP3    H255407   4.046   3.070  14.591  0.5622  0.2701 -0.9391
11306TIP3   OH255408   2.346   6.160   4.393 -0.1244  0.1494 -0.7577
11306TIP3    H155409   2.293   6.125   4.322 -1.2201  1.1943 -0.4896
11306TIP3    H255410   2.428   6.185   4.352  0.1210 -1.3103 -1.2204
11307TIP3   OH255411   1.139   4.964   2.008  0.1287 -0.1692  0.1278
11307TIP3    H155412   1.068   4.901   2.021 -0.6021  0.8226  1.0838
11307TIP3    H255413   1.097   5.041   1.971  0.7001  0.4264  0.6984
11308TIP3   OH255414   4.551   4.109  14.331 -0.1013 -0.3494 -0.3553
11308TIP3    H155415   4.630   4.074  14.373  0.6105  0.3401 -1.0918
11308TIP3    H255416   4.486   4.112  14.401 -0.2967 -3.3554 -0.2796
11309TIP3   OH255417   0.186   4.866   4.081 -0.7500  0.6102  0.0593
11309TIP3    H155418   0.112   4.907   4.125 -2.0265 -0.1630 -1.3026
11309TIP3    H255419   0.153   4.841   3.996  1.6742  2.1805 -1.4838
11310TIP3   OH255420   5.466   2.090   3.236 -0.5538  1.1098 -0.9520
11310TIP3    H155421   5.450   2.036   3.160 -0.9554  0.5054 -0.4451
11310TIP3    H255422   5.395   2.069   3.297  0.9407 -0.0446  0.4759
11311TIP3   OH255423   0.858   5.161  13.941  0.7056  0.7328 -0.6294
11311TIP3    H155424   0.873   5.077  13.898  0.7068  0.5170 -0.2191
11311TIP3    H255425   0.888   5.146  14.031  0.8961  1.2342 -0.6103
11312TIP3   OH255426   1.364   6.110  11.121 -0.3360 -0.0352 -0.0254
11312TIP3    H155427   1.379   6.019  11.096 -0.1859  0.1652 -0.6677
11312TIP3    H255428   1.279   6.109  11.166  0.0366 -0.6191  0.6772
11313TIP3   OH255429   6.139   4.087  13.517  0.6316 -0.1136 -0.1055
11313TIP3    H155430   6.062   4.127  13.559  0.0351 -0.8228 -0.5140
11313TIP3    H255431   6.128   4.106  13.424 -0.6023 -2.7115 -0.5591
11314TIP3   OH255432   0.641   3.885   4.349  0.3651 -0.2609 -0.2427
11314TIP3    H155433   0.736   3.897   4.338  0.1992  1.3656 -0.2231
11314TIP3    H255434   0.627   3.899   4.443 -0.1071  1.6051 -0.5419
11315TIP3   OH255435   6.619   6.756  16.175 -0.1388 -0.5006  0.5154
11315TIP3    H155436   6.658   6.760  16.087 -1.8229 -2.1640 -0.3804
11315TIP3    H255437   6.681   6.803  16.231  2.8369 -2.4503 -0.8865
11316TIP3   OH255438   4.191   0.304   1.729 -0.7486 -0.5470 -0.2116
11316TIP3    H155439   4.104   0.326   1.761 -0.5101 -0.2050  0.2099
11316TIP3    H255440   4.250   0.324   1.802 -0.2406 -0.0671 -0.7361
11317TIP3   OH255441   5.158   6.359   1.028  0.4579  0.9633 -0.1151
11317TIP3    H155442   5.093   6.418   1.065 -0.6770  1.2951 -2.4685
11317TIP3    H255443   5.237   6.412   1.019 -0.1881  1.8106 -1.0365
11318TIP3   OH255444   1.041   6.335   0.925 -0.1188  0.6430 -0.3460
11318TIP3    H155445   0.988   6.378   0.993  2.1482 -0.9119  2.6830
11318TIP3    H255446   0.987   6.263   0.894 -1.0456  1.0786  0.2248
11319TIP3   OH255447   2.641   1.760  14.319  0.5455  0.0984  0.2073
11319TIP3    H155448   2.629   1.792  14.229  0.6280  1.2174  0.5722
11319TIP3    H255449   2.726   1.795  14.345  0.4443 -0.0736  0.7858
11320TIP3   OH255450   2.089   0.503   6.374  0.2658  0.2855  0.0459
11320TIP3    H155451   2.060   0.567   6.439  1.1637 -0.2424  0.9988
11320TIP3    H255452   2.070   0.545   6.290  0.7969  1.7982  0.6325
11321TIP3   OH255453   1.075   3.903  12.245 -0.2740  0.9734 -0.6086
11321TIP3    H155454   1.037   3.968  12.186 -0.2812 -0.3839 -2.1708
11321TIP3    H255455   1.159   3.882  12.206  0.3159  0.9902  0.6130
11322TIP3   OH255456   1.169   1.620   3.478 -0.2469 -0.4154  0.5811
11322TIP3    H155457   1.098   1.598   3.418 -1.4427  0.1172  1.7268
11322TIP3    H255458   1.136   1.697   3.525  1.7137  0.7650  0.1250
11323TIP3   OH255459   2.149   1.916   0.208  0.2065  0.3468  0.0771
11323TIP3    H155460   2.192   1.901   0.292 -0.4954 -0.7847  0.2610
11323TIP3    H255461   2.088   1.842   0.199 -0.0633  0.7024 -1.2068
11324TIP3   OH255462   4.588   3.421  11.142 -0.3083 -0.1726  0.5456
11324TIP3    H155463   4.649   3.359  11.180  1.2001  0.7689 -0.2533
11324TIP3    H255464   4.539   3.370  11.076  0.1180 -0.7615  0.6834
11325TIP3   OH255465   3.940   6.716   5.227 -0.4355 -0.1058  0.4816
11325TIP3    H155466   4.020   6.732   5.276 -0.7028  2.1987  0.2422
11325TIP3    H255467   3.970   6.682   5.142  0.2347 -0.0584  0.6960
11326TIP3   OH255468   3.167   3.260   1.353  0.4803  0.0331  0.2552
11326TIP3    H155469   3.250   3.260   1.306  0.1110 -0.3447 -0.4078
11326TIP3    H255470   3.101   3.265   1.285 -0.0469  0.3795  0.7830
11327TIP3   OH255471   5.177   3.775   0.400 -0.1793 -0.0652  0.4138
11327TIP3    H155472   5.267   3.790   0.369 -0.2109 -1.7815 -0.6648
11327TIP3    H255473   5.181   3.691   0.445 -1.0713  0.3048  1.2144
11328TIP3   OH255474   3.939   2.774   4.931 -0.5793 -0.0579 -0.2829
11328TIP3    H155475   3.978   2.691   4.958  0.9013  0.0369 -1.9541
11328TIP3    H255476   3.852   2.752   4.900  0.0712 -1.1318 -1.4110
11329TIP3   OH255477   3.241   0.697   4.211 -0.1827 -0.4453  0.0410
11329TIP3    H155478   3.153   0.667   4.188  0.0880 -1.0557 -0.1978
11329TIP3    H255479   3.264   0.759   4.141 -0.5194 -0.0844  0.2433
11330TIP3   OH255480   6.544   4.999   4.297  0.1624  0.0363  0.0054
11330TIP3    H155481   6.487   4.940   4.346  0.6280 -0.5129 -0.1045
11330TIP3    H255482   6.485   5.065   4.260 -0.5334 -1.0571 -0.8866
11331TIP3   OH255483   4.398   1.950  16.833 -0.1797  0.0492 -0.0769
11331TIP3    H155484   4.398   1.905  16.749 -0.0953  0.6634 -0.4140
11331TIP3    H255485   4.480   2.000  16.833 -1.1845  1.7676 -0.5779
11332TIP3   OH255486   0.605   0.830   4.641  0.3385  0.4171  0.5361
11332TIP3    H155487   0.625   0.902   4.582  0.6894  0.9258  1.2539
11332TIP3    H255488   0.620   0.866   4.729 -0.4583 -0.2270  0.9494
11333TIP3   OH255489   1.116   0.764  15.182 -0.1593  0.0738 -0.5391
11333TIP3    H155490   1.023   0.751  15.201 -0.1166 -2.5512 -1.7456
11333TIP3    H255491   1.155   0.678  15.194  2.1193  1.0856 -0.2341
11334TIP3   OH255492   0.344   0.667  16.108  0.2872 -0.1516  0.2320
11334TIP3    H155493   0.388   0.597  16.155 -0.3027  0.8907  2.4514
11334TIP3    H255494   0.372   0.747  16.151 -1.4774  0.7411 -0.1814
11335TIP3   OH255495   5.945   6.634  17.223 -0.3743 -0.0292 -0.5698
11335TIP3    H155496   6.029   6.671  17.195 -1.5905  3.4126 -0.1890
11335TIP3    H255497   5.952   6.540  17.205  3.5057  0.1278 -0.5259
11336TIP3   OH255498   1.903   3.690   3.063  0.1442  0.1581 -0.1195
11336TIP3    H155499   1.843   3.756   3.029 -0.7262 -0.7723 -0.4567
11336TIP3    H255500   1.972   3.684   2.996 -0.2855  0.0570 -0.5638
11337TIP3   OH255501   6.592   4.012  15.104 -0.0676  0.3245  0.5918
11337TIP3    H155502   6.582   3.920  15.078 -0.5184  0.1720  1.2741
11337TIP3    H255503   6.679   4.016  15.143 -1.2679 -0.6555  3.7460
11338TIP3   OH255504   1.897   5.727  13.632  0.7402 -0.7088  0.4878
11338TIP3    H155505   1.896   5.769  13.546  1.6908  1.0556  1.2793
11338TIP3    H255506   1.822   5.668  13.631 -0.0716  0.2872 -1.0680
11339TIP3   OH255507   2.155   4.901  11.947  0.4203 -0.4071  0.0351
11339TIP3    H155508   2.102   4.891  12.027 -0.8835 -1.4171 -0.9147
11339TIP3    H255509   2.219   4.830  11.952  0.3146 -0.4942  0.1563
11340TIP3   OH255510   1.182   3.911   1.076 -0.7280  0.5054  0.0714
11340TIP3    H155511   1.257   3.933   1.130 -1.5108  0.7374  1.1070
11340TIP3    H255512   1.125   3.988   1.082 -0.6973  0.6564 -1.3475
11341TIP3   OH255513   4.021   3.613  11.397 -0.3570  0.0174 -0.1374
11341TIP3    H155514   3.933   3.632  11.431 -0.5355 -1.0921  0.0485
11341TIP3    H255515   4.006   3.560  11.320  0.1576 -0.4095  0.0497
11342TIP3   OH255516   1.945   2.543   1.503  0.3375  0.2116 -1.1251
11342TIP3    H155517   1.972   2.530   1.412 -2.2518  1.5968 -2.2084
11342TIP3    H255518   1.873   2.606   1.498 -0.1215  0.0923  1.8825
11343TIP3   OH255519   2.027   2.568   2.426 -0.2449 -0.0039  0.8516
11343TIP3    H155520   2.050   2.485   2.468 -0.6826  0.4805  2.0928
11343TIP3    H255521   1.932   2.575   2.436 -0.4591 -0.1260 -0.7498
11344TIP3   OH255522   4.715   3.760   2.664 -0.0646  0.4299  0.3476
11344TIP3    H155523   4.634   3.779   2.712  1.0414  0.0135  2.4811
11344TIP3    H255524   4.701   3.800   2.578 -2.2608  0.9540  0.8785
11345TIP3   OH255525   5.151   1.641  14.075 -0.3335 -0.7811  0.8288
11345TIP3    H155526   5.151   1.545  14.064 -0.4241 -0.9648  2.2395
11345TIP3    H255527   5.079   1.658  14.135  0.9350 -0.0526  2.2000
11346TIP3   OH255528   1.651   6.429  15.131  0.3174 -0.4317  0.1506
11346TIP3    H155529   1.665   6.521  15.108  3.5755 -0.6406  0.8552
11346TIP3    H255530   1.639   6.429  15.226 -0.0414 -0.7414  0.1116
11347TIP3   OH255531   4.115   0.467  17.169  0.1623 -0.5673 -0.0881
11347TIP3    H155532   4.071   0.547  17.140 -0.2053 -1.1937 -1.3328
11347TIP3    H255533   4.170   0.496  17.242 -1.9133  0.3304  1.2183
11348TIP3   OH255534   2.182   1.444   3.336  0.3327  0.1793 -0.0020
11348TIP3    H155535   2.219   1.362   3.301  0.0280  0.6611 -1.5393
11348TIP3    H255536   2.132   1.417   3.412 -0.6691 -1.2397 -1.1054
11349TIP3   OH255537   3.923   2.352  12.440 -0.6855  0.2260 -0.8277
11349TIP3    H155538   3.911   2.429  12.384  0.1306  0.9434 -0.0474
11349TIP3    H255539   3.880   2.375  12.522 -0.7228 -0.2864 -0.7008
11350TIP3   OH255540   2.266   6.147   3.471  0.2219  1.0846  0.4154
11350TIP3    H155541   2.174   6.160   3.493  0.1652  0.7580  0.3702
11350TIP3    H255542   2.300   6.092   3.542  0.4404  1.4005  0.5580
11351TIP3   OH255543   6.453   5.184   3.137  0.5718 -0.3225  0.3496
11351TIP3    H155544   6.466   5.090   3.131 -1.5855 -0.9311  3.0464
11351TIP3    H255545   6.491   5.209   3.221  0.6546  1.1421 -0.0836
11352TIP3   OH255546   3.132   2.888  12.101 -0.0710 -0.1360 -0.0757
11352TIP3    H155547   3.068   2.955  12.124 -2.2235 -1.9102 -0.5276
11352TIP3    H255548   3.082   2.807  12.096  2.2044 -1.6305 -0.6401
11353TIP3   OH255549   3.179   3.597  16.268  0.3824 -0.2599 -0.3583
11353TIP3    H155550   3.235   3.620  16.193 -0.5893  0.3956 -0.9034
11353TIP3    H255551   3.139   3.680  16.294 -1.5882 -0.9396 -1.0238
11354TIP3   OH255552   2.720   5.827  14.560 -0.5918 -0.0600 -0.1992
11354TIP3    H155553   2.767   5.892  14.613  0.6963 -0.8842 -0.2853
11354TIP3    H255554   2.733   5.856  14.470 -1.1830  0.2982 -0.1775
11355TIP3   OH255555   4.789   2.770   5.806  0.2272  0.0930 -0.4305
11355TIP3    H155556   4.844   2.751   5.731  1.5177 -2.0565  0.9468
11355TIP3    H255557   4.842   2.745   5.882 -1.8077  0.0798  1.0861
11356TIP3   OH255558   3.223   0.384  11.044 -0.2729  0.6167 -0.4147
11356TIP3    H155559   3.253   0.393  11.135  0.4873  1.1165 -0.7026
11356TIP3    H255560   3.163   0.309  11.046  2.0734 -1.3910 -0.0506
11357TIP3   OH255561   1.871   4.637   2.603 -0.1677  0.2880  0.1905
11357TIP3    H155562   1.821   4.718   2.594 -1.2134 -0.5000 -1.3225
11357TIP3    H255563   1.865   4.594   2.518  0.3876 -1.3889  0.9463
11358TIP3   OH255564   2.511   5.872  11.415 -0.2540 -0.3041 -0.3445
11358TIP3    H155565   2.442   5.916  11.366 -1.3950  0.0206  1.4726
11358TIP3    H255566   2.591   5.891  11.366 -1.1755  0.9520 -1.4274
11359TIP3   OH255567   6.279   2.543   0.269  0.3233 -0.0479  0.0304
11359TIP3    H155568   6.306   2.501   0.187 -0.2034  0.3521 -0.3498
11359TIP3    H255569   6.281   2.472   0.334  0.8542 -0.3422 -0.3004
11360TIP3   OH255570   4.669   2.479   0.938  0.2048 -0.1143  0.0300
11360TIP3    H155571   4.719   2.535   0.878 -1.0291  0.6758 -0.3107
11360TIP3    H255572   4.578   2.501   0.920 -0.2498 -1.0402  1.0909
11361TIP3   OH255573   3.008   0.627  14.923  0.5570  0.2666  0.4592
11361TIP3    H155574   3.050   0.577  14.853  0.1426  0.1163  0.3094
11361TIP3    H255575   3.015   0.718  14.896 -0.3001  0.1612 -0.1881
11362TIP3   OH255576   3.524   6.172   5.403  0.3050 -0.0467  0.1274
11362TIP3    H155577   3.609   6.132   5.386  0.6017  0.6377 -0.0222
11362TIP3    H255578   3.545   6.259   5.438 -0.3350  0.7291 -1.3514
11363TIP3   OH255579   1.953   2.081  15.732 -0.5426  0.0784  0.0453
11363TIP3    H155580   1.922   2.168  15.705 -0.8032 -0.4478 -1.4017
11363TIP3    H255581   1.978   2.038  15.651  0.4564 -0.8920  0.8317
11364TIP3   OH255582   4.397   2.480  13.294  0.4016 -0.2624  0.1916
11364TIP3    H155583   4.377   2.546  13.360 -1.3867  2.0995 -2.4648
11364TIP3    H255584   4.488   2.456  13.311  0.7889  2.0669  1.9702
11365TIP3   OH255585   4.421   4.575  15.738  0.1101 -0.5418  0.3329
11365TIP3    H155586   4.472   4.494  15.742 -0.8932 -1.3470 -1.8263
11365TIP3    H255587   4.339   4.553  15.782 -0.0531 -0.6163 -0.0073
11366TIP3   OH255588   4.097   0.429  10.658  0.6770  0.4573  0.1963
11366TIP3    H155589   4.152   0.354  10.634  1.3796  1.1910 -0.5461
11366TIP3    H255590   4.008   0.396  10.654  1.0543 -0.9264  1.9872
11367TIP3   OH255591   2.073   0.993   5.865 -0.0747  0.3595 -0.2001
11367TIP3    H155592   2.039   1.075   5.900  0.5605  1.5316 -2.1875
11367TIP3    H255593   2.109   0.947   5.941 -1.0351  1.5983  1.0495
11368TIP3   OH255594   5.700   5.672  16.144  0.1794 -0.3648  0.1849
11368TIP3    H155595   5.781   5.719  16.163 -0.1743 -0.4865  2.2029
11368TIP3    H255596   5.682   5.691  16.052  0.8741  2.1439  0.5058
11369TIP3   OH255597   4.398   3.490  12.620 -0.0389 -0.0529  0.9451
11369TIP3    H155598   4.442   3.575  12.630 -0.2274  0.1468  0.1233
11369TIP3    H255599   4.344   3.500  12.542 -1.3185 -0.3973  1.7528
11370TIP3   OH255600   1.256   3.984   0.128  0.6184 -0.1896 -0.2345
11370TIP3    H155601   1.178   3.947   0.087  1.1731 -0.7895 -0.7960
11370TIP3    H255602   1.278   4.060   0.073  1.3719 -1.0041 -1.1054
11371TIP3   OH255603   0.722   3.251   4.097 -0.3987  0.8591  0.3718
11371TIP3    H155604   0.728   3.248   4.193 -1.4752  3.9368  0.6707
11371TIP3    H255605   0.754   3.338   4.074  1.1713 -0.2998 -2.2771
11372TIP3   OH255606   2.602   6.524  12.036  0.4178 -0.0019 -0.9243
11372TIP3    H155607   2.530   6.553  11.981  1.2640  0.2753 -1.9017
11372TIP3    H255608   2.599   6.428  12.031  0.3480  0.0179 -1.2748
11373TIP3   OH255609   2.393   1.571   2.898  1.0908  0.1347 -0.4964
11373TIP3    H155610   2.321   1.635   2.897  1.8680  1.0358 -1.4748
11373TIP3    H255611   2.371   1.509   2.828  0.9371  0.0342 -0.3583
11374TIP3   OH255612   2.522   6.519  10.965  0.5743  0.2510  0.0111
11374TIP3    H155613   2.470   6.515  10.885  0.8213 -0.6594 -0.1131
11374TIP3    H255614   2.546   6.612  10.974 -1.7204  0.8599  0.4857
11375TIP3   OH255615   3.873   3.015   5.537 -0.7087  0.5688 -0.3639
11375TIP3    H155616   3.882   2.947   5.470 -2.1354  0.8002 -0.8253
11375TIP3    H255617   3.801   3.070   5.506 -0.9138  1.1131  1.0050
11376TIP3   OH255618   6.730   5.206   2.923 -0.0724 -0.1093  0.4487
11376TIP3    H155619   6.761   5.141   2.860 -2.1216 -0.2792 -0.4651
11376TIP3    H255620   6.716   5.156   3.004  1.9219 -0.0154  0.9162
11377TIP3   OH255621   0.167   5.635  11.822 -0.2329 -0.0633 -0.1362
11377TIP3    H155622   0.221   5.600  11.752 -1.5410 -0.8101 -0.8171
11377TIP3    H255623   0.228   5.651  11.894  0.8024 -1.3236 -0.7008
11378TIP3   OH255624   0.142   4.244  11.444 -0.0157 -0.6476 -0.2018
11378TIP3    H155625   0.221   4.204  11.480 -1.0211 -1.1008  1.6882
11378TIP3    H255626   0.096   4.171  11.402 -0.6819 -1.0218  1.1027
11379TIP3   OH255627   6.820   4.725  11.848 -0.1603  0.8429  0.0527
11379TIP3    H155628   6.877   4.772  11.909  0.2239 -0.4802  0.7620
11379TIP3    H255629   6.881   4.678  11.791 -0.5408  0.7952 -0.3163
11380TIP3   OH255630   2.633   6.732   1.201 -0.4119  0.1153 -0.1466
11380TIP3    H155631   2.543   6.715   1.173  0.3188 -1.9123 -1.5434
11380TIP3    H255632   2.685   6.726   1.120  1.2272 -1.2039  0.9210
11381TIP3   OH255633   1.767   2.319  10.447 -0.2183  0.1116  0.3215
11381TIP3    H155634   1.707   2.257  10.405 -0.6267  1.9992 -2.0851
11381TIP3    H255635   1.711   2.374  10.502 -0.3801  0.4987 -0.2268
11382TIP3   OH255636   3.213   6.214   3.630 -0.6857 -0.2055 -0.2224
11382TIP3    H155637   3.150   6.223   3.558 -0.2634  0.7362 -0.4847
11382TIP3    H255638   3.240   6.303   3.650 -0.8016 -0.4530  1.1258
11383TIP3   OH255639   0.545   4.831  11.803 -0.6911  0.2434 -0.6084
11383TIP3    H155640   0.622   4.831  11.746 -0.1290  2.2487  0.0519
11383TIP3    H255641   0.581   4.843  11.891 -1.6060 -1.8780  0.1270
11384TIP3   OH255642   2.328   3.496   3.448  0.0414  0.0057  0.2649
11384TIP3    H155643   2.314   3.448   3.366  0.8947 -0.6586  0.4915
11384TIP3    H255644   2.394   3.562   3.427 -0.6420  0.6435  0.1178
11385TIP3   OH255645   2.330   2.867   5.558 -0.0538 -0.5571 -0.3013
11385TIP3    H155646   2.314   2.926   5.484  1.4546  1.9858  1.2853
11385TIP3    H255647   2.422   2.843   5.550  0.3466  0.3794  1.1256
11386TIP3   OH255648   2.035   6.562  12.498  0.7130  0.0486  0.3118
11386TIP3    H155649   2.116   6.612  12.490  1.4074 -1.1393 -0.3486
11386TIP3    H255650   2.064   6.472  12.508 -0.5370 -0.4066 -0.0710
11387TIP3   OH255651   4.797   3.983  14.400 -0.1323 -0.1242 -1.0134
11387TIP3    H155652   4.866   3.971  14.336  0.3581 -1.3702 -0.2962
11387TIP3    H255653   4.843   3.998  14.483 -0.7512  1.6408 -0.9567
11388TIP3   OH255654   0.940   3.871   4.370  0.8055 -0.2655  0.2449
11388TIP3    H155655   1.030   3.900   4.379  1.0398 -0.9259  0.0197
11388TIP3    H255656   0.935   3.830   4.284  0.5053 -0.9848  0.5943
11389TIP3   OH255657   4.181   3.452   6.465  0.0402  0.0013  0.1360
11389TIP3    H155658   4.272   3.458   6.436  0.4983 -0.7638  1.3007
11389TIP3    H255659   4.149   3.371   6.425 -0.3223  0.5661 -0.7373
11390TIP3   OH255660   3.282   1.068   2.220  0.1680  0.0710  0.4438
11390TIP3    H155661   3.340   1.005   2.263 -1.1322 -0.1775  1.9431
11390TIP3    H255662   3.341   1.136   2.185  1.3350  0.1763  2.4672
11391TIP3   OH255663   1.166   0.416  14.811  0.2194 -0.2345  0.2820
11391TIP3    H155664   1.226   0.343  14.826  0.6126 -0.4025 -1.8872
11391TIP3    H255665   1.105   0.412  14.886  2.4654 -0.4322  2.2218
11392TIP3   OH255666   6.657   3.779  13.383  0.0421 -0.7171  0.0520
11392TIP3    H155667   6.730   3.830  13.418 -1.0664  2.8025 -2.2588
11392TIP3    H255668   6.582   3.803  13.438 -0.8980  1.9506 -2.1393
11393TIP3   OH255669   0.702   3.749   2.149 -0.0523 -0.1727 -0.2001
11393TIP3    H155670   0.744   3.690   2.086  1.0430 -0.3648  0.6692
11393TIP3    H255671   0.776   3.788   2.197 -0.8589 -0.0582  0.9800
11394TIP3   OH255672   5.476   3.912  16.047 -0.3740 -0.1861 -0.7946
11394TIP3    H155673   5.540   3.852  16.009 -0.5718 -0.1320 -1.2194
11394TIP3    H255674   5.525   3.963  16.111 -0.5012 -1.7795  0.6393
11395TIP3   OH255675   0.944   5.273   3.836 -0.1383  0.0843 -0.3048
11395TIP3    H155676   0.903   5.207   3.892 -0.1673 -0.2893 -0.7603
11395TIP3    H255677   0.893   5.271   3.755 -1.2578  1.8969  0.2859
11396TIP3   OH255678   3.633   2.939  13.182  0.0575 -0.5591 -0.3849
11396TIP3    H155679   3.565   2.907  13.123 -0.8331  0.9654 -0.2544
11396TIP3    H255680   3.712   2.892  13.157 -0.9483 -2.0743 -0.8282
11397TIP3   OH255681   5.796   2.465  11.606 -0.2413 -0.0869  0.3702
11397TIP3    H155682   5.702   2.462  11.589  0.0550  1.1729 -1.8602
11397TIP3    H255683   5.808   2.539  11.666 -0.5893  0.3146 -0.0536
11398TIP3   OH255684   4.106   2.254  15.308 -0.0736  0.2120  0.6045
11398TIP3    H155685   4.056   2.190  15.256  0.0722 -1.2910  2.2411
11398TIP3    H255686   4.138   2.204  15.383  2.4297  1.5624  0.5196
11399TIP3   OH255687   6.001   3.178   1.804  0.2040  0.4701  0.0831
11399TIP3    H155688   6.034   3.221   1.725  1.0161  1.0733  0.7376
11399TIP3    H255689   6.010   3.243   1.873  2.0970 -0.9299  1.2483
11400TIP3   OH255690   6.670   3.659  16.296  0.1973  0.4709  0.0578
11400TIP3    H155691   6.584   3.686  16.328  0.1288  1.0866 -0.6229
11400TIP3    H255692   6.657   3.569  16.267 -0.2448  0.5932 -0.1394
11401TIP3   OH255693   0.803   5.743   5.350  0.1787 -0.5801  0.0703
11401TIP3    H155694   0.871   5.676   5.348  1.3969  0.6269 -0.4872
11401TIP3    H255695   0.791   5.763   5.443 -0.1851 -1.5496  0.2363
11402TIP3   OH255696   2.791   6.378  12.751 -0.7172 -1.0146  0.0671
11402TIP3    H155697   2.739   6.314  12.799 -0.9414 -1.3535 -0.6126
11402TIP3    H255698   2.848   6.417  12.817 -0.3931 -2.0969  0.4422
11403TIP3   OH255699   6.183   0.771  16.030 -0.3142  0.1811  0.0784
11403TIP3    H155700   6.096   0.735  16.014  0.4659 -1.7163 -0.1343
11403TIP3    H255701   6.227   0.763  15.945  0.7766 -1.0037  0.7334
11404TIP3   OH255702   0.018   6.600   3.280  0.0722  0.4244 -0.0753
11404TIP3    H155703   0.090   6.561   3.232  1.2318  2.6402 -0.2866
11404TIP3    H255704   0.033   6.574   3.371  0.9786  0.6133 -0.1633
11405TIP3   OH255705   5.063   6.389  15.413 -0.2266 -0.0895 -0.2242
11405TIP3    H155706   5.108   6.320  15.462  0.4114 -0.8482 -1.7967
11405TIP3    H255707   5.131   6.454  15.395 -0.5372  0.3520  0.1646
11406TIP3   OH255708   4.510   0.627  13.394  0.1684 -0.2137  0.0179
11406TIP3    H155709   4.527   0.719  13.416  0.7754 -0.3615  0.1817
11406TIP3    H255710   4.490   0.585  13.477  3.5336 -1.0062  0.5497
11407TIP3   OH255711   2.386   0.160  12.497 -0.1820  0.1890  0.1634
11407TIP3    H155712   2.470   0.205  12.510 -0.6358  0.2944  3.2927
11407TIP3    H255713   2.320   0.225  12.519 -1.0480 -0.4510 -0.4915
11408TIP3   OH255714   3.933   3.193  15.451 -0.2984 -0.2858 -0.6760
11408TIP3    H155715   3.966   3.104  15.439  0.5089 -0.0196 -0.4883
11408TIP3    H255716   3.947   3.211  15.544 -2.9110 -0.9136 -0.0763
11409TIP3   OH255717   3.716   6.308   0.186 -0.2532 -0.2158  0.3354
11409TIP3    H155718   3.642   6.275   0.135  0.0734  0.7760 -0.8200
11409TIP3    H255719   3.792   6.294   0.130 -0.0435  2.0434 -0.0198
11410TIP3   OH255720   0.769   2.199   5.486 -0.2402  0.4133 -0.2706
11410TIP3    H155721   0.770   2.228   5.577  0.9888  1.3148 -0.5435
11410TIP3    H255722   0.795   2.276   5.436  0.2263 -0.3736 -1.2830
11411TIP3   OH255723   1.492   1.022   1.911  0.0280 -0.0955  0.0475
11411TIP3    H155724   1.454   1.011   1.998  1.7136  1.8531  1.1144
11411TIP3    H255725   1.518   0.934   1.885 -1.9109 -0.9494  0.7801
11412TIP3   OH255726   4.875   3.122   4.847 -0.5300 -0.3678  0.9796
11412TIP3    H155727   4.933   3.079   4.910 -0.1479  0.2622  1.0700
11412TIP3    H255728   4.907   3.213   4.844 -1.1335 -0.1654  0.5789
11413TIP3   OH255729   3.718   5.740  15.665 -0.0370 -0.2051  0.5260
11413TIP3    H155730   3.684   5.828  15.648 -0.8221 -0.3002  1.5266
11413TIP3    H255731   3.722   5.734  15.760  2.0957 -0.4885  0.4505
11414TIP3   OH255732   3.859   6.115  16.634  0.0286  0.2484  0.1020
11414TIP3    H155733   3.870   6.091  16.726  1.7315 -0.2243 -0.1911
11414TIP3    H255734   3.874   6.033  16.586 -1.4503  0.3500 -0.5937
11415TIP3   OH255735   6.650   5.767  13.051  0.3433  0.1143  0.1036
11415TIP3    H155736   6.572   5.822  13.040  0.5380  0.9112  2.2083
11415TIP3    H255737   6.617   5.689  13.095  0.1448 -1.3978 -2.4971
11416TIP3   OH255738   3.720   2.483  14.574 -0.3549  0.3556  0.2668
11416TIP3    H155739   3.625   2.474  14.567 -0.1903 -1.8996  0.3631
11416TIP3    H255740   3.754   2.431  14.502  0.8433  2.1877 -0.5746
11417TIP3   OH255741   1.429   5.631   2.825 -0.4652  0.1797 -0.6027
11417TIP3    H155742   1.343   5.634   2.867 -0.2021  1.2240 -0.1213
11417TIP3    H255743   1.485   5.685   2.880 -0.1527  1.7337 -2.3393
11418TIP3   OH255744   1.659   6.470   6.283  0.3511 -0.1664 -0.0500
11418TIP3    H155745   1.671   6.565   6.285  1.5277 -0.3017  0.0072
11418TIP3    H255746   1.680   6.441   6.371 -0.6341 -0.4231  0.1117
11419TIP3   OH255747   2.239   3.776   0.160  0.1503 -0.0623  0.2242
11419TIP3    H155748   2.226   3.747   0.069 -0.0225  1.6380 -0.3231
11419TIP3    H255749   2.334   3.781   0.170  0.1645  0.0078  0.0536
11420TIP3   OH255750   2.641   0.861   5.892 -0.6079  0.0107  0.4447
11420TIP3    H155751   2.667   0.775   5.923 -0.0721  0.1101  0.2839
11420TIP3    H255752   2.560   0.846   5.843 -0.9754 -0.2714  1.1319
11421TIP3   OH255753   3.999   1.111   5.353 -0.0965 -0.1562 -0.0012
11421TIP3    H155754   4.095   1.107   5.352 -0.1447 -1.9068  0.2338
11421TIP3    H255755   3.971   1.043   5.292 -1.2086  0.6671 -0.4498
11422TIP3   OH255756   4.559   5.193  17.051  0.4143 -0.6262  0.0353
11422TIP3    H155757   4.609   5.271  17.028  0.4698 -0.8281 -0.5389
11422TIP3    H255758   4.552   5.197  17.147 -3.6227  2.6100 -0.1126
11423TIP3   OH255759   1.403   6.595   1.715 -0.4419 -0.3554 -0.8996
11423TIP3    H155760   1.433   6.507   1.691  1.0961 -0.5010  1.2268
11423TIP3    H255761   1.310   6.584   1.737 -0.6809 -1.0957 -2.2133
11424TIP3   OH255762   0.681   1.026   4.460  0.4617  0.0988  0.6444
11424TIP3    H155763   0.627   1.045   4.383  0.0587  0.1849  0.9476
11424TIP3    H255764   0.749   0.966   4.427  1.3068  1.4358 -0.1626
11425TIP3   OH255765   1.176   4.028   4.370  0.4034 -0.2106 -0.0315
11425TIP3    H155766   1.213   4.044   4.457 -0.8660  1.6889  0.2234
11425TIP3    H255767   1.222   4.089   4.313 -0.8312  0.6909 -0.0957
11426TIP3   OH255768   3.693   0.187   3.894 -0.0546  0.0097 -0.5929
11426TIP3    H155769   3.777   0.187   3.939  0.2436  2.7846 -0.9591
11426TIP3    H255770   3.636   0.239   3.951 -0.6757  0.5696 -1.6972
11427TIP3   OH255771   2.261   1.029   0.138 -0.2454  0.3046  0.1213
11427TIP3    H155772   2.210   0.957   0.174 -0.2517  0.3042  0.1114
11427TIP3    H255773   2.225   1.043   0.051 -2.1757  2.2063  1.1262
11428TIP3   OH255774   0.852   3.404  16.173  0.2645  0.1755  0.6449
11428TIP3    H155775   0.762   3.408  16.206  0.0426  1.1363 -0.0344
11428TIP3    H255776   0.895   3.338  16.229 -1.1017 -1.0012  0.3692
11429TIP3   OH255777   0.586   1.172  11.125 -0.4964  0.2557  0.1960
11429TIP3    H155778   0.661   1.195  11.181 -0.9050 -1.7981  1.6971
11429TIP3    H255779   0.564   1.083  11.151 -4.5968  1.3634  1.1130
11430TIP3   OH255780   1.302   0.542  13.930 -0.0468 -0.0261 -0.5419
11430TIP3    H155781   1.239   0.614  13.930  1.0328  0.9821  0.6615
11430TIP3    H255782   1.331   0.535  13.839 -1.3671 -0.0458 -0.9765
11431TIP3   OH255783   4.202   5.963  11.583  0.2046 -0.2448  0.3436
11431TIP3    H155784   4.141   5.967  11.656  0.6587 -2.5763  0.9375
11431TIP3    H255785   4.272   6.025  11.606 -0.3388  0.0617  1.1942
11432TIP3   OH255786   1.477   6.313   4.187 -0.3994  0.7645  0.0351
11432TIP3    H155787   1.452   6.293   4.096  0.2306 -0.7427  0.1499
11432TIP3    H255788   1.520   6.232   4.217 -2.9959  0.1975  2.5820
11433TIP3   OH255789   4.137   6.599  13.019 -0.0139 -0.0183  0.2167
11433TIP3    H155790   4.201   6.661  12.984  1.0399  0.0654  2.1194
11433TIP3    H255791   4.062   6.653  13.043  0.4859  0.3877  0.9032
11434TIP3   OH255792   3.451   4.754   4.987 -0.0015  0.3339 -0.0344
11434TIP3    H155793   3.385   4.748   5.055 -0.8402 -0.8473 -0.9071
11434TIP3    H255794   3.478   4.846   4.987 -0.6905  0.5547  1.2058
11435TIP3   OH255795   4.122   4.761   1.813  0.4943 -0.4737 -0.5708
11435TIP3    H155796   4.107   4.745   1.720 -3.1846 -1.2269  0.0172
11435TIP3    H255797   4.078   4.844   1.830  1.1564 -0.3282  0.5156
11436TIP3   OH255798   2.982   4.954  14.338 -0.0184 -0.0615  0.2543
11436TIP3    H155799   2.941   4.927  14.420  0.3857  0.8364  0.7656
11436TIP3    H255800   3.070   4.916  14.342  0.2046  0.4744  0.5140
11437TIP3   OH255801   5.961   6.307  11.345 -0.5181 -0.1735 -0.2261
11437TIP3    H155802   6.047   6.301  11.302 -1.1004 -3.3111 -1.2066
11437TIP3    H255803   5.960   6.395  11.383  4.0812 -0.6730  1.8239
11438TIP3   OH255804   1.899   2.242  15.108 -0.2135  0.0767  0.9537
11438TIP3    H155805   1.990   2.226  15.083 -0.4264 -0.8258  0.7307
11438TIP3    H255806   1.883   2.333  15.083 -0.4377 -0.7616 -2.3423
11439TIP3   OH255807   2.259   6.716  12.420  0.0808 -0.2621 -0.1924
11439TIP3    H155808   2.303   6.798  12.444  0.1016 -0.4177  0.3157
11439TIP3    H255809   2.178   6.744  12.377 -2.0219  0.1742  3.5446
11440TIP3   OH255810   5.525   4.765  15.342 -0.3882  0.6682 -0.3893
11440TIP3    H155811   5.541   4.774  15.248 -0.0355  0.6354 -0.3331
11440TIP3    H255812   5.452   4.703  15.348 -0.4060  0.6654 -0.6421
11441TIP3   OH255813   3.491   3.330  12.692 -0.2492 -0.7775 -0.5754
11441TIP3    H155814   3.564   3.343  12.631  0.1830  1.4947  0.3058
11441TIP3    H255815   3.509   3.391  12.764 -1.7343 -1.9973  0.9021
11442TIP3   OH255816   2.960   0.743  12.304 -0.5874 -0.0488 -0.2001
11442TIP3    H155817   2.906   0.692  12.243  0.0378 -1.0683  0.0753
11442TIP3    H255818   3.012   0.800  12.248  0.8340 -1.7873 -0.7550
11443TIP3   OH255819   5.319   6.087  13.275 -0.1919 -0.6667 -0.4359
11443TIP3    H155820   5.392   6.144  13.302  0.3382 -0.7845 -1.5798
11443TIP3    H255821   5.301   6.112  13.185 -2.9152  0.7401  0.4062
11444TIP3   OH255822   3.699   5.909   6.067  0.2034 -0.1351  0.1776
11444TIP3    H155823   3.783   5.864   6.056  0.9589  1.5563 -1.6214
11444TIP3    H255824   3.654   5.896   5.984 -0.3972  0.7581  0.3531
11445TIP3   OH255825   1.546   2.750  16.375 -0.9180 -0.0097 -0.7238
11445TIP3    H155826   1.573   2.814  16.309  0.7793 -0.2539 -0.3003
11445TIP3    H255827   1.628   2.711  16.406 -1.8498 -1.6839 -0.2502
11446TIP3   OH255828   4.798   4.674   4.053 -0.2379 -0.1703 -0.0297
11446TIP3    H155829   4.861   4.681   4.125 -0.9335  0.8880  0.5071
11446TIP3    H255830   4.849   4.696   3.975  0.6567 -1.8698  0.0418
11447TIP3   OH255831   4.722   5.019  16.919 -0.4087 -0.0382 -0.4076
11447TIP3    H155832   4.688   4.970  16.844 -0.0549  0.3492 -0.8296
11447TIP3    H255833   4.658   5.089  16.933 -2.7512 -2.4980  2.3360
11448TIP3   OH255834   4.257   5.675   5.302 -0.1311  0.2924 -0.0836
11448TIP3    H155835   4.195   5.605   5.323 -2.2622  1.9121 -0.5310
11448TIP3    H255836   4.274   5.665   5.209 -0.2934  0.2500 -0.1089
11449TIP3   OH255837   3.250   3.576  11.158  1.1065 -0.3799 -0.5698
11449TIP3    H155838   3.187   3.511  11.126 -0.4942 -0.1545  1.8095
11449TIP3    H255839   3.202   3.659  11.154  0.6429 -0.3948  2.5195
11450TIP3   OH255840   1.489   6.147   6.673  0.6706 -0.3734 -0.0329
11450TIP3    H155841   1.431   6.214   6.709 -0.5513 -1.1599 -0.4822
11450TIP3    H255842   1.435   6.068   6.669  1.9604 -1.2830  0.0948
11451TIP3   OH255843   5.309   4.141   4.286  0.3397 -0.2927  0.0977
11451TIP3    H155844   5.362   4.171   4.360  2.0407  0.0421 -1.1784
11451TIP3    H255845   5.368   4.147   4.210 -1.0891 -1.3427 -1.1700
11452TIP3   OH255846   4.259   5.460   6.513  0.6195  0.3326  0.4633
11452TIP3    H155847   4.310   5.458   6.594  2.5392  0.8500 -0.6668
11452TIP3    H255848   4.307   5.402   6.453  0.1371  1.1819 -0.7874
11453TIP3   OH255849   5.751   3.835   1.619  0.6563 -0.6711 -0.3170
11453TIP3    H155850   5.759   3.869   1.529 -0.9742  2.8571  0.6813
11453TIP3    H255851   5.657   3.829   1.634  0.8833 -0.4749  1.3831
11454TIP3   OH255852   3.857   4.524  17.107  0.0088  0.1930  0.4090
11454TIP3    H155853   3.832   4.449  17.052 -1.6152 -0.6922  2.2093
11454TIP3    H255854   3.931   4.493  17.158  1.1162  0.8017 -0.7895
11455TIP3   OH255855   0.794   4.795  14.388 -0.1366 -0.1172  0.3418
11455TIP3    H155856   0.822   4.842  14.309  0.2750 -1.1805 -0.1676
11455TIP3    H255857   0.760   4.712  14.355 -0.4026 -0.3760  1.2527
11456TIP3   OH255858   0.979   0.511  16.372 -0.5262 -0.0762  0.5336
11456TIP3    H155859   1.044   0.444  16.389 -0.6440 -0.1011  0.8936
11456TIP3    H255860   1.029   0.592  16.361 -0.4395 -0.0799  0.8913
11457TIP3   OH255861   5.468   1.193   1.109  0.0970 -0.1633  0.0393
11457TIP3    H155862   5.448   1.132   1.181 -1.0374  0.5472  0.3545
11457TIP3    H255863   5.543   1.244   1.141  0.2350 -0.5240  0.3041
11458TIP3   OH255864   0.177   5.462  16.579  0.0613 -0.1127  0.5846
11458TIP3    H155865   0.200   5.551  16.554  1.0286 -0.8258 -1.1774
11458TIP3    H255866   0.121   5.430  16.508  0.3977 -1.1829  0.7735
11459TIP3   OH255867   0.062   2.855  13.363  0.7516 -0.0549 -0.6033
11459TIP3    H155868  -0.001   2.911  13.318  0.9627  0.1099 -0.6939
11459TIP3    H255869   0.136   2.912  13.382  1.0084 -0.3257 -0.7820
11460TIP3   OH255870   5.886   3.504   5.296 -0.5632 -0.0959 -0.1104
11460TIP3    H155871   5.885   3.416   5.333 -1.4694 -0.2684 -0.5345
11460TIP3    H255872   5.845   3.558   5.363  0.2115  0.0556  0.2531
11461TIP3   OH255873   5.390   4.861   0.835 -0.0397 -0.2133  0.4400
11461TIP3    H155874   5.454   4.827   0.773 -1.7460 -1.8950 -0.4885
11461TIP3    H255875   5.442   4.916   0.895  1.9763 -0.2045 -1.1947
11462TIP3   OH255876   5.198   0.569  14.072 -0.2477  0.2664  0.3114
11462TIP3    H155877   5.138   0.535  14.138  2.1664 -0.8910  2.0778
11462TIP3    H255878   5.222   0.656  14.104 -1.1729  0.8725 -0.5734
11463TIP3   OH255879   2.407   5.661  14.617 -0.2075  0.2343 -0.0789
11463TIP3    H155880   2.324   5.675  14.662 -1.1225 -0.4753 -1.4631
11463TIP3    H255881   2.382   5.630  14.530  1.4852  1.2830 -1.0008
11464TIP3   OH255882   6.821   5.066   6.788 -0.1240 -0.2274 -0.0228
11464TIP3    H155883   6.881   5.015   6.734  1.8345  0.2572  1.5685
11464TIP3    H255884   6.800   5.009   6.862 -1.4678 -0.2909 -0.4164
11465TIP3   OH255885   2.047   4.626  15.743 -1.0872  0.4241 -0.1182
11465TIP3    H155886   2.083   4.620  15.655 -1.6905  1.7884 -0.4929
11465TIP3    H255887   2.119   4.601  15.801 -0.8875 -1.1877 -0.9914
11466TIP3   OH255888   3.855   4.136   5.946  0.2544 -0.2725 -0.0085
11466TIP3    H155889   3.947   4.154   5.927  0.4315  0.3567  1.3594
11466TIP3    H255890   3.829   4.206   6.005 -0.6242 -1.4042  0.9840
11467TIP3   OH255891   1.616   4.933   0.628  0.3864  0.0865 -0.1023
11467TIP3    H155892   1.683   4.927   0.696  0.0773  1.5979  0.3796
11467TIP3    H255893   1.647   4.875   0.559  2.5522  1.1895 -0.1606
11468TIP3   OH255894   4.090   2.777  16.915  0.0864 -0.4267 -0.1336
11468TIP3    H155895   4.038   2.795  16.837 -0.4216  1.9410  0.6532
11468TIP3    H255896   4.030   2.732  16.974  0.5768 -2.5563 -1.1614
11469TIP3   OH255897   2.771   4.547   1.031 -0.1732  0.1585  0.5533
11469TIP3    H155898   2.733   4.625   0.990  2.5919  1.1579 -0.2815
11469TIP3    H255899   2.775   4.569   1.125 -0.7120  0.4066  0.5257
11470TIP3   OH255900   2.398   2.834  16.687  0.0011 -0.3078  0.3212
11470TIP3    H155901   2.383   2.875  16.602  0.4248 -1.4141 -0.3104
11470TIP3    H255902   2.310   2.824  16.725 -0.0607  2.0133  0.9359
11471TIP3   OH255903   6.767   6.215   1.657 -0.0421 -0.6158  0.2992
11471TIP3    H155904   6.860   6.196   1.650 -0.2256 -1.3636 -0.2581
11471TIP3    H255905   6.763   6.304   1.690  0.8899  0.0537 -1.2560
11472TIP3   OH255906   5.577   3.562   5.995  0.0440 -0.6176  0.1714
11472TIP3    H155907   5.573   3.656   6.012 -0.2533 -0.7940  1.1438
11472TIP3    H255908   5.665   3.536   6.023 -0.2790 -0.8219  1.0510
11473TIP3   OH255909   2.572   1.108  11.911 -0.0261 -0.1331  0.0468
11473TIP3    H155910   2.544   1.022  11.878 -0.7123 -0.2148  0.7952
11473TIP3    H255911   2.558   1.102  12.006 -0.6870  1.0177  0.0295
11474TIP3   OH255912   3.935   2.290   4.476  0.3723  0.3030 -0.3079
11474TIP3    H155913   3.899   2.322   4.393 -1.5974 -0.3335  0.2575
11474TIP3    H255914   3.859   2.280   4.533  1.5748 -0.2321  1.2620
11475TIP3   OH255915   3.935   5.526   1.614 -0.0042  0.0413 -0.3361
11475TIP3    H155916   3.977   5.441   1.623  0.7195  0.1361 -2.3109
11475TIP3    H255917   3.986   5.585   1.669 -1.1289 -0.9325  1.8832
11476TIP3   OH255918   2.759   5.670   5.643  0.3389 -0.7608  0.4332
11476TIP3    H155919   2.665   5.669   5.659  0.2422  0.4380  0.0148
11476TIP3    H255920   2.795   5.611   5.709 -0.9613 -3.7898 -1.3386
11477TIP3   OH255921   5.887   0.230  11.378  0.0432 -0.1429  0.0268
11477TIP3    H155922   5.977   0.232  11.411  0.5934 -0.1523 -1.4084
11477TIP3    H255923   5.836   0.277  11.444  1.2915  0.8922  0.2791
11478TIP3   OH255924   3.726   6.770   1.380 -0.2861  0.3103 -0.2443
11478TIP3    H155925   3.631   6.761   1.377 -0.3268  0.9238 -1.4087
11478TIP3    H255926   3.756   6.729   1.298  0.3246  1.3670 -0.5717
11479TIP3   OH255927   1.395   3.427  15.980  0.2525 -0.5651  0.1668
11479TIP3    H155928   1.480   3.406  16.021 -0.2241  0.4493  1.7774
11479TIP3    H255929   1.345   3.468  16.050 -1.9282 -1.9527 -0.4976
11480TIP3   OH255930   5.611   2.658   3.709 -0.4184 -0.8472 -0.4958
11480TIP3    H155931   5.656   2.595   3.766  0.2756 -0.9800 -1.1805
11480TIP3    H255932   5.675   2.728   3.696 -0.9475 -0.3177 -0.2840
11481TIP3   OH255933   6.055   1.859   2.735 -0.1114  0.0275  0.7263
11481TIP3    H155934   6.022   1.849   2.824 -0.2247  1.0229  0.8023
11481TIP3    H255935   6.150   1.860   2.744 -0.0497 -1.6219  0.6338
11482TIP3   OH255936   1.577   6.076   4.319 -0.1014  0.5110  0.4472
11482TIP3    H155937   1.589   6.001   4.377  1.2685 -0.9757 -1.5791
11482TIP3    H255938   1.664   6.116   4.315  0.5758 -0.9380 -2.3575
11483TIP3   OH255939   2.693   0.365   4.886  0.2512  0.4441 -0.1208
11483TIP3    H155940   2.770   0.345   4.832  1.1001  2.2872  0.3165
11483TIP3    H255941   2.654   0.442   4.845 -1.5366 -0.5894 -0.4563
11484TIP3   OH255942   1.093   6.247   2.116  0.1414 -0.2218 -0.0309
11484TIP3    H155943   1.148   6.177   2.153  0.1528 -1.3206 -1.9537
11484TIP3    H255944   1.146   6.282   2.044 -1.1429 -0.4013 -1.0861
11485TIP3   OH255945   0.827   3.472   2.405  0.5810 -0.0202  0.3375
11485TIP3    H155946   0.752   3.419   2.378 -0.3220  1.3790 -0.0264
11485TIP3    H255947   0.873   3.418   2.469 -2.0536 -0.0636  2.3558
11486TIP3   OH255948   4.909   0.270  13.933 -0.0204 -0.0552  0.4073
11486TIP3    H155949   4.818   0.278  13.959  0.0403 -0.1685  0.6636
11486TIP3    H255950   4.938   0.188  13.973  0.3494  0.2594  0.7912
11487TIP3   OH255951   5.501   6.739   5.812 -0.5568 -0.6953 -0.5792
11487TIP3    H155952   5.462   6.776   5.733 -3.5728 -2.4661 -0.0707
11487TIP3    H255953   5.437   6.756   5.881  1.0325 -1.0226  1.0853
11488TIP3   OH255954   6.539   2.474  14.824  0.0748 -0.3384 -0.7785
11488TIP3    H155955   6.624   2.436  14.845 -0.2600 -0.2801  0.8337
11488TIP3    H255956   6.559   2.551  14.772  0.8904 -1.3302 -1.9870
11489TIP3   OH255957   6.320   4.500   2.872 -0.0339 -0.9069  0.5092
11489TIP3    H155958   6.246   4.447   2.841 -0.4347  0.0368 -0.1834
11489TIP3    H255959   6.331   4.568   2.805 -1.4110  1.6766  2.7586
11490TIP3   OH255960   2.849   2.433  14.607 -0.8027 -0.4628 -0.1802
11490TIP3    H155961   2.765   2.466  14.576 -1.0359 -0.3676  0.5154
11490TIP3    H255962   2.866   2.355  14.554 -1.5995 -0.7931  0.0267
11491TIP3   OH255963   1.112   0.705   3.490  0.3828  0.1661  0.3591
11491TIP3    H155964   1.167   0.641   3.445  0.9646  1.7570 -1.3308
11491TIP3    H255965   1.034   0.656   3.516  0.5746 -1.1189 -1.3170
11492TIP3   OH255966   2.620   2.928  12.699 -0.6319  0.2438 -0.1224
11492TIP3    H155967   2.559   2.874  12.648 -1.6157 -0.3798  1.6424
11492TIP3    H255968   2.707   2.900  12.670 -1.1538 -0.7415 -0.7858
11493TIP3   OH255969   4.559   6.311  14.565 -0.3792  0.0213  0.4190
11493TIP3    H155970   4.498   6.242  14.590 -0.9040  0.7211  1.0825
11493TIP3    H255971   4.533   6.334  14.476 -0.3000 -0.5156  0.2483
11494TIP3   OH255972   4.513   4.217   0.304  0.3297 -0.2211 -0.3693
11494TIP3    H155973   4.597   4.233   0.260  1.3461 -2.2695  0.6922
11494TIP3    H255974   4.461   4.296   0.285  1.9397  0.4851 -2.2711
11495TIP3   OH255975   0.534   4.731  15.375  0.0927  0.1347  0.5617
11495TIP3    H155976   0.529   4.806  15.434 -1.1831 -0.6135  1.4460
11495TIP3    H255977   0.504   4.657  15.427 -1.9184 -0.4241 -1.2198
11496TIP3   OH255978   5.994   0.356  14.323 -0.1138 -0.1357 -0.2723
11496TIP3    H155979   5.933   0.355  14.249 -0.0435 -0.6820 -0.3268
11496TIP3    H255980   5.984   0.270  14.364  0.0472  0.0610  0.1931
11497TIP3   OH255981   5.664   4.780  10.432  0.9071  0.4261  0.4195
11497TIP3    H155982   5.683   4.753  10.521 -0.3764 -2.5862 -0.0842
11497TIP3    H255983   5.569   4.791  10.430  0.7596 -0.7463 -0.7987
11498TIP3   OH255984   1.657   4.716   0.458  0.6494 -0.1173 -0.0646
11498TIP3    H155985   1.620   4.630   0.438 -0.3178  0.4427 -0.7442
11498TIP3    H255986   1.744   4.714   0.417  0.2945 -0.4697 -0.8393
11499TIP3   OH255987   6.814   4.442  13.417 -0.1822 -0.2955  0.0742
11499TIP3    H155988   6.741   4.444  13.355  0.6685  1.9957 -0.9421
11499TIP3    H255989   6.817   4.531  13.453  2.8045  0.0535 -0.8145
11500TIP3   OH255990   6.290   2.293   4.222 -0.2156 -0.6618  0.3845
11500TIP3    H155991   6.314   2.222   4.163  0.1469  0.6576 -1.0912
11500TIP3    H255992   6.258   2.363   4.165 -1.1593  0.1463  1.8447
11501TIP3   OH255993   5.800   0.733  13.878 -0.0405 -0.1921 -0.2312
11501TIP3    H155994   5.843   0.771  13.955 -1.2821  0.2036  0.2884
11501TIP3    H255995   5.852   0.655  13.858 -0.1308 -0.7148  1.4562
11502TIP3   OH255996   3.591   0.135  13.592 -0.1287 -0.2690 -0.4832
11502TIP3    H155997   3.615   0.214  13.641  0.2639 -0.5088 -0.2836
11502TIP3    H255998   3.594   0.162  13.500 -1.8108  0.4474 -0.3602
11503TIP3   OH255999   4.847   1.834   5.834  0.2516 -0.1885 -0.0747
11503TIP3    H156000   4.847   1.820   5.929  0.6888 -0.5381 -0.1234
11503TIP3    H256001   4.759   1.808   5.806  0.4355 -1.0441  0.1034
11504TIP3   OH256002   2.808   1.175   2.385 -0.3934  0.3186 -0.2132
11504TIP3    H156003   2.880   1.230   2.354  0.1271 -0.6878 -0.8528
11504TIP3    H256004   2.851   1.096   2.417 -1.0181  0.8291  2.0197
11505TIP3   OH256005   3.199   3.586  15.465 -0.0961 -0.0297 -0.0007
11505TIP3    H156006   3.212   3.623  15.552  0.3285  0.9447 -0.4701
11505TIP3    H256007   3.181   3.493  15.481  0.1357  0.1071  1.1083
11506TIP3   OH256008   5.609   0.658   2.223  0.2461 -0.4501 -0.3011
11506TIP3    H156009   5.616   0.721   2.152 -0.1167 -1.0624 -0.9002
11506TIP3    H256010   5.682   0.678   2.282  0.8957 -0.3098 -1.1468
11507TIP3   OH256011   0.594   0.153  11.359  0.3232 -0.3108 -0.0612
11507TIP3    H156012   0.609   0.086  11.427  0.2530  0.6440  0.9199
11507TIP3    H256013   0.596   0.104  11.277  0.0523 -1.5611  0.6458
11508TIP3   OH256014   4.425   4.266   6.011  0.7597  0.2029 -0.5313
11508TIP3    H156015   4.402   4.315   6.090  1.0343  1.6212 -1.2880
11508TIP3    H256016   4.406   4.327   5.939  0.8278 -0.9290 -1.5408
11509TIP3   OH256017   2.699   4.338  17.130  0.5343 -0.0349 -0.4857
11509TIP3    H156018   2.734   4.388  17.057 -0.3068 -1.1869 -1.7296
11509TIP3    H256019   2.741   4.253  17.123 -0.6711 -0.6469 -0.5658
11510TIP3   OH256020   3.309   5.043  12.707 -0.3452 -0.0534 -0.2811
11510TIP3    H156021   3.243   4.975  12.719 -1.7060  1.2165 -0.3103
11510TIP3    H256022   3.391   4.995  12.696 -1.0586 -1.6440  0.9222
11511TIP3   OH256023   5.048   0.983  16.295  0.4174 -0.4190  0.9394
11511TIP3    H156024   5.058   1.004  16.202 -2.9044  0.7837  0.7468
11511TIP3    H256025   5.134   1.003  16.333  1.9557 -1.1876 -1.8493
11512TIP3   OH256026   4.016   1.891  11.497  0.1585 -0.1048 -0.1217
11512TIP3    H156027   3.926   1.860  11.505  0.7732 -1.5323  2.1444
11512TIP3    H256028   4.012   1.960  11.430 -2.5738 -0.1808 -0.1411
11513TIP3   OH256029   1.781   0.905   1.830 -0.0993 -0.0757  0.4327
11513TIP3    H156030   1.745   0.831   1.877  0.7627  0.3533  1.8249
11513TIP3    H256031   1.853   0.868   1.779  0.6220 -0.1506  1.4740
11514TIP3   OH256032   4.166   2.796  13.969 -0.1415 -0.2923  0.1881
11514TIP3    H156033   4.229   2.760  13.907 -0.2225 -0.3985  0.1678
11514TIP3    H256034   4.196   2.886  13.984  0.5999 -0.6416  0.9413
11515TIP3   OH256035   1.721   4.768  10.874  0.0846  0.0070 -0.0931
11515TIP3    H156036   1.698   4.680  10.843  1.3009 -0.6344  0.7711
11515TIP3    H256037   1.805   4.787  10.832  1.8292 -0.9191  2.6868
11516TIP3   OH256038   6.112   2.096  11.676  0.2806  0.0898 -0.8936
11516TIP3    H156039   6.100   2.099  11.581  0.7909 -1.2404 -1.0223
11516TIP3    H256040   6.184   2.157  11.692 -0.9975  1.7198 -1.1121
11517TIP3   OH256041   0.447   3.326  11.983  0.4550 -0.1302  0.2648
11517TIP3    H156042   0.419   3.267  11.913 -0.9656  1.4326 -0.5568
11517TIP3    H256043   0.529   3.365  11.951  0.2753 -0.0835 -0.1401
11518TIP3   OH256044   4.517   0.995  15.174 -0.2945  0.0158 -0.5653
11518TIP3    H156045   4.492   0.959  15.089  0.5892 -1.4938 -0.2126
11518TIP3    H256046   4.524   0.919  15.231  0.3350  0.8881  0.5565
11519TIP3   OH256047   2.271   0.476  15.704 -0.5023  0.4222 -0.0947
11519TIP3    H156048   2.338   0.501  15.640 -0.4087 -0.8089 -0.5158
11519TIP3    H256049   2.313   0.488  15.789 -0.0715  0.5593 -0.3225
11520TIP3   OH256050   4.848   5.509  11.693  0.2799  0.3188 -0.5043
11520TIP3    H156051   4.941   5.506  11.670  0.4898 -1.6555  0.3333
11520TIP3    H256052   4.837   5.436  11.755 -2.1647 -0.6620 -1.9528
11521TIP3   OH256053   0.806   3.525   1.346 -0.0868 -0.5425  0.3376
11521TIP3    H156054   0.790   3.559   1.435  0.6790 -0.3163  0.3969
11521TIP3    H256055   0.808   3.603   1.291 -1.7819 -0.7610 -0.1007
11522TIP3   OH256056   3.191   4.155   2.273  0.4030  0.2234 -0.1733
11522TIP3    H156057   3.180   4.127   2.182  0.3365  0.2681 -0.1790
11522TIP3    H256058   3.169   4.077   2.324 -1.2766  0.6911 -0.1393
11523TIP3   OH256059   4.237   6.489  17.175 -0.0415  0.0561 -0.5013
11523TIP3    H156060   4.320   6.441  17.166 -0.1858 -0.0808 -1.1603
11523TIP3    H256061   4.255   6.556  17.241  0.1730 -0.8757  0.4067
11524TIP3   OH256062   2.032   5.584  11.299  0.1666  0.2330  0.5642
11524TIP3    H156063   2.016   5.502  11.344 -0.2014 -1.4831 -2.4084
11524TIP3    H256064   2.101   5.627  11.350  0.2035 -1.7827  2.3516
11525TIP3   OH256065   4.099   6.706   4.290 -0.2055  0.0542  0.0892
11525TIP3    H156066   4.103   6.658   4.372 -1.4515 -0.5418 -0.1725
11525TIP3    H256067   4.071   6.641   4.225  1.7275  0.2514 -1.0441
11526TIP3   OH256068   0.104   2.039   5.301  0.5410  0.0384  0.3541
11526TIP3    H156069   0.112   2.035   5.397 -1.0018  0.6982  0.5457
11526TIP3    H256070   0.194   2.033   5.269  1.2640  1.4583  1.9204
11527TIP3   OH256071   4.781   2.161   4.627  0.1638 -0.0911 -0.2733
11527TIP3    H156072   4.761   2.096   4.694  2.0578  0.2114  0.6218
11527TIP3    H256073   4.868   2.138   4.594 -0.8311 -0.4566 -2.9506
11528TIP3   OH256074   0.164   6.158   0.425  0.0672 -0.1870 -0.3393
11528TIP3    H156075   0.189   6.227   0.486 -0.2454  0.8961 -1.3846
11528TIP3    H256076   0.239   6.148   0.367 -1.1114  1.8534 -2.4036
11529TIP3   OH256077   6.300   6.535  14.602  0.0500  0.1013  0.0510
11529TIP3    H156078   6.307   6.521  14.697 -0.0553 -1.9416 -0.1865
11529TIP3    H256079   6.390   6.545  14.573  0.0207  2.0688  0.4897
11530TIP3   OH256080   4.917   4.970  17.116 -0.3500 -0.0338 -0.2498
11530TIP3    H156081   4.854   4.999  17.050 -1.8200 -1.3996  0.4915
11530TIP3    H256082   4.895   4.878  17.131  1.7667 -0.5326  0.1269
11531TIP3   OH256083   0.718   4.675  15.611 -0.2758 -0.2141  0.4869
11531TIP3    H156084   0.675   4.756  15.583 -0.2117  0.2533  1.6815
11531TIP3    H256085   0.735   4.627  15.529 -0.5254  0.8654 -0.2177
11532TIP3   OH256086   0.006   3.691   4.682  0.0427  0.2170 -0.0306
11532TIP3    H156087  -0.072   3.747   4.679  0.3998  0.8415  1.3744
11532TIP3    H256088   0.079   3.752   4.685  0.4151 -0.2499  2.2972
11533TIP3   OH256089   4.364   5.711   0.390  0.1612  0.2139  0.2724
11533TIP3    H156090   4.343   5.789   0.340  0.7224 -0.6538 -1.3864
11533TIP3    H256091   4.427   5.664   0.336 -0.2970 -1.4850  1.1415
11534TIP3   OH256092   5.884   3.413  16.216 -0.2507  0.0162  0.1728
11534TIP3    H156093   5.818   3.346  16.201 -1.4803  1.4933 -1.3507
11534TIP3    H256094   5.932   3.382  16.293 -1.2791 -2.1777  0.0032
11535TIP3   OH256095   2.071   5.533  12.592  0.6310 -0.2288  0.0161
11535TIP3    H156096   2.032   5.603  12.644  0.4783 -1.0919  1.1211
11535TIP3    H256097   2.018   5.456  12.613  0.4612 -0.5660 -1.5848
11536TIP3   OH256098   4.395   2.462  16.231 -0.1754  0.3269  0.5687
11536TIP3    H156099   4.471   2.428  16.184  0.5356  0.2679  1.7209
11536TIP3    H256100   4.362   2.533  16.176  0.3555 -0.0295 -0.2214
11537TIP3   OH256101   2.422   2.587  16.044  0.5549  0.0924 -0.0997
11537TIP3    H156102   2.327   2.577  16.051  0.5583  0.7428  1.2024
11537TIP3    H256103   2.457   2.542  16.122  1.1428  1.7859  0.6668
11538TIP3   OH256104   1.551   1.089   4.968 -0.2600 -0.3338  0.1599
11538TIP3    H156105   1.642   1.111   4.986 -0.6425  1.2271  0.3505
11538TIP3    H256106   1.522   1.155   4.905 -1.2150 -0.9309 -0.0632
11539TIP3   OH256107   2.796   4.121  15.313 -0.2301 -0.0569 -0.2329
11539TIP3    H156108   2.747   4.081  15.240 -2.2626 -0.4517  1.2658
11539TIP3    H256109   2.756   4.207  15.325 -1.1178 -0.6770  1.4999
11540TIP3   OH256110   1.217   3.413  15.654 -0.2469 -0.0547 -0.2553
11540TIP3    H156111   1.187   3.375  15.737 -0.3052 -1.5575 -0.9273
11540TIP3    H256112   1.194   3.505  15.660  1.0337  0.2168  2.0064
11541TIP3   OH256113   0.902   2.738   4.197  0.2051  0.1868 -0.0480
11541TIP3    H156114   0.944   2.707   4.117  1.6657  0.5487  0.5379
11541TIP3    H256115   0.892   2.660   4.251  2.7670  0.4512  0.9369
11542TIP3   OH256116   4.863   0.566   0.347  0.1013 -0.0366  0.1639
11542TIP3    H156117   4.922   0.613   0.288 -0.4103 -0.0197 -0.3389
11542TIP3    H256118   4.885   0.474   0.332 -0.5748 -0.0774 -0.6546
11543TIP3   OH256119   5.200   5.342   3.253  0.3419  0.3800 -0.1166
11543TIP3    H156120   5.266   5.276   3.274 -1.8481 -1.7560  0.4423
11543TIP3    H256121   5.187   5.390   3.334  1.4023  1.0520 -0.3222
11544TIP3   OH256122   2.947   1.691  13.891  0.1701 -0.0683 -0.5416
11544TIP3    H156123   2.851   1.699  13.892 -0.0450 -2.2057 -0.2971
11544TIP3    H256124   2.970   1.701  13.798 -0.4251 -0.7435 -0.7747
11545TIP3   OH256125   0.861   6.294   5.287  0.3216  0.6975  0.3083
11545TIP3    H156126   0.899   6.207   5.271 -0.7327  0.0145  1.4056
11545TIP3    H256127   0.847   6.330   5.199  1.2307 -0.0194 -0.1550
11546TIP3   OH256128   2.133   3.231   1.037  0.4009 -0.1188  0.1696
11546TIP3    H156129   2.133   3.320   1.001 -1.7890  0.1371  0.6559
11546TIP3    H256130   2.105   3.176   0.964 -0.9423 -0.0022  0.5550
11547TIP3   OH256131   6.428   2.737  12.398  0.5491 -0.7169  0.2706
11547TIP3    H156132   6.393   2.691  12.473  0.5610 -0.3647  0.4943
11547TIP3    H256133   6.506   2.782  12.431 -0.1929  0.5298  0.3822
11548TIP3   OH256134   1.325   5.333   3.163  0.1803  0.2917 -0.1744
11548TIP3    H156135   1.403   5.386   3.178 -0.0841  0.6644 -0.0917
11548TIP3    H256136   1.253   5.397   3.161 -0.2155 -0.1196  0.5286
11549TIP3   OH256137   2.298   1.514  17.167 -0.2551 -0.3528  0.3291
11549TIP3    H156138   2.335   1.591  17.210  0.0674 -0.7184  0.7042
11549TIP3    H256139   2.367   1.449  17.169 -0.8384 -0.9647  0.8293
11550TIP3   OH256140   6.678   5.753   3.190 -0.4582 -0.2100 -0.2197
11550TIP3    H156141   6.591   5.752   3.230 -0.2829 -0.3719  0.1671
11550TIP3    H256142   6.675   5.682   3.126 -0.0189 -1.4971  1.1214
11551TIP3   OH256143   1.135   1.754  16.196  0.0028  0.5828 -0.0069
11551TIP3    H156144   1.165   1.836  16.157 -0.3399  1.0018  0.5745
11551TIP3    H256145   1.213   1.716  16.236  0.4071  0.0144 -1.3169
11552TIP3   OH256146   2.087   5.070  14.661 -0.2402  0.4119 -0.0033
11552TIP3    H156147   2.141   5.149  14.664 -0.2387  0.4816 -1.2112
11552TIP3    H256148   2.004   5.097  14.701 -0.4323  1.2064 -0.8892
11553TIP3   OH256149   0.354   6.759  12.492  0.3274 -0.4537  0.5349
11553TIP3    H156150   0.297   6.713  12.553 -0.7989  1.4488  0.9701
11553TIP3    H256151   0.437   6.711  12.497 -0.1282 -1.1168  2.5805
11554TIP3   OH256152   3.207   6.795   5.795  0.7852 -0.7351  0.5303
11554TIP3    H156153   3.177   6.748   5.717  1.0802  0.2332 -0.1862
11554TIP3    H256154   3.127   6.812   5.845  0.7224 -2.3989  1.0565
11555TIP3   OH256155   0.792   0.192   5.617 -0.0265  0.4201  0.3847
11555TIP3    H156156   0.740   0.272   5.611  0.2811  0.7025  1.3783
11555TIP3    H256157   0.781   0.150   5.531 -0.3019  1.4472 -0.0989
11556TIP3   OH256158   0.201   1.251  12.177  0.0791  0.4066  0.2878
11556TIP3    H156159   0.186   1.267  12.084 -1.3879  0.6674  0.5349
11556TIP3    H256160   0.291   1.280  12.192  0.0708  1.1367 -0.8822
11557TIP3   OH256161   0.144   6.016   3.371  0.3189  0.5833  0.3766
11557TIP3    H156162   0.190   6.065   3.439  2.1238  0.6126 -0.7848
11557TIP3    H256163   0.095   5.949   3.417 -0.0282  1.7730  1.8108
11558TIP3   OH256164   2.339   3.393   2.470  0.3127 -0.1866  0.1359
11558TIP3    H156165   2.357   3.384   2.564 -0.1278 -0.7617  0.1716
11558TIP3    H256166   2.283   3.470   2.464 -0.0929 -0.4526  0.4103
11559TIP3   OH256167   4.077   5.737   1.744  0.1300  0.2787  0.3154
11559TIP3    H156168   4.072   5.815   1.689 -0.5610 -0.3888 -0.6166
11559TIP3    H256169   4.166   5.738   1.779  1.3797 -0.3609 -2.5530
11560TIP3   OH256170   5.036   2.226   4.109  0.0991  0.0234 -0.2494
11560TIP3    H156171   5.000   2.193   4.192  0.4469  0.6332  0.1521
11560TIP3    H256172   5.081   2.307   4.133  1.0419 -0.2989 -0.8769
11561TIP3   OH256173   5.491   3.152   0.272  0.0861 -0.0592  0.0144
11561TIP3    H156174   5.489   3.155   0.368 -1.3354 -2.5014  0.1358
11561TIP3    H256175   5.408   3.190   0.246 -0.3053 -0.9925 -0.1400
11562TIP3   OH256176   3.833   4.824   4.423 -0.4258 -0.0084 -0.5088
11562TIP3    H156177   3.928   4.827   4.407 -0.3262 -0.8721 -0.1373
11562TIP3    H256178   3.795   4.840   4.337  0.0718 -0.4750 -0.8276
11563TIP3   OH256179   6.392   1.778  13.247 -0.3078 -0.1136  0.3775
11563TIP3    H156180   6.367   1.707  13.307  0.0672 -0.6251 -0.0644
11563TIP3    H256181   6.487   1.773  13.242 -0.2992  0.2504  0.1336
11564TIP3   OH256182   4.131   6.567  14.452  0.3140  0.4127 -0.0413
11564TIP3    H156183   4.125   6.651  14.407 -0.7463 -0.1198 -0.9444
11564TIP3    H256184   4.179   6.586  14.532 -0.8440  2.1037  0.3051
11565TIP3   OH256185   4.515   1.251   1.894 -0.5131  0.8437  0.0141
11565TIP3    H156186   4.477   1.270   1.808 -0.5951  1.2075  0.1293
11565TIP3    H256187   4.482   1.321   1.951 -0.5326  0.5512  0.3621
11566TIP3   OH256188   1.163   1.514  11.237  0.5073 -0.2744 -0.0455
11566TIP3    H156189   1.132   1.604  11.232  0.5793 -0.3022 -1.1750
11566TIP3    H256190   1.212   1.501  11.156  0.4036 -1.3663  0.0534
11567TIP3   OH256191   1.934   0.005   5.190 -0.3401  0.3545 -0.3887
11567TIP3    H156192   1.883  -0.002   5.271  0.4465 -2.4581 -0.0435
11567TIP3    H256193   2.000   0.072   5.210  0.5732 -1.1031  1.7758
11568TIP3   OH256194   3.210   6.549   5.975  0.2292  0.1999  0.3074
11568TIP3    H156195   3.222   6.626   6.031  0.7426  1.3067 -1.2362
11568TIP3    H256196   3.293   6.541   5.928  1.1289 -2.8110  2.1142
11569TIP3   OH256197   2.346   3.206  14.434 -0.3923 -0.2171 -0.0053
11569TIP3    H156198   2.265   3.236  14.476  0.6873 -0.0705  2.1085
11569TIP3    H256199   2.408   3.196  14.506  1.7622  0.5587 -1.6409
11570TIP3   OH256200   3.472   0.679   0.470  0.3564 -0.7163  0.1550
11570TIP3    H156201   3.483   0.584   0.478 -0.2625 -0.7792  0.2746
11570TIP3    H256202   3.385   0.691   0.432  0.1236 -0.1805  0.8223
11571TIP3   OH256203   0.775   3.142  15.356 -0.4611  0.0967  0.0856
11571TIP3    H156204   0.724   3.095  15.290 -0.6912  1.0830 -0.4538
11571TIP3    H256205   0.831   3.075  15.395  0.1133 -0.4128 -1.5192
11572TIP3   OH256206   1.339   2.476   5.474  0.3274  0.0245 -0.5573
11572TIP3    H156207   1.275   2.420   5.517  0.3987  0.2466 -0.1561
11572TIP3    H256208   1.423   2.454   5.515  0.8690 -1.6154 -2.3637
11573TIP3   OH256209   5.790   0.033  14.685 -0.4551  0.2627  0.4146
11573TIP3    H156210   5.827  -0.050  14.658 -1.4743  0.0469 -0.4022
11573TIP3    H256211   5.725   0.010  14.751  1.8192  0.7619  3.0047
11574TIP3   OH256212   6.715   3.257   3.030  0.8739 -0.2648  1.2074
11574TIP3    H156213   6.635   3.266   2.980 -0.2120 -0.1850  2.8670
11574TIP3    H256214   6.785   3.286   2.971 -0.4251  0.6001  0.0482
11575TIP3   OH256215   3.554   4.550  17.115 -0.0485  0.2669 -0.4709
11575TIP3    H156216   3.537   4.458  17.135  0.0345  0.0894 -1.2054
11575TIP3    H256217   3.647   4.554  17.095  0.1673  0.6982  0.5313
11576TIP3   OH256218   1.761   5.630   0.301 -0.8470 -0.0389  0.1454
11576TIP3    H156219   1.681   5.681   0.314 -2.1974 -1.7283 -1.2320
11576TIP3    H256220   1.738   5.541   0.327  1.0777 -0.2942  1.1973
11577TIP3   OH256221   4.630   1.134   4.409 -0.2866  0.0700  1.0023
11577TIP3    H156222   4.576   1.062   4.373  0.3327  0.1984 -0.2450
11577TIP3    H256223   4.601   1.142   4.500 -1.4954 -0.6976  0.7172
11578TIP3   OH256224   3.322   1.158   1.194 -0.3025 -0.2630 -0.2238
11578TIP3    H156225   3.286   1.246   1.186  1.6683  0.4217 -2.7974
11578TIP3    H256226   3.411   1.170   1.226 -0.3361 -1.4037  0.3645
11579TIP3   OH256227   2.432   5.253  14.832 -0.1409  0.0301  0.4217
11579TIP3    H156228   2.474   5.340  14.832 -0.7469  0.3605 -1.0506
11579TIP3    H256229   2.363   5.260  14.898 -0.5893  0.8935 -0.1179
11580TIP3   OH256230   0.061   6.676  13.282  0.3723  0.0841 -0.1432
11580TIP3    H156231   0.075   6.621  13.359  0.4002 -0.2351 -0.3758
11580TIP3    H256232   0.018   6.755  13.316 -0.7828 -0.6018  0.0287
11581TIP3   OH256233   2.981   1.012  13.727 -0.5030  0.1231 -0.1019
11581TIP3    H156234   2.968   1.039  13.818  0.0505  2.0009 -0.5468
11581TIP3    H256235   2.955   0.919  13.726 -0.6305  0.0907  1.9233
11582TIP3   OH256236   0.072   0.316  17.073 -0.3243  0.2139 -0.0844
11582TIP3    H156237   0.056   0.393  17.019  0.9378  0.2391 -0.4579
11582TIP3    H256238   0.083   0.245  17.010 -0.0810 -0.0015  0.1998
11583TIP3   OH256239   6.311   5.269   5.646 -0.0768  0.0963  0.0271
11583TIP3    H156240   6.367   5.239   5.574  0.4305 -0.5280  0.6617
11583TIP3    H256241   6.370   5.320   5.702 -0.0291 -0.8636  0.8907
11584TIP3   OH256242   5.769   4.954   3.370  0.3724 -0.0280  0.5704
11584TIP3    H156243   5.861   4.927   3.375  0.7287  1.0249  0.1041
11584TIP3    H256244   5.720   4.872   3.365  1.3432 -0.5945  0.0346
11585TIP3   OH256245   1.389   5.104   2.070  0.0066  0.3307  0.5294
11585TIP3    H156246   1.319   5.115   2.005  0.9648  0.4474 -0.5281
11585TIP3    H256247   1.344   5.103   2.154 -1.1322  1.9113 -0.0165
11586TIP3   OH256248   1.824   4.564   5.879 -0.0551 -0.1170 -0.0762
11586TIP3    H156249   1.776   4.539   5.958  1.1517 -1.2246  0.3378
11586TIP3    H256250   1.891   4.624   5.910 -0.6225  0.7913 -0.5400
11587TIP3   OH256251   4.520   5.424   5.338  0.2142 -0.0958 -0.7728
11587TIP3    H156252   4.456   5.473   5.389 -0.7888 -0.9561 -1.1623
11587TIP3    H256253   4.550   5.355   5.396 -0.0944 -0.3932 -0.9564
11588TIP3   OH256254   4.923   0.539  11.948  0.1832 -0.3856  0.0459
11588TIP3    H156255   4.937   0.445  11.935  2.3931 -0.3254  1.4353
11588TIP3    H256256   4.884   0.545  12.035  3.7699  0.0470  1.8163
11589TIP3   OH256257   5.102   4.242   2.637  0.2920  0.0929 -0.7042
11589TIP3    H156258   5.131   4.187   2.564  0.2412  0.6207 -1.1265
11589TIP3    H256259   5.104   4.183   2.713 -0.5166 -0.7090 -1.2823
11590TIP3   OH256260   1.153   4.047   6.539 -0.8029  0.2024  0.2190
11590TIP3    H156261   1.118   3.966   6.575 -0.7044  0.2202  0.3575
11590TIP3    H256262   1.248   4.036   6.544 -0.7899  0.2712  0.1141
11591TIP3   OH256263   0.128   1.958  12.246 -0.3117  0.2531 -0.2114
11591TIP3    H156264   0.127   1.931  12.154  1.6872 -0.6219 -0.0177
11591TIP3    H256265   0.195   1.903  12.287  0.0340  1.7863  1.4002
11592TIP3   OH256266   2.541   1.666  12.367  0.1872 -0.2889  0.0727
11592TIP3    H156267   2.567   1.748  12.325  0.4915  0.3954  1.5205
11592TIP3    H256268   2.448   1.680  12.388  0.1693 -0.4291  0.0829
11593TIP3   OH256269   3.066   5.503  16.407  0.0386  0.4924 -0.6524
11593TIP3    H156270   3.120   5.426  16.424 -0.1434  0.7378  1.1860
11593TIP3    H256271   3.125   5.577  16.415 -0.4821  0.7543  1.2533
11594TIP3   OH256272   3.931   5.067  10.913  0.7962 -0.5376 -0.2694
11594TIP3    H156273   4.021   5.073  10.882  0.1163 -1.7219 -2.6766
11594TIP3    H256274   3.880   5.045  10.836 -1.2983 -1.8808  1.3859
11595TIP3   OH256275   5.919   0.907   1.588 -0.2341 -0.3191 -0.2352
11595TIP3    H156276   5.918   0.996   1.552 -0.0545 -0.5819 -0.8999
11595TIP3    H256277   5.899   0.851   1.514 -0.1944 -0.8512  0.1507
11596TIP3   OH256278   5.307   3.531   2.601  0.1064 -0.3449  0.4956
11596TIP3    H156279   5.292   3.513   2.508 -0.5125  0.5318  0.4134
11596TIP3    H256280   5.252   3.607   2.620  1.3654  0.4261  1.2082
11597TIP3   OH256281   4.146   3.135  16.001 -0.1276 -0.3000  0.2266
11597TIP3    H156282   4.092   3.199  16.049  2.3745  1.8783  0.3479
11597TIP3    H256283   4.234   3.171  16.004  0.9127 -2.3387 -2.2972
11598TIP3   OH256284   0.616   2.609   2.081 -0.6691 -0.1146 -0.2624
11598TIP3    H156285   0.585   2.570   1.999 -0.6361 -0.8607  0.0772
11598TIP3    H256286   0.613   2.704   2.064  0.8156 -0.2686 -1.6778
11599TIP3   OH256287   5.167   0.108   5.383  0.0464 -0.9935  0.4672
11599TIP3    H156288   5.133   0.167   5.316 -0.9437 -1.8523  0.1760
11599TIP3    H256289   5.249   0.075   5.348  0.3842 -0.1267  0.4417
11600TIP3   OH256290   3.615   4.625   4.104  0.4915 -0.5154  0.0667
11600TIP3    H156291   3.599   4.698   4.044  0.4233 -1.7185 -1.4271
11600TIP3    H256292   3.707   4.605   4.092  0.3263 -1.1731 -0.1203
11601TIP3   OH256293   6.133   3.872   0.739 -0.7981 -0.0381 -0.4962
11601TIP3    H156294   6.181   3.897   0.818 -2.1206  1.0680  0.0025
11601TIP3    H256295   6.102   3.783   0.756  0.3089 -0.4435 -0.4843
11602TIP3   OH256296   6.554   2.731  13.726 -0.5427 -0.9620  0.6848
11602TIP3    H156297   6.495   2.722  13.651  0.6861  0.8018 -0.5588
11602TIP3    H256298   6.596   2.645  13.733 -0.1390 -0.9352 -1.1260
11603TIP3   OH256299   4.621   2.686   0.456  0.0537  0.5693 -0.3439
11603TIP3    H156300   4.701   2.726   0.491 -0.7081  1.4577  0.4538
11603TIP3    H256301   4.603   2.735   0.376  0.4176  0.2410 -0.6249
11604TIP3   OH256302   6.047   5.873  13.325  0.0646  0.0663 -0.5669
11604TIP3    H156303   6.034   5.963  13.352  0.5159  0.1330 -0.5633
11604TIP3    H256304   5.986   5.822  13.378  0.2930  0.2935 -0.0849
11605TIP3   OH256305   0.446   5.911  15.119  0.2829  0.3366 -0.1407
11605TIP3    H156306   0.397   5.829  15.124 -1.3012  1.2588  0.0382
11605TIP3    H256307   0.439   5.938  15.027  1.6872 -0.2327 -0.4321
11606TIP3   OH256308   0.919   4.156  15.348 -0.9076 -0.5853  0.7079
11606TIP3    H156309   0.864   4.220  15.303 -1.0308  0.0554  1.7301
11606TIP3    H256310   0.915   4.078  15.293 -0.4544  0.3856 -0.7778
11607TIP3   OH256311   3.377   1.128   3.822 -0.2097 -0.4990  0.1046
11607TIP3    H156312   3.289   1.146   3.857 -0.9155 -0.3404 -1.6478
11607TIP3    H256313   3.361   1.075   3.744  1.3629 -1.6747  0.5214
11608TIP3   OH256314   6.298   2.091  13.534 -0.2784  0.5841 -0.4354
11608TIP3    H156315   6.358   2.099  13.608  0.0315 -0.3158 -0.5818
11608TIP3    H256316   6.216   2.062  13.573 -0.4638  1.2537 -0.3089
11609TIP3   OH256317   4.390   5.550  16.763 -0.6553 -0.0253  0.8410
11609TIP3    H156318   4.318   5.561  16.825 -0.5840  0.5360  0.8290
11609TIP3    H256319   4.439   5.632  16.768  0.5748 -0.7763  1.5950
11610TIP3   OH256320   6.417   4.598  14.592 -0.3241  0.0140 -0.7428
11610TIP3    H156321   6.468   4.653  14.652 -0.6955 -0.3986 -0.0425
11610TIP3    H256322   6.386   4.659  14.524  0.4865  0.3997 -0.7801
11611TIP3   OH256323   1.152   2.973   2.778 -0.4107 -0.3221 -0.0182
11611TIP3    H156324   1.239   2.934   2.772 -0.3376 -0.7944  2.7059
11611TIP3    H256325   1.093   2.905   2.747  0.1124 -0.3970 -0.8629
11612TIP3   OH256326   6.612   4.528  13.248 -0.0399 -0.2240 -0.3750
11612TIP3    H156327   6.544   4.593  13.232 -1.9181 -1.9645  0.0924
11612TIP3    H256328   6.598   4.461  13.181  2.4129  0.1794 -1.4097
11613TIP3   OH256329   1.117   4.658  12.891 -0.1032 -0.1441  0.2318
11613TIP3    H156330   1.203   4.652  12.848 -0.1145  1.1912 -0.0253
11613TIP3    H256331   1.055   4.625  12.826 -0.0439  1.2347 -0.5752
11614TIP3   OH256332   4.292   6.765   1.209 -0.6979 -0.3631  0.2569
11614TIP3    H156333   4.380   6.759   1.246 -0.2094  1.2206 -0.5890
11614TIP3    H256334   4.297   6.717   1.126 -1.0731 -1.5692  0.8965
11615TIP3   OH256335   4.712   2.801   5.150  0.3983 -0.1712 -0.2276
11615TIP3    H156336   4.689   2.859   5.077 -1.9942 -2.0532 -1.0931
11615TIP3    H256337   4.752   2.725   5.109  1.7038 -0.0509  0.7350
11616TIP3   OH256338   1.783   5.552  13.910 -0.1553  0.5189 -0.1168
11616TIP3    H156339   1.724   5.574  13.838 -1.9151  0.4023  1.2412
11616TIP3    H256340   1.748   5.599  13.986  1.2761  0.1255  0.8291
11617TIP3   OH256341   3.440   1.966   5.140 -0.2676 -0.2420 -0.1821
11617TIP3    H156342   3.409   2.002   5.223 -0.6435  1.7154 -1.1303
11617TIP3    H256343   3.502   2.031   5.107  0.1575 -1.1746 -1.2814
11618TIP3   OH256344   0.350   6.363   5.144 -0.1948  0.1561  0.1443
11618TIP3    H156345   0.309   6.326   5.066  0.6194  0.4941 -0.4589
11618TIP3    H256346   0.351   6.290   5.207 -2.4507  0.3699  0.4986
11619TIP3   OH256347   0.640   3.044  13.672  0.3099  0.1636  0.3196
11619TIP3    H156348   0.605   3.133  13.665  2.6615  1.1538  0.1452
11619TIP3    H256349   0.699   3.036  13.597 -0.6630 -1.9743 -0.2840
11620TIP3   OH256350   5.320   2.027   5.326  0.0195 -0.1133  0.0572
11620TIP3    H156351   5.224   2.031   5.327  0.0155 -0.0006 -0.4197
11620TIP3    H256352   5.340   1.934   5.327 -0.0994 -0.1404 -0.0475
11621TIP3   OH256353   2.160   3.586  16.874  0.4990 -0.1388 -0.3754
11621TIP3    H156354   2.163   3.600  16.779  1.0617  1.0361 -0.2043
11621TIP3    H256355   2.143   3.492  16.884  2.4991 -0.7045 -1.6397
11622TIP3   OH256356   1.289   6.352   1.059  0.2222  0.0276 -0.8050
11622TIP3    H156357   1.336   6.425   1.021 -0.0044  0.4997 -0.2003
11622TIP3    H256358   1.207   6.347   1.010 -0.6101  1.4040  0.3678
11623TIP3   OH256359   1.419   5.140   5.797  0.6349  0.2168  0.2009
11623TIP3    H156360   1.506   5.104   5.778  0.3634  0.1666 -0.9935
11623TIP3    H256361   1.390   5.178   5.714  0.5670  2.5263  1.2150
11624TIP3   OH256362   2.541   0.762  13.396  0.6496 -0.4566  0.5935
11624TIP3    H156363   2.566   0.774  13.304  0.9332 -1.5948  0.5143
11624TIP3    H256364   2.474   0.829  13.411  1.9160  0.9957  0.0978
11625TIP3   OH256365   6.573   5.172  16.425 -0.1117  0.5095 -0.1358
11625TIP3    H156366   6.595   5.259  16.392 -0.3358  0.5780 -0.1071
11625TIP3    H256367   6.497   5.145  16.372  0.4923 -0.0306 -0.7422
11626TIP3   OH256368   1.296   3.485   2.579  0.2801 -0.4742 -1.0502
11626TIP3    H156369   1.374   3.430   2.585 -0.3431 -1.6607 -2.9032
11626TIP3    H256370   1.270   3.500   2.670  2.0409 -0.9616 -0.4370
11627TIP3   OH256371   1.563   4.141   2.436  0.0074  0.1608  0.7187
11627TIP3    H156372   1.622   4.180   2.502 -1.1371  0.4390  1.6066
11627TIP3    H256373   1.476   4.169   2.463 -0.4613  0.6876 -1.2169
11628TIP3   OH256374   4.682   1.120  12.899 -0.3047  0.9424  0.0201
11628TIP3    H156375   4.755   1.082  12.849 -0.8389 -1.0267  0.6247
11628TIP3    H256376   4.610   1.123  12.836 -0.3831  0.4920  0.0813
11629TIP3   OH256377   3.141   2.351  17.110 -0.2311 -0.3995 -0.0839
11629TIP3    H156378   3.234   2.373  17.114 -0.3164 -0.1570  0.8836
11629TIP3    H256379   3.129   2.312  17.024  0.8842 -0.9812  0.0092
11630TIP3   OH256380   0.765   5.121  15.277  0.2323 -0.9150  0.4068
11630TIP3    H156381   0.812   5.053  15.230  1.5169  0.2854 -0.0828
11630TIP3    H256382   0.769   5.094  15.369  1.1748 -1.2489  0.2724
11631TIP3   OH256383   2.415   0.010   0.738 -0.1501  0.0204 -0.1972
11631TIP3    H156384   2.372   0.083   0.693 -0.8530  0.4646  1.1264
11631TIP3    H256385   2.468   0.053   0.806 -1.1883 -0.7148  1.1106
11632TIP3   OH256386   0.979   4.550  17.100  0.1197 -0.0094 -0.3682
11632TIP3    H156387   1.039   4.503  17.041  2.0543 -0.8707  2.1037
11632TIP3    H256388   0.918   4.483  17.130 -0.0331  0.1251 -0.3799
11633TIP3   OH256389   4.448   2.406  15.599 -1.1430 -0.1488  0.3399
11633TIP3    H156390   4.521   2.388  15.540 -1.4570 -0.3252  0.0050
11633TIP3    H256391   4.428   2.498  15.586 -0.2376  0.1905  1.2668
11634TIP3   OH256392   0.843   6.796  15.282  0.5414  0.1207  0.7926
11634TIP3    H156393   0.935   6.817  15.268  1.0744 -0.9198  2.4529
11634TIP3    H256394   0.815   6.850  15.355  0.2116 -0.4864  1.1320
11635TIP3   OH256395   2.379   2.455   4.456 -0.0551 -0.3616  0.4515
11635TIP3    H156396   2.424   2.473   4.538  1.3522 -0.2144 -0.3176
11635TIP3    H256397   2.399   2.364   4.436  2.9456  0.5831 -1.6045
11636TIP3   OH256398   2.944   3.109  15.406  0.3437 -0.1291 -0.0636
11636TIP3    H156399   2.885   3.036  15.425 -0.9469  1.1073  0.8506
11636TIP3    H256400   2.927   3.172  15.476  1.4777  1.0204 -0.7960
11637TIP3   OH256401   3.686   0.135   2.446  0.4825  0.4737  0.5374
11637TIP3    H156402   3.746   0.160   2.375 -1.5056  2.3903 -0.5816
11637TIP3    H256403   3.729   0.167   2.526  1.1215  1.4941 -0.1929
11638TIP3   OH256404   1.953   5.598   5.413  0.8968  1.1162  0.2313
11638TIP3    H156405   1.901   5.593   5.493  2.6667 -1.2085  1.3553
11638TIP3    H256406   2.041   5.620   5.443  1.9174 -1.1559 -0.8057
11639TIP3   OH256407   2.875   4.252   1.998  0.1359  0.0501  0.3424
11639TIP3    H156408   2.839   4.167   1.976 -1.4687  0.8218 -0.1568
11639TIP3    H256409   2.967   4.235   2.016  0.1384 -1.5863 -0.9744
11640TIP3   OH256410   1.155   4.908   1.665 -0.8872  0.8157  0.0454
11640TIP3    H156411   1.090   4.973   1.636 -0.0388  2.2877  1.2895
11640TIP3    H256412   1.201   4.951   1.737 -0.5503 -1.3621  1.1962
11641TIP3   OH256413   1.265   2.288  11.644  0.5716  0.0527 -0.4593
11641TIP3    H156414   1.329   2.221  11.669 -1.9098 -1.3629  2.9654
11641TIP3    H256415   1.299   2.369  11.683  0.8790 -0.4274  0.2867
11642TIP3   OH256416   0.706   5.275   1.069 -0.7003 -0.8928 -0.4524
11642TIP3    H156417   0.698   5.357   1.019 -0.3785  0.1506  1.1526
11642TIP3    H256418   0.793   5.242   1.045  0.1399  0.4443  0.5933
11643TIP3   OH256419   4.974   3.575   1.852 -0.4062 -0.3007 -0.0272
11643TIP3    H156420   5.065   3.582   1.881 -0.5093 -0.3150  0.3019
11643TIP3    H256421   4.923   3.566   1.932 -0.9635  2.1913 -0.0103
11644TIP3   OH256422   3.626   4.542   3.126 -0.5006  0.5798 -0.2632
11644TIP3    H156423   3.608   4.455   3.161 -1.0018 -0.1837 -2.2430
11644TIP3    H256424   3.713   4.533   3.086  0.1574  1.4833  0.8969
11645TIP3   OH256425   3.274   6.059  14.370 -0.1399  0.2867 -0.1880
11645TIP3    H156426   3.360   6.075  14.332 -0.3781  1.3566 -0.3123
11645TIP3    H256427   3.243   6.146  14.396 -0.7707 -0.1984  0.7454
11646TIP3   OH256428   6.025   1.514  15.377  0.7286 -0.2570  0.5534
11646TIP3    H156429   6.051   1.558  15.458 -0.6166  3.1621 -0.6891
11646TIP3    H256430   5.934   1.542  15.363  0.1087 -2.7307 -0.9395
11647TIP3   OH256431   2.558   1.248   4.460  0.0123  0.0675  0.1649
11647TIP3    H156432   2.490   1.207   4.406 -0.5237  0.8704  0.2193
11647TIP3    H256433   2.611   1.174   4.491 -1.5463 -0.7121  1.0987
11648TIP3   OH256434   6.180   4.878  13.676  0.2329  0.6788  0.1754
11648TIP3    H156435   6.275   4.885  13.677  0.1939  2.3593 -1.3101
11648TIP3    H256436   6.155   4.868  13.768  1.8759 -1.1002  0.4857
11649TIP3   OH256437   0.808   3.528   4.331 -0.0081  0.0868  0.0174
11649TIP3    H156438   0.895   3.557   4.303  0.4539  0.8217  2.0240
11649TIP3    H256439   0.747   3.576   4.275  0.8357  2.1382  0.7824
11650TIP3   OH256440   2.147   3.551   3.631  0.2940  0.0791 -0.3419
11650TIP3    H156441   2.197   3.516   3.557  0.0967  0.4467 -0.6556
11650TIP3    H256442   2.068   3.586   3.591 -0.9291 -1.7981  0.3064
11651TIP3   OH256443   4.018   0.435   3.194 -0.4243 -0.0630 -0.5023
11651TIP3    H156444   3.950   0.468   3.136  0.6666  1.7319 -0.8348
11651TIP3    H256445   4.098   0.438   3.142  0.6281  1.7914  1.0482
11652TIP3   OH256446   3.077   4.151  14.287  0.4644  0.1045 -0.6006
11652TIP3    H156447   2.999   4.096  14.287  1.2131 -1.1695  2.1292
11652TIP3    H256448   3.129   4.118  14.214  0.0204 -1.5628 -0.2226
11653TIP3   OH256449   1.091   0.550   0.928 -0.2700  0.0330 -0.0709
11653TIP3    H156450   1.096   0.535   1.023  1.8159 -0.1577 -0.1662
11653TIP3    H256451   1.062   0.640   0.920 -3.2606 -0.7672  0.6629
11654TIP3   OH256452   0.478   3.726  12.830 -0.1532 -0.3801  0.1938
11654TIP3    H156453   0.517   3.761  12.750  0.4293 -1.7199 -0.1519
11654TIP3    H256454   0.541   3.660  12.860 -2.3136 -3.0662 -0.7024
11655TIP3   OH256455   4.227   6.194  13.761 -0.4060 -0.1056 -0.4079
11655TIP3    H156456   4.137   6.226  13.774 -0.8069 -1.1980 -0.4086
11655TIP3    H256457   4.266   6.256  13.699 -0.7668  1.0714  0.5259
11656TIP3   OH256458   5.619   6.110  11.113  0.4789  0.5278 -0.1209
11656TIP3    H156459   5.563   6.187  11.101 -1.5566 -0.6421  1.3789
11656TIP3    H256460   5.623   6.071  11.026 -1.8494  0.1659 -0.1402
11657TIP3   OH256461   0.786   1.490   3.730 -0.8046  0.1141 -0.0271
11657TIP3    H156462   0.754   1.400   3.730  1.0891 -0.6994 -2.4627
11657TIP3    H256463   0.749   1.528   3.650  1.1244  0.3303 -0.8724
11658TIP3   OH256464   0.575   1.080  11.598  0.2759 -0.3275  0.5142
11658TIP3    H156465   0.664   1.057  11.573  1.3881  1.6337  2.3388
11658TIP3    H256466   0.570   1.059  11.691 -1.3751 -0.8800  0.3275
11659TIP3   OH256467   0.050   3.613  15.369 -0.3915 -0.0601 -0.1393
11659TIP3    H156468   0.136   3.623  15.329 -1.0365  0.0824 -1.5504
11659TIP3    H256469  -0.008   3.588  15.297 -1.7536  0.9597  0.5460
11660TIP3   OH256470   6.706   5.494   0.018 -0.1884 -0.8174 -0.2927
11660TIP3    H156471   6.715   5.506  -0.076 -1.8168 -0.9629 -0.5084
11660TIP3    H256472   6.784   5.535   0.056  0.0409  0.0545 -1.6459
11661TIP3   OH256473   2.293   6.707  15.277  0.4303 -0.7838  0.0302
11661TIP3    H156474   2.229   6.740  15.213  1.9814  0.7345 -0.8481
11661TIP3    H256475   2.326   6.626  15.238  1.2797  0.0665 -1.1141
11662TIP3   OH256476   6.556   3.742   0.555 -0.2011  0.2840 -0.5088
11662TIP3    H156477   6.545   3.820   0.610  0.7464 -0.0254  0.1544
11662TIP3    H256478   6.638   3.703   0.586 -0.2394 -0.5237 -1.3925
11663TIP3   OH256479   3.316   1.182   2.547  0.7764  0.4855  0.2517
11663TIP3    H156480   3.281   1.142   2.626 -1.2307 -0.6354 -1.1240
11663TIP3    H256481   3.351   1.109   2.495  1.2606  1.0861 -0.3040
11664TIP3   OH256482   4.283   5.238  12.383  0.6519 -0.1233  0.1356
11664TIP3    H156483   4.315   5.208  12.298 -1.0656  0.2149 -0.6699
11664TIP3    H256484   4.314   5.329  12.390 -0.2103  0.2354 -0.6752
11665TIP3   OH256485   4.049   3.289   5.869  0.1978 -0.1947  0.4912
11665TIP3    H156486   4.055   3.208   5.817 -1.0469  0.8895 -1.4584
11665TIP3    H256487   4.015   3.260   5.953 -1.6379 -1.6018 -0.6343
11666TIP3   OH256488   2.699   6.777   5.592 -0.2885  0.3859 -0.4474
11666TIP3    H156489   2.643   6.799   5.666  0.2705  0.2028  0.0311
11666TIP3    H256490   2.686   6.683   5.579  0.3544  0.2174  0.0524
11667TIP3   OH256491   6.493   2.709   5.932  0.4668 -0.2689 -0.9664
11667TIP3    H156492   6.539   2.742   6.010 -1.4144 -0.2939  0.2161
11667TIP3    H256493   6.490   2.783   5.872  1.6498 -0.1524 -0.9057
11668TIP3   OH256494   4.437   2.213  15.780 -0.1854  0.1008  0.5900
11668TIP3    H156495   4.458   2.283  15.717 -0.8666  0.0091  0.2485
11668TIP3    H256496   4.391   2.258  15.851  1.9668  0.4678  1.8301
11669TIP3   OH256497   3.519   0.562  15.712 -0.6901  0.2913  0.9406
11669TIP3    H156498   3.488   0.532  15.627  2.0815 -0.0703 -0.0408
11669TIP3    H256499   3.440   0.595  15.756 -2.4299 -0.7700 -1.1885
11670TIP3   OH256500   4.911   1.029  16.658  0.0153 -0.0732  0.2955
11670TIP3    H156501   4.956   1.112  16.642 -0.3826  0.3327  1.1914
11670TIP3    H256502   4.843   1.051  16.722  0.1304 -1.1650  0.8138
11671TIP3   OH256503   0.602   4.504   5.407 -0.1305 -0.2345 -0.1682
11671TIP3    H156504   0.637   4.438   5.348  0.2350  0.2903 -0.5510
11671TIP3    H256505   0.577   4.577   5.350  1.4737  0.8288  0.4222
11672TIP3   OH256506   0.308   2.916   6.237  0.1784 -0.0018  0.4173
11672TIP3    H156507   0.238   2.960   6.190  0.4121  0.7262  0.7334
11672TIP3    H256508   0.358   2.987   6.279  0.6034 -0.5571  0.8801
11673TIP3   OH256509   3.100   4.224   4.846  0.2327 -0.0103 -0.0321
11673TIP3    H156510   3.107   4.274   4.764 -0.2648 -0.5143 -0.3820
11673TIP3    H256511   3.013   4.186   4.844  0.0317  0.3668  0.9707
11674TIP3   OH256512   6.169   2.177  16.858 -0.0551 -0.0594  0.3635
11674TIP3    H156513   6.102   2.236  16.892  0.1553  1.0269 -1.0465
11674TIP3    H256514   6.135   2.089  16.877 -1.7529  0.4754 -0.0888
11675TIP3   OH256515   5.639   2.054   6.303 -0.1399  0.4757 -0.4234
11675TIP3    H156516   5.667   2.135   6.346 -1.4740 -0.1809  1.8628
11675TIP3    H256517   5.721   2.011   6.278  0.7128  1.1686  1.0220
11676TIP3   OH256518   3.079   1.187  10.791  0.2221 -0.1218 -0.1641
11676TIP3    H156519   3.081   1.232  10.706  0.4455 -0.9214 -0.5914
11676TIP3    H256520   3.140   1.236  10.846 -1.0654  1.3330  0.0273
11677TIP3   OH256521   1.119   6.827   5.229 -0.4688  0.8378 -0.1547
11677TIP3    H156522   1.042   6.880   5.208 -1.2022 -0.6807 -1.5497
11677TIP3    H256523   1.168   6.823   5.148  0.5577  0.9195  0.4469
11678TIP3   OH256524   0.756   3.044  13.412  1.0161  0.0284 -0.3749
11678TIP3    H156525   0.684   3.062  13.352  0.8416 -0.1630 -0.2225
11678TIP3    H256526   0.827   3.101  13.382  1.0407 -0.3072 -0.9614
11679TIP3   OH256527   2.702   1.671   0.127 -0.3516  0.2106 -0.1077
11679TIP3    H156528   2.786   1.629   0.146 -0.0210  0.2012 -1.4663
11679TIP3    H256529   2.687   1.730   0.201  0.8736  0.2215  0.1515
11680TIP3   OH256530   5.348   3.654  11.309  0.1849  0.3992 -0.0498
11680TIP3    H156531   5.368   3.748  11.304  1.2655  0.1278 -1.0454
11680TIP3    H256532   5.385   3.617  11.230 -0.4178 -0.8601  0.2337
11681TIP3   OH256533   2.626   1.094   2.630  0.1757  0.2129 -0.1998
11681TIP3    H156534   2.720   1.112   2.630  0.1749  0.2327  0.4884
11681TIP3    H256535   2.608   1.061   2.718 -0.7805  1.9616  0.3155
11682TIP3   OH256536   0.827   0.219  16.730  0.0325 -0.1322  0.3644
11682TIP3    H156537   0.772   0.272  16.672  0.8269  0.6161  0.2604
11682TIP3    H256538   0.908   0.270  16.738  0.2174 -0.5925  1.5335
11683TIP3   OH256539   4.505   6.288  15.585 -0.8311  0.3974 -0.0502
11683TIP3    H156540   4.461   6.259  15.665 -0.2217 -0.3271  0.0319
11683TIP3    H256541   4.566   6.356  15.616  0.4931 -0.9162  0.3680
11684TIP3   OH256542   1.841   4.512   3.052 -0.6326 -0.4908 -0.2204
11684TIP3    H156543   1.826   4.570   3.127  1.1193  0.2455 -0.4028
11684TIP3    H256544   1.841   4.570   2.976  1.3139 -0.6429 -0.3881
11685TIP3   OH256545   1.480   6.382  14.269 -0.3074 -0.3147 -0.2134
11685TIP3    H156546   1.465   6.314  14.335 -0.3984  0.3266  0.4303
11685TIP3    H256547   1.393   6.412  14.245 -0.2603 -0.3330 -0.4124
11686TIP3   OH256548   1.724   0.338   0.731 -0.0531 -0.9197 -0.3281
11686TIP3    H156549   1.805   0.369   0.691 -0.0917 -0.1169  0.1991
11686TIP3    H256550   1.737   0.243   0.741  0.2565 -1.0167 -1.5109
11687TIP3   OH256551   0.549   6.771  15.569  0.0129  0.3622  0.3127
11687TIP3    H156552   0.585   6.759  15.481 -0.7224 -0.7267  0.1390
11687TIP3    H256553   0.568   6.688  15.613 -0.4052  0.5707  0.8925
11688TIP3   OH256554   5.748   1.682  11.027  0.3657 -0.5264 -0.0300
11688TIP3    H156555   5.708   1.697  11.112  0.6732 -0.5307  0.1155
11688TIP3    H256556   5.830   1.732  11.030 -0.9594  1.9567 -1.3852
11689TIP3   OH256557   1.119   6.011  11.839 -0.3301  0.4601  0.3459
11689TIP3    H156558   1.078   6.092  11.809 -1.4021 -0.0739  0.3413
11689TIP3    H256559   1.117   6.017  11.935 -0.1786  0.5549  0.3433
11690TIP3   OH256560   2.087   2.630  15.675  0.0292 -0.3323  0.6981
11690TIP3    H156561   2.120   2.693  15.739 -0.2749 -1.6109  2.2023
11690TIP3    H256562   2.154   2.562  15.672 -0.0472 -0.3758 -0.2296
11691TIP3   OH256563   4.867   3.718   4.058  0.6437  0.2152 -0.1863
11691TIP3    H156564   4.959   3.742   4.047  0.7548 -0.6254 -1.3506
11691TIP3    H256565   4.821   3.774   3.996  0.3622  0.6428  0.4028
11692TIP3   OH256566   5.223   2.592  16.198  0.1214  0.0933  0.1407
11692TIP3    H156567   5.230   2.521  16.262 -0.1909  1.0327  1.2401
11692TIP3    H256568   5.141   2.575  16.152  1.1931 -1.5749 -1.2726
11693TIP3   OH256569   2.895   3.904  12.317  0.0012  0.2834  0.7132
11693TIP3    H156570   2.985   3.874  12.307 -0.3717 -0.5195 -0.5864
11693TIP3    H256571   2.872   3.882  12.407  1.0537  0.3402  1.0011
11694TIP3   OH256572   6.145   3.586   2.868  0.2395  0.1032 -0.1313
11694TIP3    H156573   6.176   3.644   2.937  0.4419  0.6095 -0.6473
11694TIP3    H256574   6.085   3.526   2.913  1.5402 -0.5556  0.7813
11695TIP3   OH256575   3.722   4.046   0.511  0.0391 -0.0392  0.0975
11695TIP3    H156576   3.656   4.049   0.580  1.1089  2.3830  1.1579
11695TIP3    H256577   3.742   3.953   0.499 -0.7511 -0.5823  2.5022
11696TIP3   OH256578   0.581   5.340  12.579  0.2605  0.2401  0.2501
11696TIP3    H156579   0.572   5.433  12.558 -0.8206  0.4794  1.5968
11696TIP3    H256580   0.490   5.308  12.580  0.6010 -0.7490  0.1556
11697TIP3   OH256581   0.267   6.601  13.105 -0.6176 -0.3068  0.4562
11697TIP3    H156582   0.336   6.562  13.159 -0.9046 -0.4297  0.7400
11697TIP3    H256583   0.193   6.613  13.166 -0.7794  0.0016  0.2006
11698TIP3   OH256584   0.356   2.674   1.113 -0.5020 -0.2619  0.6302
11698TIP3    H156585   0.265   2.674   1.141 -0.8618 -0.4265 -0.4841
11698TIP3    H256586   0.352   2.696   1.020  0.7035  1.2309  0.8935
11699TIP3   OH256587   2.414   1.741   1.025  0.2831  0.0356  0.6141
11699TIP3    H156588   2.459   1.726   1.109 -0.3687 -0.0456  0.9554
11699TIP3    H256589   2.481   1.780   0.969  0.0853  2.5178  1.9588
11700TIP3   OH256590   5.015   3.777  15.657 -0.3053 -0.4237 -0.2109
11700TIP3    H156591   4.929   3.805  15.625 -0.1532  1.1348  0.6703
11700TIP3    H256592   5.069   3.856  15.655  0.4846 -0.8861  1.2811
11701TIP3   OH256593   2.522   5.929  15.445 -0.3074  0.1446  0.3988
11701TIP3    H156594   2.597   5.987  15.429 -0.2133  0.2508  1.1941
11701TIP3    H256595   2.536   5.855  15.385  1.1060 -0.4482  1.4186
11702TIP3   OH256596   6.474   2.259  13.401  0.1622  0.0472 -0.7305
11702TIP3    H156597   6.442   2.180  13.443  0.3054 -0.3251 -1.3066
11702TIP3    H256598   6.452   2.247  13.308  3.1997 -0.8966 -1.4299
11703TIP3   OH256599   6.165   2.925   3.353  0.6453 -0.7952  0.6984
11703TIP3    H156600   6.213   2.947   3.274 -0.6491 -0.6891 -0.0818
11703TIP3    H256601   6.209   2.846   3.387  0.7434 -1.2935 -0.5400
11704TIP3   OH256602   5.781   2.096  13.632 -0.0584  0.3913  0.3899
11704TIP3    H156603   5.742   2.055  13.555 -0.1946 -1.9597  1.6159
11704TIP3    H256604   5.864   2.049  13.644 -0.1713  0.5250  1.8265
11705TIP3   OH256605   6.524   3.437  11.734 -0.5986  0.1021  0.2641
11705TIP3    H156606   6.603   3.384  11.719 -1.9349 -1.3108 -2.4963
11705TIP3    H256607   6.557   3.526  11.743  1.4527 -0.6915  1.3605
11706TIP3   OH256608   3.450   2.359  14.505 -0.2658  0.0100 -0.3119
11706TIP3    H156609   3.366   2.332  14.543  0.4961 -0.8755  0.8359
11706TIP3    H256610   3.434   2.448  14.473 -1.1031  0.7138  1.8171
11707TIP3   OH256611   3.346   1.438   3.751 -0.1942 -0.0922 -0.2674
11707TIP3    H156612   3.303   1.481   3.825 -0.0346  0.5622 -0.5459
11707TIP3    H256613   3.387   1.360   3.789 -1.0525 -0.3607  0.1219
11708TIP3   OH256614   2.006   1.280  15.492 -0.0220  0.0394  0.3629
11708TIP3    H156615   1.942   1.241  15.432 -0.3496 -0.1049  0.8035
11708TIP3    H256616   1.973   1.259  15.579 -0.7530  2.1322  0.6541
11709TIP3   OH256617   2.598   4.265   5.866  0.4071  0.1838 -0.3877
11709TIP3    H156618   2.540   4.336   5.840 -0.1808  0.4448  1.4820
11709TIP3    H256619   2.585   4.197   5.799  1.1415  1.8433 -2.3401
11710TIP3   OH256620   3.853   1.012   3.440  0.2310 -0.3006  0.0396
11710TIP3    H156621   3.864   0.922   3.409 -1.1924 -0.5757  0.2758
11710TIP3    H256622   3.772   1.041   3.399 -0.0471  0.3963  1.0564
11711TIP3   OH256623   3.910   5.737  14.749  0.3317 -0.2580  0.3190
11711TIP3    H156624   3.852   5.751  14.823 -0.2292 -1.2088  0.0824
11711TIP3    H256625   3.893   5.810  14.689 -0.9394 -0.7520  0.0588
11712TIP3   OH256626   4.989   4.665   1.901 -0.1739  0.6269 -0.2361
11712TIP3    H156627   5.031   4.649   1.986  0.7320 -0.6154 -0.8870
11712TIP3    H256628   4.914   4.721   1.921  0.8820  1.6008  1.1869
11713TIP3   OH256629   0.251   1.481  15.119  0.5559  0.0378 -0.0327
11713TIP3    H156630   0.239   1.426  15.042  1.6210  0.6248 -0.6445
11713TIP3    H256631   0.167   1.525  15.131  0.1718 -0.5768 -0.4398
11714TIP3   OH256632   2.242   2.259  14.007  0.3877  0.5537  0.0906
11714TIP3    H156633   2.184   2.201  14.057  1.1807  0.0968  0.4974
11714TIP3    H256634   2.215   2.248  13.916  0.0172  0.1435  0.2475
11715TIP3   OH256635   1.048   5.713   3.155 -0.1319 -0.2187 -0.4633
11715TIP3    H156636   1.128   5.718   3.207 -1.3117  0.5956  1.3622
11715TIP3    H256637   1.030   5.803   3.129 -1.4491 -0.1027  0.7553
11716TIP3   OH256638   4.958   6.698   4.810  0.6011  0.9834 -0.2723
11716TIP3    H156639   4.999   6.643   4.744  0.2571 -0.9435  1.0306
11716TIP3    H256640   4.865   6.680   4.803  0.2852  2.6855 -0.8957
11717TIP3   OH256641   0.408   0.030  10.618 -0.1396 -0.3877 -0.4204
11717TIP3    H156642   0.462   0.107  10.604 -1.3926  0.6954  0.4684
11717TIP3    H256643   0.460  -0.042  10.582  1.2323  0.7922 -0.9193
11718TIP3   OH256644   6.778   3.795  13.965  0.2752 -0.1253 -0.2372
11718TIP3    H156645   6.689   3.779  13.996  0.0169 -0.3497 -1.0489
11718TIP3    H256646   6.831   3.804  14.044 -0.0911 -2.0613  0.2761
11719TIP3   OH256647   1.379   5.973   5.167 -0.0008 -0.3989  0.5667
11719TIP3    H156648   1.439   6.035   5.207 -0.6018  0.0817  0.7479
11719TIP3    H256649   1.305   6.027   5.138  0.5834 -0.6509 -1.5550
11720TIP3   OH256650   4.485   1.784   2.468 -0.1801  0.4490 -0.3044
11720TIP3    H156651   4.416   1.757   2.529 -0.9184  3.9225  0.6355
11720TIP3    H256652   4.438   1.820   2.393  0.7199 -1.0154 -1.6384
11721TIP3   OH256653   3.728   4.275   5.021  0.0903 -0.1051 -0.3556
11721TIP3    H156654   3.814   4.268   5.063  0.0867 -0.3544 -0.3850
11721TIP3    H256655   3.675   4.209   5.066 -0.5313  1.0885  0.7407
11722TIP3   OH256656   0.274   2.048  17.016 -0.4197 -0.6324 -0.1322
11722TIP3    H156657   0.226   1.981  16.968 -0.5940 -0.7948  0.2636
11722TIP3    H256658   0.310   2.003  17.093 -2.6515  0.2184  1.5223
11723TIP3   OH256659   5.505   4.929   3.695 -0.4150 -0.3574 -0.6296
11723TIP3    H156660   5.425   4.916   3.644 -0.3857 -2.1365 -0.2763
11723TIP3    H256661   5.546   5.006   3.656 -2.0092  0.2765 -1.1697
11724TIP3   OH256662   6.233   0.771   2.944 -0.4681 -0.2615 -0.0802
11724TIP3    H156663   6.150   0.806   2.978  0.0276 -0.3386  1.2702
11724TIP3    H256664   6.254   0.828   2.870 -1.2552  0.3510  0.1462
11725TIP3   OH256665   6.248   3.328  11.626 -0.0801 -0.1616 -0.2156
11725TIP3    H156666   6.195   3.356  11.552  0.7067 -2.2185 -1.6797
11725TIP3    H256667   6.338   3.349  11.600  0.1283 -0.1403  0.5164
11726TIP3   OH256668   3.244   0.273   2.680  0.3694  0.1890 -0.3376
11726TIP3    H156669   3.308   0.266   2.609  0.3824 -0.3190 -0.2807
11726TIP3    H256670   3.206   0.185   2.686  1.1387 -0.0708  1.0038
11727TIP3   OH256671   4.694   1.597  13.734 -0.4628 -0.2638 -0.1044
11727TIP3    H156672   4.785   1.622  13.749 -0.6154  0.7482 -0.8513
11727TIP3    H256673   4.694   1.502  13.747  0.6762 -0.2699 -0.0090
11728TIP3   OH256674   0.613   5.221  12.829 -0.3203 -0.3711 -0.0647
11728TIP3    H156675   0.603   5.235  12.734  0.0273  1.0738  0.1018
11728TIP3    H256676   0.523   5.224  12.863 -0.3606  0.1823 -0.2121
11729TIP3   OH256677   2.166   3.567   2.079 -0.0987 -0.4819  0.5974
11729TIP3    H156678   2.187   3.482   2.040 -0.4645  0.2835 -1.4008
11729TIP3    H256679   2.070   3.572   2.075 -0.0936 -0.0728  0.9327
11730TIP3   OH256680   6.194   1.321  16.984  0.1343  0.1010 -0.4709
11730TIP3    H156681   6.145   1.254  17.032 -1.0815 -0.8807 -2.8961
11730TIP3    H256682   6.176   1.302  16.892  2.4277  1.8017 -1.3644
11731TIP3   OH256683   2.420   1.751   1.348  0.6399  0.5192  0.1245
11731TIP3    H156684   2.329   1.769   1.325  1.2024  1.7249 -1.3294
11731TIP3    H256685   2.425   1.656   1.357 -1.3581  0.5726  3.0712
11732TIP3   OH256686   3.643   4.453   1.102 -0.0867  0.1394 -0.7202
11732TIP3    H156687   3.618   4.412   1.185  2.2214  1.3612  0.6854
11732TIP3    H256688   3.560   4.482   1.063 -1.3042 -1.3436  0.6513
11733TIP3   OH256689   0.211   0.309   1.156 -0.3712  0.7396 -0.5933
11733TIP3    H156690   0.175   0.360   1.084  0.7205  1.3527 -0.7263
11733TIP3    H256691   0.180   0.353   1.235  0.4900  1.5871 -0.7090
11734TIP3   OH256692   5.540   0.814  13.364 -0.0722 -0.1983 -0.6929
11734TIP3    H156693   5.493   0.807  13.281 -1.5672 -0.9603  0.1622
11734TIP3    H256694   5.480   0.862  13.422  0.5057 -0.5509  0.2210
11735TIP3   OH256695   0.800   5.444  15.333  0.3030  0.0282 -1.1027
11735TIP3    H156696   0.848   5.377  15.380  1.6727  1.2656 -0.6698
11735TIP3    H256697   0.824   5.431  15.241  0.8357  0.1529 -0.9792
11736TIP3   OH256698   4.288   3.174   4.227  0.2048 -0.2783 -0.2061
11736TIP3    H156699   4.306   3.082   4.247 -0.1190 -0.7727 -1.9984
11736TIP3    H256700   4.373   3.217   4.233  0.1332 -0.3339  2.1511
11737TIP3   OH256701   6.563   1.360   0.467  0.5225 -0.2294  0.3043
11737TIP3    H156702   6.606   1.441   0.440  0.3665  0.7727  2.7153
11737TIP3    H256703   6.519   1.328   0.389 -1.9382  3.6852 -0.1755
11738TIP3   OH256704   1.147   3.257   1.856 -0.9475 -0.2331 -0.3029
11738TIP3    H156705   1.236   3.229   1.834 -0.9158 -0.9238  0.6538
11738TIP3    H256706   1.152   3.282   1.949 -1.7302 -0.2032 -0.2618
11739TIP3   OH256707   1.328   4.036   3.737  0.2853 -0.0089  0.2332
11739TIP3    H156708   1.335   3.972   3.808 -0.3673  0.2186  0.5161
11739TIP3    H256709   1.290   3.987   3.665 -1.0047  0.2417  0.7196
11740TIP3   OH256710   1.056   5.947  16.766  0.3025 -0.3733 -0.1521
11740TIP3    H156711   1.148   5.973  16.754  0.8178 -0.4893  2.7637
11740TIP3    H256712   1.044   5.946  16.861 -2.1611 -2.4083 -0.3943
11741TIP3   OH256713   3.277   5.458   4.384 -0.5016 -0.1394 -0.4942
11741TIP3    H156714   3.292   5.385   4.444  0.5232 -0.5082 -1.1812
11741TIP3    H256715   3.355   5.513   4.393  0.2906 -0.8570 -2.3795
11742TIP3   OH256716   2.067   0.635   0.155  0.5886 -0.3832  0.4362
11742TIP3    H156717   2.067   0.564   0.092  2.3269  0.7335 -0.9315
11742TIP3    H256718   2.138   0.614   0.215 -0.0428 -0.6620  1.0955
11743TIP3   OH256719   2.858   0.478  13.968 -0.0485  0.4490  0.6900
11743TIP3    H156720   2.851   0.383  13.972 -3.1532  0.5207 -0.5712
11743TIP3    H256721   2.888   0.503  14.056  0.0235 -1.6157  1.3063
11744TIP3   OH256722   2.386   5.784   5.098 -0.3766  0.0078  0.2825
11744TIP3    H156723   2.296   5.815   5.113 -0.2593  0.1291  0.7432
11744TIP3    H256724   2.400   5.717   5.164  0.3606  0.9894  1.1506
11745TIP3   OH256725   6.335   4.751  12.965  0.7981 -0.6033  0.0806
11745TIP3    H156726   6.243   4.731  12.980  0.6263 -2.5063 -2.6652
11745TIP3    H256727   6.338   4.784  12.875  2.6735  0.7425  0.5717
11746TIP3   OH256728   1.605   5.504  12.781  0.1903  0.1800 -0.4806
11746TIP3    H156729   1.674   5.451  12.741  1.0681  0.5667  0.4859
11746TIP3    H256730   1.624   5.594  12.752  0.7700  0.4459  0.6921
11747TIP3   OH256731   3.350   2.644  11.615 -0.0186 -0.0253 -0.1419
11747TIP3    H156732   3.375   2.551  11.620  0.4692  0.1367  0.5437
11747TIP3    H256733   3.294   2.658  11.691 -1.5991 -0.1803 -1.2194
11748TIP3   OH256734   4.326   3.694   0.239  0.3098 -0.0400 -0.1054
11748TIP3    H156735   4.407   3.683   0.289  0.0296 -1.4182  0.0780
11748TIP3    H256736   4.340   3.642   0.160 -0.4726 -0.4629  0.0325
11749TIP3   OH256737   3.871   1.965   4.438 -0.4948  0.0380 -0.0817
11749TIP3    H156738   3.797   1.925   4.393  0.1120 -0.7274 -0.4311
11749TIP3    H256739   3.948   1.937   4.388  0.1838 -0.7215  1.3201
11750TIP3   OH256740   0.793   3.723   0.623 -0.4343  0.4430  0.1808
11750TIP3    H156741   0.836   3.726   0.537  0.7988 -2.2036  0.6094
11750TIP3    H256742   0.708   3.765   0.608  0.0856  0.8712 -2.0955
11751TIP3   OH256743   3.717   5.297  16.145 -0.2638 -0.0954  0.6561
11751TIP3    H156744   3.628   5.262  16.134 -0.1516  0.2738 -2.1956
11751TIP3    H256745   3.703   5.388  16.174 -0.8571  0.0606 -0.0747
11752TIP3   OH256746   4.635   0.246   3.893  0.3546 -0.4611 -0.2581
11752TIP3    H156747   4.635   0.254   3.989  1.5683 -0.8860 -0.2058
11752TIP3    H256748   4.546   0.221   3.871  0.0531 -0.3389  0.7600
11753TIP3   OH256749   6.245   4.876  14.972 -0.0104 -0.3894 -0.2478
11753TIP3    H156750   6.161   4.912  15.000  0.1041 -1.0486  1.0342
11753TIP3    H256751   6.277   4.938  14.907 -0.3363  1.2014  1.0459
11754TIP3   OH256752   4.538   2.950  13.345 -0.1330  0.0727  0.0952
11754TIP3    H156753   4.597   2.874  13.344  1.2307  1.0909  0.4998
11754TIP3    H256754   4.461   2.918  13.391 -0.2389 -1.5163 -1.0748
11755TIP3   OH256755   3.557   1.072  14.501 -0.1583  0.6103  0.4862
11755TIP3    H156756   3.572   1.019  14.580 -0.4873  0.4363  0.4375
11755TIP3    H256757   3.484   1.130  14.525 -0.2832  0.5321  0.2990
11756TIP3   OH256758   2.493   0.214   6.017  0.4271 -0.2982 -0.4112
11756TIP3    H156759   2.555   0.236   6.087  0.5595 -1.0657 -0.2798
11756TIP3    H256760   2.409   0.248   6.048  0.5100 -0.5200  0.0628
11757TIP3   OH256761   1.221   0.392   3.716 -0.3725 -0.0219  0.5135
11757TIP3    H156762   1.164   0.387   3.639 -0.0378 -0.0708  0.2621
11757TIP3    H256763   1.206   0.310   3.762 -0.3156 -0.1489  0.3098
11758TIP3   OH256764   0.870   0.494   2.371 -0.2389  0.3894  0.1534
11758TIP3    H156765   0.787   0.446   2.376 -0.3492  0.4811 -0.6407
11758TIP3    H256766   0.929   0.436   2.322 -0.4302  1.1129 -0.9819
11759TIP3   OH256767   3.332   4.246   1.476 -0.4389  0.0173 -0.1519
11759TIP3    H156768   3.291   4.184   1.536  1.5561  0.1698  1.4753
11759TIP3    H256769   3.279   4.326   1.485 -0.3458 -0.0442  1.2625
11760TIP3   OH256770   2.643   2.739  16.492 -0.2756 -0.2466  0.8610
11760TIP3    H156771   2.583   2.814  16.494 -1.3403 -1.0751  1.3724
11760TIP3    H256772   2.693   2.745  16.573 -0.9783 -0.5397  1.3365
11761TIP3   OH256773   2.645   5.080   3.867 -0.0159  0.0183  0.0192
11761TIP3    H156774   2.730   5.046   3.893  0.3892  0.5654 -0.5634
11761TIP3    H256775   2.607   5.115   3.947  1.3234  1.9193 -0.1047
11762TIP3   OH256776   0.807   3.661   0.931 -0.2205 -0.1755  0.9234
11762TIP3    H156777   0.825   3.727   0.864  2.1352 -3.2516 -1.7820
11762TIP3    H256778   0.722   3.625   0.908  0.1155 -0.5064  0.1622
11763TIP3   OH256779   0.363   2.970   1.975  0.0568  0.4017 -0.7248
11763TIP3    H156780   0.440   3.017   1.945 -2.0730  4.1237 -1.0119
11763TIP3    H256781   0.295   2.993   1.912 -2.0678  0.0058  1.2603
11764TIP3   OH256782   1.965   5.008  11.431 -0.1020 -0.3880 -0.6867
11764TIP3    H156783   1.915   5.030  11.510  2.4959 -0.8220  1.2129
11764TIP3    H256784   2.047   5.058  11.440  0.2096 -0.3193 -3.2353
11765TIP3   OH256785   5.901   3.768  12.624 -0.4239 -0.0897 -0.2662
11765TIP3    H156786   5.836   3.833  12.596 -0.2974  0.0226 -0.2990
11765TIP3    H256787   5.909   3.782  12.718  1.0427  1.2594 -0.5586
11766TIP3   OH256788   3.604   4.121  13.156  0.0853 -0.3201  0.4426
11766TIP3    H156789   3.568   4.057  13.217  0.9302 -1.7758 -0.5324
11766TIP3    H256790   3.527   4.161  13.115 -0.4590 -0.4194  1.3374
11767TIP3   OH256791   6.448   0.715   5.931  0.0473  0.1626 -0.3807
11767TIP3    H156792   6.423   0.791   5.983  0.2507 -0.7561  1.1292
11767TIP3    H256793   6.385   0.647   5.957  1.7906 -1.1147  0.7698
11768TIP3   OH256794   0.306   4.408   2.053  0.2138  0.4763 -0.0147
11768TIP3    H156795   0.240   4.462   2.009 -1.6681 -0.1186  1.9310
11768TIP3    H256796   0.345   4.465   2.119  0.4728  0.3529 -0.0571
11769TIP3   OH256797   3.809   2.354  12.868 -0.5855  0.5406 -0.0133
11769TIP3    H156798   3.742   2.394  12.813  0.0686  0.8107 -0.6248
11769TIP3    H256799   3.822   2.267  12.830  0.3141  0.9541 -0.6959
11770TIP3   OH256800   1.360   0.465  13.672 -0.1675 -0.3613 -0.2333
11770TIP3    H156801   1.274   0.434  13.644  0.3992 -0.6722 -1.7000
11770TIP3    H256802   1.421   0.426  13.611  1.0456 -0.1923  0.8246
11771TIP3   OH256803   4.304   0.658   3.073  0.2699  0.4671  0.8588
11771TIP3    H156804   4.283   0.688   3.161 -0.3913  0.8279  0.5876
11771TIP3    H256805   4.397   0.636   3.077 -0.1897 -1.5264  2.1995
11772TIP3   OH256806   1.126   1.656   0.122 -0.0301 -0.7669 -0.7306
11772TIP3    H156807   1.056   1.715   0.150 -1.3469 -1.9701 -1.3890
11772TIP3    H256808   1.136   1.594   0.195  0.2421 -0.6898 -0.7020
11773TIP3   OH256809   0.725   3.228   4.875 -0.2590  0.2444  0.2671
11773TIP3    H156810   0.641   3.186   4.890 -0.2559  0.6757  1.6328
11773TIP3    H256811   0.777   3.207   4.953  1.4229 -1.2230 -1.1643
11774TIP3   OH256812   2.342   1.417   2.057 -0.1093  0.2514 -0.6896
11774TIP3    H156813   2.298   1.367   1.988  1.2641 -0.0714 -1.3709
11774TIP3    H256814   2.374   1.495   2.013  2.9889 -1.1106 -1.1360
11775TIP3   OH256815   3.264   4.979   5.693 -0.2892  0.3406 -0.2645
11775TIP3    H156816   3.201   4.914   5.724  0.4422 -0.3817 -0.2484
11775TIP3    H256817   3.340   4.969   5.751 -0.1457  1.1862 -0.2874
11776TIP3   OH256818   2.797   0.453   5.892 -0.4524  0.3257 -0.6057
11776TIP3    H156819   2.718   0.480   5.939 -0.2546 -0.7295  0.3898
11776TIP3    H256820   2.864   0.515   5.919 -0.3304 -0.2985  0.5975
11777TIP3   OH256821   1.166   5.394  12.267 -0.5175  0.3368  0.1834
11777TIP3    H156822   1.192   5.312  12.308  0.4842  1.1332  1.2311
11777TIP3    H256823   1.153   5.373  12.175  0.5514 -0.8297  0.2796
11778TIP3   OH256824   5.263   2.212  16.229 -0.3898 -0.1421  0.4686
11778TIP3    H156825   5.277   2.137  16.287 -0.7043 -1.1930 -0.7906
11778TIP3    H256826   5.170   2.235  16.242 -0.2304  0.2105  1.0423
11779TIP3   OH256827   3.640   5.451   3.711 -0.1374 -0.2861  0.2156
11779TIP3    H156828   3.569   5.509   3.684 -0.5586 -1.3545 -1.1224
11779TIP3    H256829   3.643   5.384   3.643  2.8045  0.2412 -0.3335
11780TIP3   OH256830   1.744   3.509   0.590  0.4369  0.1175 -0.2321
11780TIP3    H156831   1.806   3.522   0.661 -0.0796 -1.7378  0.6299
11780TIP3    H256832   1.676   3.452   0.627  0.8251 -2.0468 -2.5034
11781TIP3   OH256833   6.755   6.581  14.790  0.1132  0.2594  0.1387
11781TIP3    H156834   6.775   6.660  14.841 -0.0539 -0.6510  1.6815
11781TIP3    H256835   6.790   6.509  14.842 -0.9189 -0.8044 -0.5673
11782TIP3   OH256836   1.175   6.559  13.359  0.1531 -0.0299  0.8141
11782TIP3    H156837   1.112   6.511  13.413  2.1928  0.1454  3.5376
11782TIP3    H256838   1.153   6.651  13.372  0.2482 -0.0072  0.8164
11783TIP3   OH256839   0.554   2.775   1.273 -0.6733  0.3362 -0.8072
11783TIP3    H156840   0.537   2.862   1.309 -0.1628 -0.3512  1.2674
11783TIP3    H256841   0.529   2.781   1.181 -0.9464  2.5697 -0.6321
11784TIP3   OH256842   5.580   4.635  11.790  0.4770  0.2381 -0.3219
11784TIP3    H156843   5.656   4.662  11.842 -0.2019  0.6026  0.4909
11784TIP3    H256844   5.504   4.664  11.840 -0.2088  0.8980 -1.6762
11785TIP3   OH256845   6.490   1.832  14.575 -0.7783  0.3696  0.3277
11785TIP3    H156846   6.586   1.824  14.579 -0.8718 -3.0309 -1.0234
11785TIP3    H256847   6.460   1.813  14.664 -0.2574 -2.6846 -0.0487
11786TIP3   OH256848   1.825   2.685   6.715 -0.6314 -0.1212  0.6448
11786TIP3    H156849   1.812   2.599   6.755  0.9793  0.8785  3.5574
11786TIP3    H256850   1.916   2.684   6.684  0.0658  1.0897  2.4624
11787TIP3   OH256851   3.068   4.371   1.157 -0.1430  0.7770  0.0040
11787TIP3    H156852   3.086   4.465   1.168 -1.6078  1.5693 -3.0525
11787TIP3    H256853   3.155   4.331   1.156  0.4680  1.6929  3.3226
11788TIP3   OH256854   2.624   5.770  12.143 -0.3613  0.2808 -0.1079
11788TIP3    H156855   2.638   5.680  12.173  0.7841  0.4729 -0.0181
11788TIP3    H256856   2.668   5.824  12.208 -0.4390  0.8698 -0.5371
11789TIP3   OH256857   1.890   1.134  13.695 -0.2955  0.1348  0.0771
11789TIP3    H156858   1.958   1.100  13.753 -2.0088  0.2988  2.2916
11789TIP3    H256859   1.838   1.058  13.671  0.5091  0.0295 -1.5275
11790TIP3   OH256860   1.569   1.518  11.238 -0.3895 -0.2533 -0.3095
11790TIP3    H156861   1.561   1.483  11.150 -0.4710  1.6038 -1.0917
11790TIP3    H256862   1.662   1.534  11.250 -0.3903 -0.4017 -0.0967
11791TIP3   OH256863   2.468   0.283  15.819 -0.0900  0.4572  0.3689
11791TIP3    H156864   2.427   0.266  15.904  0.0872  2.4244  0.9030
11791TIP3    H256865   2.520   0.362  15.833  1.0697  0.0343 -1.2274
11792TIP3   OH256866   6.460   0.184   2.310 -0.1989 -0.3610  0.4630
11792TIP3    H156867   6.424   0.194   2.397 -1.6845 -0.4732 -0.1089
11792TIP3    H256868   6.526   0.115   2.319  1.4941  1.3375  1.9654
11793TIP3   OH256869   1.912   2.423  16.295 -1.0175 -0.2187 -0.2180
11793TIP3    H156870   1.896   2.384  16.381  0.6417 -0.3735  0.0603
11793TIP3    H256871   1.934   2.349  16.239 -1.3183 -0.0384 -0.5726
11794TIP3   OH256872   1.903   5.491   1.796 -0.1412  0.0776  0.0871
11794TIP3    H156873   1.969   5.561   1.795 -0.5861  0.4903 -0.7061
11794TIP3    H256874   1.948   5.417   1.837  0.2291  0.9259  1.2827
11795TIP3   OH256875   1.091   0.993   3.497  0.3236  0.6015 -0.5916
11795TIP3    H156876   1.170   1.022   3.452  0.0612  0.8444 -0.9033
11795TIP3    H256877   1.097   0.897   3.496 -0.2509  0.5485 -2.2323
11796TIP3   OH256878   6.210   0.884   1.643 -0.0878  0.5049  0.3440
11796TIP3    H156879   6.118   0.892   1.620 -0.1175 -1.3344 -0.3833
11796TIP3    H256880   6.257   0.924   1.569 -0.3001 -0.0138 -0.0837
11797TIP3   OH256881   2.783   4.199  13.138  1.1758  0.1151 -0.3571
11797TIP3    H156882   2.814   4.252  13.212  1.7261 -0.5783 -0.0831
11797TIP3    H256883   2.851   4.133  13.126  0.8155 -0.1225 -1.1258
11798TIP3   OH256884   5.289   1.502  13.286 -0.1135 -0.5875 -0.7414
11798TIP3    H156885   5.206   1.544  13.261  0.7496  1.6045 -0.1378
11798TIP3    H256886   5.337   1.491  13.204  0.4964  1.6025 -0.7235
11799TIP3   OH256887   2.024   1.604   4.412 -0.3680 -0.3292  0.1138
11799TIP3    H156888   2.022   1.689   4.455  1.5079 -0.8740  1.3925
11799TIP3    H256889   2.099   1.609   4.352  1.4849 -1.8755  2.1345
11800TIP3   OH256890   0.563   4.260   3.806  0.3790  0.5829  0.7800
11800TIP3    H156891   0.529   4.334   3.755  0.2827 -0.2965 -0.4917
11800TIP3    H256892   0.511   4.260   3.886 -1.7658  0.0922 -0.5215
11801TIP3   OH256893   3.641   3.054  15.587  0.2913  0.0813  0.0367
11801TIP3    H156894   3.617   3.132  15.637 -2.4732  0.9615 -2.3478
11801TIP3    H256895   3.712   3.083  15.530  0.0304  0.5532 -0.0568
11802TIP3   OH256896   3.724   5.138  12.732 -0.3474 -0.1586 -0.2344
11802TIP3    H156897   3.779   5.214  12.712 -0.4798 -0.5731 -2.4127
11802TIP3    H256898   3.700   5.103  12.647 -0.0645 -2.8218  0.6821
11803TIP3   OH256899   6.000   6.435   2.996  0.1103  0.1031  0.4220
11803TIP3    H156900   5.965   6.374   3.060  1.5474  0.0020  1.1579
11803TIP3    H256901   5.972   6.521   3.026 -0.0662 -0.0280  0.6307
11804TIP3   OH256902   3.964   0.958  14.513  0.5363 -0.1915 -0.3042
11804TIP3    H156903   3.893   0.914  14.467  0.0033  0.7237 -0.3950
11804TIP3    H256904   3.939   1.051  14.512  2.0605  0.2432 -0.9253
11805TIP3   OH256905   5.443   3.742  14.406  0.9721 -0.8238 -0.6002
11805TIP3    H156906   5.508   3.744  14.477  1.2520 -1.8230 -0.8097
11805TIP3    H256907   5.457   3.657  14.364 -1.4136 -1.7081  0.2301
11806TIP3   OH256908   6.764   1.199   1.036  0.0835 -0.8091 -0.3861
11806TIP3    H156909   6.844   1.247   1.014 -0.2668  0.3113  0.6962
11806TIP3    H256910   6.737   1.234   1.121 -2.0860 -0.4396 -1.1582
11807TIP3   OH256911   2.631   2.935   3.871  0.0296  0.1668  0.5307
11807TIP3    H156912   2.724   2.951   3.859 -0.2998  2.3943  0.5509
11807TIP3    H256913   2.604   2.886   3.794  1.0194  0.4625 -0.0132
11808TIP3   OH256914   2.890   5.618  16.836 -0.2283 -0.0678 -0.8944
11808TIP3    H156915   2.965   5.561  16.822  0.5824  0.7137  0.0646
11808TIP3    H256916   2.855   5.591  16.921  1.0022  1.6745  0.2546
11809TIP3   OH256917   4.179   1.629   3.773 -0.3709  0.0539 -0.6123
11809TIP3    H156918   4.262   1.676   3.776  0.4739 -1.3593 -0.4616
11809TIP3    H256919   4.124   1.681   3.715  1.2017  0.1693 -2.0927
11810TIP3   OH256920   2.269   6.461   4.709 -0.4593 -0.0899  0.2631
11810TIP3    H156921   2.233   6.390   4.657 -0.7417  1.4438 -1.7413
11810TIP3    H256922   2.256   6.539   4.656  1.9109  1.1601  1.3704
11811TIP3   OH256923   1.500   5.958  16.471 -0.0026  0.1750  0.3858
11811TIP3    H156924   1.522   5.870  16.500 -1.7579 -0.8987 -1.3720
11811TIP3    H256925   1.549   5.970  16.389 -1.9218 -0.3055 -0.8807
11812TIP3   OH256926   5.804   4.456   2.718 -0.0376  0.1061 -0.3683
11812TIP3    H156927   5.766   4.396   2.653 -0.1272  0.6387 -0.8112
11812TIP3    H256928   5.823   4.400   2.793  0.4462 -0.5938 -1.0004
11813TIP3   OH256929   6.389   6.436  11.070  0.0506  0.0230 -0.1463
11813TIP3    H156930   6.365   6.529  11.065 -0.5139 -0.1721 -1.3381
11813TIP3    H256931   6.462   6.428  11.008  0.8283 -0.1205  0.7686
11814TIP3   OH256932   5.249   5.941   1.947 -0.3472 -0.0737 -0.5034
11814TIP3    H156933   5.231   5.901   2.033  2.2170  1.1040  0.6561
11814TIP3    H256934   5.189   6.016   1.943  1.7669  1.9221  1.8784
11815TIP3   OH256935   3.497   0.684   4.336  0.4501  0.1037 -0.1736
11815TIP3    H156936   3.539   0.726   4.261 -0.1210 -2.3525 -2.0138
11815TIP3    H256937   3.406   0.673   4.309 -0.2016  0.7357  1.6460
11816TIP3   OH256938   1.494   0.455  16.119 -0.1767 -0.2677 -0.2561
11816TIP3    H156939   1.549   0.479  16.044 -1.9588  0.4524 -1.4097
11816TIP3    H256940   1.541   0.489  16.195  1.9317 -1.4470 -0.9325
11817TIP3   OH256941   5.520   6.620   3.611 -0.0239  0.0600  0.2123
11817TIP3    H156942   5.516   6.549   3.548  2.4007  1.1426 -1.3034
11817TIP3    H256943   5.437   6.668   3.599  0.3200  0.1765 -2.1373
11818TIP3   OH256944   4.392   2.030  11.511 -0.2698  0.3659 -0.1520
11818TIP3    H156945   4.479   1.998  11.486 -0.8697 -0.9890 -0.6365
11818TIP3    H256946   4.335   1.953  11.501 -1.5123  1.2145  0.2018
11819TIP3   OH256947   1.261   4.282  12.920 -0.0655 -0.1445  0.4585
11819TIP3    H156948   1.276   4.264  13.012 -0.1895 -0.2752  0.4523
11819TIP3    H256949   1.168   4.263  12.906  0.0199 -0.4098  0.2413
11820TIP3   OH256950   6.449   1.417   5.698  0.1445  0.2347  0.3034
11820TIP3    H156951   6.485   1.374   5.776  0.2411  1.8615  1.2044
11820TIP3    H256952   6.511   1.396   5.628  0.1916 -1.0398  0.6894
11821TIP3   OH256953   6.646   4.229   0.303 -0.0074  0.0458 -0.1030
11821TIP3    H156954   6.649   4.323   0.284 -0.3291 -0.4132 -2.7735
11821TIP3    H256955   6.561   4.217   0.346  0.3193  1.0486  0.8693
11822TIP3   OH256956   1.278   6.028  16.626 -0.0379 -0.4498  0.2948
11822TIP3    H156957   1.365   6.008  16.592 -0.1471 -2.0940  0.8739
11822TIP3    H256958   1.269   6.122  16.615  0.6229 -0.6228 -2.5636
11823TIP3   OH256959   2.893   3.074  14.004  0.0445  0.0860  0.2728
11823TIP3    H156960   2.851   3.159  14.020 -2.0220 -0.4746 -1.6471
11823TIP3    H256961   2.893   3.065  13.909  0.7994 -1.8038  0.4109
11824TIP3   OH256962   0.193   2.192   0.658  0.1050 -0.9589 -0.2130
11824TIP3    H156963   0.276   2.239   0.655 -0.9745  1.5731  3.2326
11824TIP3    H256964   0.147   2.219   0.578  1.7650 -0.8086 -1.1545
11825TIP3   OH256965   3.246   6.025   4.370  0.2571  0.5247 -0.0718
11825TIP3    H156966   3.315   5.999   4.308  0.8603  1.6804  0.0781
11825TIP3    H256967   3.168   6.035   4.316 -0.1835 -2.1164 -0.0426
11826TIP3   OH256968   3.677   3.409   3.476  0.2178  0.6826  0.4841
11826TIP3    H156969   3.724   3.329   3.501 -0.7850  0.3217  1.2513
11826TIP3    H256970   3.692   3.469   3.549  1.2638  1.3410 -0.2504
11827TIP3   OH256971   3.576   2.457   5.512  0.3844  0.5221  0.6168
11827TIP3    H156972   3.556   2.551   5.510  0.4904  0.5710 -1.7814
11827TIP3    H256973   3.671   2.453   5.521  0.6782  0.8041 -1.6679
11828TIP3   OH256974   2.773   5.618  10.657 -0.4202 -0.4978  0.6431
11828TIP3    H156975   2.695   5.673  10.659 -0.9425 -1.1108 -0.9935
11828TIP3    H256976   2.758   5.559  10.583  2.2028  0.2437 -0.5652
11829TIP3   OH256977   0.452   1.300  13.288  0.8124  0.5833  0.2614
11829TIP3    H156978   0.535   1.260  13.264  0.4063 -0.2554  0.1953
11829TIP3    H256979   0.459   1.316  13.382  0.4062 -1.1555  0.6329
11830TIP3   OH256980   0.127   5.234   1.848  0.5756  0.1315  0.6037
11830TIP3    H156981   0.056   5.295   1.869  1.0256  1.4784 -1.4938
11830TIP3    H256982   0.207   5.287   1.856  0.9123  0.2058 -2.1846
11831TIP3   OH256983   0.415   6.022   1.508 -0.7504 -0.6316 -0.3464
11831TIP3    H156984   0.406   5.986   1.420 -4.1531 -0.4934 -0.1597
11831TIP3    H256985   0.372   5.958   1.565 -1.3527  0.7402  0.8107
11832TIP3   OH256986   4.057   5.927   2.695 -0.4303  0.4310  0.1523
11832TIP3    H156987   4.127   5.991   2.709  1.6564 -1.2715 -1.7849
11832TIP3    H256988   4.026   5.944   2.606  0.8270 -1.7210 -0.7770
11833TIP3   OH256989   0.203   2.429   2.433 -0.6722 -0.0070  0.1817
11833TIP3    H156990   0.253   2.363   2.480 -2.3791 -2.3366 -1.0649
11833TIP3    H256991   0.251   2.510   2.446  2.7550 -1.8557  0.0328
11834TIP3   OH256992   5.690   5.895   5.006  0.0476  0.1449  0.2368
11834TIP3    H156993   5.695   5.990   4.995  0.6068  0.0516 -0.3927
11834TIP3    H256994   5.609   5.869   4.962 -0.3498  0.3856  0.8255
11835TIP3   OH256995   5.436   5.837  12.583  0.0496 -0.2506  0.3314
11835TIP3    H156996   5.493   5.771  12.545 -0.0853  0.4880 -1.2130
11835TIP3    H256997   5.437   5.909  12.520 -2.6921 -0.2598  0.1658
11836TIP3   OH256998   3.864   6.204  12.308 -0.0754 -0.2966  0.0663
11836TIP3    H156999   3.811   6.165  12.378 -1.2591 -1.0638 -1.1896
11836TIP3    H257000   3.954   6.182  12.331 -0.3880 -0.0533  1.6209
11837TIP3   OH257001   1.700   2.794  15.514 -0.3232 -0.7898  0.1847
11837TIP3    H157002   1.739   2.707  15.521 -1.9863 -1.5797  0.2300
11837TIP3    H257003   1.620   2.788  15.566 -0.1836  0.9560  0.6493
11838TIP3   OH257004   3.573   4.001   4.432  0.4811 -0.4122  0.4174
11838TIP3    H157005   3.634   3.927   4.424  0.8620 -0.2056  1.2367
11838TIP3    H257006   3.622   4.066   4.483 -0.1034  0.1264  0.2954
11839TIP3   OH257007   4.579   5.304   0.296  0.2470  0.3954  0.4903
11839TIP3    H157008   4.616   5.250   0.227 -0.7326  0.0309  0.2300
11839TIP3    H257009   4.622   5.275   0.376  0.0594 -0.4533  0.2852
11840TIP3   OH257010   0.243   0.492   4.641  0.5662  0.3619  0.2880
11840TIP3    H157011   0.172   0.450   4.690  1.6898 -0.8617  0.9216
11840TIP3    H257012   0.277   0.424   4.583  2.3566  0.3503  1.2614
11841TIP3   OH257013   3.078   4.045   4.508  0.7014  0.4530  0.6496
11841TIP3    H157014   3.027   4.092   4.442  3.1638  1.6783 -0.5075
11841TIP3    H257015   3.147   4.001   4.459  1.1945 -0.6152  2.1978
11842TIP3   OH257016   4.462   2.884   3.750 -0.0344  0.1285  0.1002
11842TIP3    H157017   4.421   2.811   3.704  0.1173  0.0377  0.1102
11842TIP3    H257018   4.488   2.847   3.835 -0.0559  0.2220  0.1483
11843TIP3   OH257019   6.557   4.056   1.777  0.0144  0.2628 -0.2642
11843TIP3    H157020   6.547   4.113   1.701 -1.5728  0.3384 -0.0398
11843TIP3    H257021   6.467   4.032   1.800  0.4725  0.1138  1.4857
11844TIP3   OH257022   5.699   0.339   2.676  0.0288  0.0730  0.1563
11844TIP3    H157023   5.772   0.293   2.633 -1.6025 -0.3762 -2.3396
11844TIP3    H257024   5.622   0.286   2.657 -1.2480  1.4821  1.1145
11845TIP3   OH257025   0.770   2.881   1.939  0.2782 -0.1831 -0.8057
11845TIP3    H157026   0.694   2.909   1.990 -0.3514 -3.5429  0.3419
11845TIP3    H257027   0.822   2.961   1.927 -0.6989  1.2515  3.1067
11846TIP3   OH257028   0.167   5.388   4.556 -0.0730 -0.3457  0.1683
11846TIP3    H157029   0.131   5.444   4.624  0.5692 -1.6449  1.6441
11846TIP3    H257030   0.256   5.422   4.542 -0.8065  1.0857 -1.4367
11847TIP3   OH257031   1.334   1.180   1.682 -0.2265  0.0220  0.6569
11847TIP3    H157032   1.409   1.133   1.720  1.1127  0.7373 -0.9857
11847TIP3    H257033   1.319   1.253   1.741  2.3291  1.5673 -0.4783
11848TIP3   OH257034   4.580   4.715  12.538  0.5294 -0.7934 -0.0656
11848TIP3    H157035   4.561   4.762  12.457  2.1304 -1.2883 -0.7818
11848TIP3    H257036   4.608   4.783  12.599 -1.8114 -0.2610  0.5134
11849TIP3   OH257037   6.135   4.181   3.682 -0.2210  0.2034 -0.0674
11849TIP3    H157038   6.139   4.276   3.671 -2.4452  0.0944 -3.3790
11849TIP3    H257039   6.224   4.151   3.663  0.1481  1.5294 -0.5731
11850TIP3   OH257040   0.992   1.958   5.969  0.1866 -0.3199 -0.3116
11850TIP3    H157041   1.040   1.882   6.002  0.5083 -0.0453 -0.1428
11850TIP3    H257042   0.935   1.984   6.041  0.3650 -0.1624 -0.2246
11851TIP3   OH257043   0.949   3.300   1.384  0.1153 -0.6223 -0.5836
11851TIP3    H157044   0.914   3.243   1.453  2.2682 -1.1284  0.1722
11851TIP3    H257045   0.887   3.372   1.379 -0.4125 -0.8483  1.5208
11852TIP3   OH257046   2.739   6.149   0.749  0.1160 -0.7544 -0.0997
11852TIP3    H157047   2.745   6.139   0.654  2.1822 -0.1010 -0.0953
11852TIP3    H257048   2.732   6.244   0.763  1.6694 -0.6779  0.4022
11853TIP3   OH257049   4.439   4.361  17.169 -0.2649 -0.2465 -0.3115
11853TIP3    H157050   4.479   4.424  17.229 -0.0468  0.4664 -1.1803
11853TIP3    H257051   4.485   4.375  17.086 -2.3863  0.6776 -1.3877
11854TIP3   OH257052   5.013   0.390   4.361  0.3621 -0.2174 -0.0848
11854TIP3    H157053   4.959   0.343   4.424  0.2677 -1.4301 -1.0411
11854TIP3    H257054   5.069   0.447   4.416 -1.9161  1.2125  0.9221
11855TIP3   OH257055   1.522   0.683  11.549 -0.3857 -0.0608 -0.1339
11855TIP3    H157056   1.614   0.664  11.528 -0.0494  2.0212 -0.7973
11855TIP3    H257057   1.526   0.766  11.597 -1.8333 -0.6893  1.1534
11856TIP3   OH257058   1.804   3.867   3.583 -0.4463 -0.0237 -0.5657
11856TIP3    H157059   1.839   3.948   3.546  0.0614 -0.5682 -1.3124
11856TIP3    H257060   1.730   3.895   3.638  0.4934  1.0456  0.1918
11857TIP3   OH257061   5.658   3.777  15.845  0.2293  0.2644 -0.2574
11857TIP3    H157062   5.699   3.711  15.789 -3.0596 -0.8475 -1.5510
11857TIP3    H257063   5.671   3.744  15.934  1.7716 -0.1868 -0.6143
11858TIP3   OH257064   4.199   3.056  13.231  0.2243 -0.3762 -0.4979
11858TIP3    H157065   4.121   3.110  13.248  1.4436  1.3417 -0.1464
11858TIP3    H257066   4.247   3.103  13.164  1.3237 -1.0640 -0.2125
11859TIP3   OH257067   2.004   0.180  14.073 -0.3782 -0.2306 -0.1853
11859TIP3    H157068   1.961   0.118  14.131  0.5553 -2.1293 -1.4277
11859TIP3    H257069   2.080   0.211  14.122  0.5104 -1.9611 -0.4102
11860TIP3   OH257070   5.224   4.493   4.007  0.5459 -0.2524  0.4488
11860TIP3    H157071   5.260   4.580   4.024 -0.2234  0.0328  0.6826
11860TIP3    H257072   5.167   4.477   4.082 -0.1646 -0.4882 -0.1314
11861TIP3   OH257073   6.549   1.145   3.130  0.6191  0.0343  0.0941
11861TIP3    H157074   6.498   1.136   3.210  0.4438 -2.3006 -0.2032
11861TIP3    H257075   6.484   1.152   3.060  0.7013 -0.8556 -0.0876
11862TIP3   OH257076   5.288   0.164  10.725 -0.0762  0.4096 -0.0071
11862TIP3    H157077   5.374   0.204  10.742  0.7146 -0.3803 -1.8293
11862TIP3    H257078   5.285   0.155  10.629 -2.1604  0.3055  0.0267
11863TIP3   OH257079   3.286   5.898  11.727  0.1787 -0.1164  0.0137
11863TIP3    H157080   3.371   5.892  11.682  0.7031  0.7364  0.8667
11863TIP3    H257081   3.297   5.843  11.805  0.3292  0.8414  0.6852
11864TIP3   OH257082   6.737   5.430  16.169 -0.1424  0.6165 -0.8478
11864TIP3    H157083   6.765   5.437  16.261 -1.8886  0.1195 -0.2479
11864TIP3    H257084   6.791   5.495  16.123  0.5142  1.1354  0.5888
11865TIP3   OH257085   4.050   1.913  16.498  0.5339  0.6849  0.3840
11865TIP3    H157086   4.021   1.876  16.582  0.3965  1.4442  0.6851
11865TIP3    H257087   3.974   1.962  16.467  0.7761  0.8800  0.0991
11866TIP3   OH257088   1.154   6.500  14.532 -0.6319  0.1233  0.0276
11866TIP3    H157089   1.197   6.515  14.448 -1.8769 -1.1606 -0.8761
11866TIP3    H257090   1.216   6.446  14.581 -0.4798 -0.2773 -0.5995
11867TIP3   OH257091   4.109   0.419  15.936  0.4432 -0.2731 -0.4432
11867TIP3    H157092   4.019   0.423  15.904  0.5090 -0.0440 -0.6013
11867TIP3    H257093   4.156   0.365  15.872 -0.1396 -2.6058  0.9761
11868TIP3   OH257094   1.674   3.056   6.709  0.4942  0.2062 -0.1642
11868TIP3    H157095   1.632   3.140   6.726  1.1512  0.4236  0.4731
11868TIP3    H257096   1.761   3.079   6.675  0.4460 -0.2227 -0.5962
11869TIP3   OH257097   1.555   5.707  12.363  0.5057 -0.2872 -0.2507
11869TIP3    H157098   1.472   5.673  12.332  0.0047  2.3348 -2.1065
11869TIP3    H257099   1.621   5.655  12.317 -0.1845 -0.1601 -1.4246
11870TIP3   OH257100   0.173   1.463   0.205  0.3150  0.1899  0.0687
11870TIP3    H157101   0.164   1.409   0.283  2.3349  0.1251  0.3145
11870TIP3    H257102   0.232   1.533   0.231 -0.2737  1.0896 -0.9600
11871TIP3   OH257103   3.355   4.015   3.539 -0.4846 -0.1005  0.3623
11871TIP3    H157104   3.321   3.930   3.509  1.0972 -0.0039 -1.9933
11871TIP3    H257105   3.369   4.064   3.458  2.5494  0.8456  1.3513
11872TIP3   OH257106   3.799   5.778  12.671 -0.4233  0.1884  0.3367
11872TIP3    H157107   3.842   5.802  12.753  0.0016  3.1259 -0.6314
11872TIP3    H257108   3.861   5.802  12.602 -1.9794  0.8134 -0.9410
11873TIP3   OH257109   2.277   2.480  12.509 -0.6834 -0.1883 -0.2124
11873TIP3    H157110   2.287   2.385  12.513 -2.4202 -0.4551 -1.3011
11873TIP3    H257111   2.272   2.500  12.416  1.1732  1.1866 -0.0616
11874TIP3   OH257112   2.265   6.089  14.217  0.0562  0.3055 -0.2189
11874TIP3    H157113   2.313   6.085  14.134 -0.9098 -1.2737 -0.7430
11874TIP3    H257114   2.220   6.005  14.223 -2.1195  1.4410  0.5612
11875TIP3   OH257115   6.002   0.659  11.058  0.1293  0.0879  0.1468
11875TIP3    H157116   6.005   0.702  10.973 -0.0898  1.9389  1.0321
11875TIP3    H257117   5.930   0.597  11.050  1.2525 -1.0921 -1.5684
11876TIP3   OH257118   1.016   2.598   0.019 -0.6060  0.1208  0.5958
11876TIP3    H157119   1.027   2.633  -0.070  2.4411  0.7765  1.1512
11876TIP3    H257120   0.994   2.674   0.072  1.5336  0.4848  1.0294
11877TIP3   OH257121   6.506   0.008   3.860  0.2532  0.0425  0.2186
11877TIP3    H157122   6.493   0.052   3.777 -1.2130 -0.1235  0.3411
11877TIP3    H257123   6.585  -0.045   3.847 -0.4924 -0.7350 -1.3836
11878TIP3   OH257124   2.246   2.396   0.875 -0.2308  0.4851 -0.3109
11878TIP3    H157125   2.160   2.402   0.917  0.2811  0.4794  0.7824
11878TIP3    H257126   2.260   2.302   0.861  0.1714  0.3551  0.8066
11879TIP3   OH257127   6.051   4.005   1.291 -0.0526 -0.3930  0.0438
11879TIP3    H157128   6.050   4.009   1.195  0.9096 -1.4940 -0.0324
11879TIP3    H257129   5.958   4.002   1.315 -0.3528  1.0702 -0.7610
11880TIP3   OH257130   4.889   6.203  14.566  0.2179  0.5826 -0.2021
11880TIP3    H157131   4.912   6.293  14.546 -0.9024  1.2551  1.4068
11880TIP3    H257132   4.864   6.165  14.481  0.6159  1.7788 -0.8723
11881TIP3   OH257133   2.468   3.295  11.566 -0.4007  0.4841  0.1868
11881TIP3    H157134   2.452   3.233  11.636  0.7833  0.0415  0.0942
11881TIP3    H257135   2.416   3.262  11.492  2.0289 -1.8594 -0.6411
11882TIP3   OH257136   1.366   4.008  14.209  0.7112 -0.1409 -0.1949
11882TIP3    H157137   1.339   4.097  14.229  1.1473  0.5217 -2.3154
11882TIP3    H257138   1.460   4.013  14.195  0.7688 -0.9748 -0.1984
11883TIP3   OH257139   6.656   3.033   5.560  0.5132  0.1513 -0.5233
11883TIP3    H157140   6.734   3.025   5.505  0.8071 -0.7475  0.0026
11883TIP3    H257141   6.678   2.986   5.640 -0.9528 -1.0886 -0.7980
11884TIP3   OH257142   3.808   4.796  16.436  0.1995  0.2851  0.3524
11884TIP3    H157143   3.790   4.743  16.514  0.6345  1.5138  1.3199
11884TIP3    H257144   3.761   4.878  16.452  0.3394  0.5763 -0.6704
11885TIP3   OH257145   4.637   5.878  13.403 -0.0235 -0.4134 -0.7790
11885TIP3    H157146   4.684   5.946  13.354 -1.6846  0.9761 -0.5396
11885TIP3    H257147   4.672   5.885  13.492 -0.6090  0.5862 -0.6088
11886TIP3   OH257148   2.739   5.120  15.707  0.1190  0.0826  0.0011
11886TIP3    H157149   2.678   5.186  15.739  1.2963  0.3674  1.8178
11886TIP3    H257150   2.756   5.064  15.783  0.2465 -1.4697 -1.1142
11887TIP3   OH257151   5.780   6.778   2.307 -0.5077  0.1237 -0.0983
11887TIP3    H157152   5.709   6.738   2.257 -2.4415  1.0871  1.7129
11887TIP3    H257153   5.768   6.744   2.396  2.8073 -1.5377 -0.1275
11888TIP3   OH257154   3.287   4.669   3.748  0.2109  0.2917 -0.1261
11888TIP3    H157155   3.242   4.595   3.706  0.9090  0.1228 -0.6024
11888TIP3    H257156   3.271   4.743   3.690 -1.3488  0.7855  0.8685
11889TIP3   OH257157   5.840   1.051  16.342  0.5294  0.5629 -0.4393
11889TIP3    H157158   5.880   1.136  16.360 -0.4929  1.2139 -1.2008
11889TIP3    H257159   5.859   0.999  16.420  1.5467  1.3355 -0.1491
11890TIP3   OH257160   0.811   6.470  11.618 -1.0508  0.2420  0.6441
11890TIP3    H157161   0.740   6.474  11.682 -1.9073  0.7763 -0.3082
11890TIP3    H257162   0.889   6.499  11.666 -1.1750 -1.5925  2.0673
11891TIP3   OH257163   1.598   6.531  13.093  0.1166  0.1968  0.8732
11891TIP3    H157164   1.521   6.502  13.142 -0.6995 -0.3567 -0.6674
11891TIP3    H257165   1.564   6.594  13.029  0.9143 -0.1173  0.1125
11892TIP3   OH257166   4.471   0.294   2.192 -0.1237 -0.2084 -0.6697
11892TIP3    H157167   4.380   0.325   2.187 -0.6079 -1.5573 -0.4773
11892TIP3    H257168   4.466   0.214   2.244  0.7497 -1.8848 -3.0103
11893TIP3   OH257169   3.333   5.325  11.650 -0.1172 -0.0642 -0.0704
11893TIP3    H157170   3.331   5.389  11.580 -1.5794  0.3248  0.2931
11893TIP3    H257171   3.363   5.244  11.608  0.7656  0.6031 -0.7431
11894TIP3   OH257172   3.108   1.597   1.092  0.1806 -0.3041 -0.0648
11894TIP3    H157173   3.117   1.523   1.152 -1.6183  1.7635  3.0646
11894TIP3    H257174   3.196   1.636   1.089  0.3147 -0.4178  1.4062
11895TIP3   OH257175   5.787   5.336   3.391  0.1580 -0.1744  0.4779
11895TIP3    H157176   5.748   5.421   3.370 -0.4377 -0.0877  1.8173
11895TIP3    H257177   5.746   5.275   3.329  0.0359  0.3947 -0.0096
11896TIP3   OH257178   1.950   1.826  13.682 -0.4780  0.0784 -0.1087
11896TIP3    H157179   1.999   1.852  13.760 -0.2825 -0.1167 -0.1658
11896TIP3    H257180   1.908   1.907  13.653 -0.0184  0.2986 -0.1798
11897TIP3   OH257181   0.012   1.000  10.694 -0.3464  0.1283 -0.0652
11897TIP3    H157182   0.069   0.950  10.636  1.0560 -0.6108  1.8483
11897TIP3    H257183   0.072   1.055  10.744 -1.7032  2.3521 -0.7504
11898TIP3   OH257184   3.391   6.487  11.836  0.5066 -0.5883 -0.4815
11898TIP3    H157185   3.408   6.522  11.749  2.5458  0.8542  0.3946
11898TIP3    H257186   3.313   6.533  11.866  0.9241  0.3803 -0.8316
11899TIP3   OH257187   1.620   0.828  14.419  0.5169 -0.1945 -0.5478
11899TIP3    H157188   1.545   0.800  14.366 -0.3892 -0.6389  0.9033
11899TIP3    H257189   1.626   0.923  14.403  0.2288 -0.3061 -1.3791
11900TIP3   OH257190   2.414   0.467   3.285 -0.0191  0.1239  0.3087
11900TIP3    H157191   2.468   0.456   3.363 -0.4829  0.1831  0.6386
11900TIP3    H257192   2.369   0.551   3.298 -0.7874 -0.2949  0.4010
11901TIP3   OH257193   1.853   3.230  10.912 -0.3111 -0.5389 -0.0983
11901TIP3    H157194   1.942   3.260  10.891 -0.1104 -0.7784  0.4040
11901TIP3    H257195   1.831   3.274  10.994 -0.0864 -1.5883  0.5428
11902TIP3   OH257196   6.678   1.093  14.073 -0.3905 -0.1410 -0.2684
11902TIP3    H157197   6.636   1.121  14.155 -1.0413 -1.2553 -0.1992
11902TIP3    H257198   6.691   0.999  14.084 -0.9279 -0.3992 -1.6241
11903TIP3   OH257199   4.585   0.558   3.138  0.4113 -0.0980 -0.6708
11903TIP3    H157200   4.610   0.480   3.089  1.9099  0.4892 -0.9126
11903TIP3    H257201   4.596   0.534   3.230  0.4815 -0.3084 -0.7339
11904TIP3   OH257202   5.826   0.536  11.639  0.7621 -0.1485 -0.5635
11904TIP3    H157203   5.842   0.592  11.562 -0.0129 -0.2881 -0.8287
11904TIP3    H257204   5.757   0.476  11.611  0.8623 -0.5605  0.0678
11905TIP3   OH257205   5.574   0.610   1.338 -0.4781 -0.6482 -0.3957
11905TIP3    H157206   5.579   0.635   1.245  1.7047 -0.4420 -0.2778
11905TIP3    H257207   5.572   0.515   1.337  3.5569 -0.9031 -0.7049
11906TIP3   OH257208   1.840   2.940   3.826 -0.0607  0.0134 -0.8282
11906TIP3    H157209   1.879   3.017   3.869 -0.3062  1.0026 -2.3156
11906TIP3    H257210   1.819   2.969   3.737 -0.4282 -1.7007 -1.3520
11907TIP3   OH257211   5.155   2.141  13.928  0.2715 -0.1900 -0.1932
11907TIP3    H157212   5.187   2.054  13.904 -1.0749 -0.8896  0.4047
11907TIP3    H257213   5.216   2.173  13.994  1.3449 -0.2309 -1.1368
11908TIP3   OH257214   1.220   0.021   2.643 -0.3182  0.8072  0.1353
11908TIP3    H157215   1.147   0.078   2.618 -0.6975 -0.1236 -1.0119
11908TIP3    H257216   1.240  -0.028   2.563  0.3466 -0.2784  0.9378
11909TIP3   OH257217   3.186   2.899   2.001  0.6556  0.0161 -0.5816
11909TIP3    H157218   3.264   2.954   1.993  0.9837 -0.3059  0.3245
11909TIP3    H257219   3.140   2.933   2.078  0.8240 -0.9108 -0.0583
11910TIP3   OH257220   3.774   3.656  11.528  0.0312  0.2275  0.5880
11910TIP3    H157221   3.801   3.715  11.599  0.0634 -0.9449  1.5852
11910TIP3    H257222   3.720   3.590  11.571 -2.0808  0.8868 -0.9140
11911TIP3   OH257223   1.205   1.163   4.912  0.3568 -0.0451  0.2903
11911TIP3    H157224   1.212   1.224   4.839  1.1718 -0.6411 -0.1527
11911TIP3    H257225   1.256   1.087   4.884  0.0908 -0.5701  1.1926
11912TIP3   OH257226   0.715   6.348  13.985  0.4849  0.1563  0.0590
11912TIP3    H157227   0.736   6.292  14.060 -0.5467 -0.5336 -0.1509
11912TIP3    H257228   0.619   6.349  13.982  0.4959  1.4940 -0.2808
11913TIP3   OH257229   6.104   4.762  16.507  0.2322  0.2491  0.3294
11913TIP3    H157230   6.128   4.706  16.581 -1.5080 -2.4967 -1.0464
11913TIP3    H257231   6.012   4.784  16.522  0.4087  1.3482 -0.0548
11914TIP3   OH257232   1.340   3.241   3.891 -0.4051 -0.4092  0.3588
11914TIP3    H157233   1.254   3.272   3.920 -0.4384 -0.5737  0.4395
11914TIP3    H257234   1.332   3.146   3.890 -0.2040 -0.4273  0.4262
11915TIP3   OH257235   2.400   0.953   4.139  0.4671  0.0017 -0.5435
11915TIP3    H157236   2.373   1.029   4.191  0.9122 -0.3855  0.2754
11915TIP3    H257237   2.484   0.927   4.177 -0.7588 -2.3446  0.7989
11916TIP3   OH257238   1.002   1.989  13.753 -0.7541  0.2421  0.7320
11916TIP3    H157239   0.964   1.925  13.693  0.2546  0.5906 -0.3171
11916TIP3    H257240   0.927   2.027  13.799 -1.4900 -0.5519  0.2178
11917TIP3   OH257241   5.072   3.991   5.431 -0.2145 -0.2024 -0.0880
11917TIP3    H157242   4.993   4.033   5.464  0.0631  0.9094 -0.7915
11917TIP3    H257243   5.078   4.018   5.340 -0.6583 -2.7696 -0.9644
11918TIP3   OH257244   5.056   4.504   0.022  0.2376 -0.0450  0.0106
11918TIP3    H157245   5.065   4.510  -0.073  0.4034  1.6688  0.1015
11918TIP3    H257246   5.046   4.411   0.039  0.4031 -0.4052 -1.6693
11919TIP3   OH257247   2.551   5.563  10.316  0.1095 -0.8485  0.1639
11919TIP3    H157248   2.616   5.499  10.345  1.1449 -0.5710 -1.4009
11919TIP3    H257249   2.476   5.511  10.289  0.3951 -1.3140  0.2545
11920TIP3   OH257250   0.082   6.812  13.888 -0.3123 -0.3023  0.4809
11920TIP3    H157251   0.106   6.866  13.964 -1.9816 -0.3966  1.1078
11920TIP3    H257252   0.066   6.875  13.818 -0.8158 -0.0697  0.8000
11921TIP3   OH257253   4.539   6.244   5.585 -0.4664 -0.3102 -0.0724
11921TIP3    H157254   4.476   6.197   5.530 -1.5226  1.1584 -0.1803
11921TIP3    H257255   4.555   6.186   5.659  0.7889 -2.2284 -1.7533
11922TIP3   OH257256   5.072   0.793   4.276  0.1959 -0.3436  0.2894
11922TIP3    H157257   5.009   0.832   4.337  0.4389  1.4139 -0.5292
11922TIP3    H257258   5.018   0.750   4.210 -0.2791  2.0559 -1.0059
11923TIP3   OH257259   2.354   5.741  12.884 -0.5808  0.0337  0.5597
11923TIP3    H157260   2.386   5.735  12.794 -0.8647  0.8061  0.4008
11923TIP3    H257261   2.366   5.833  12.908 -1.8704  0.1667  0.7849
11924TIP3   OH257262   1.908   3.212  13.041 -0.0946  0.5711 -0.4552
11924TIP3    H157263   1.990   3.211  12.992  0.7483  0.9633  0.8707
11924TIP3    H257264   1.915   3.137  13.100 -0.9884  0.2271 -0.7749
11925TIP3   OH257265   2.449   2.445  14.969  0.3042 -0.2844 -0.4890
11925TIP3    H157266   2.398   2.416  14.894 -2.2748  0.5068  0.8299
11925TIP3    H257267   2.509   2.510  14.933 -0.4090 -0.4000 -1.9634
11926TIP3   OH257268   0.532   1.764   4.527  0.4470  0.1778 -0.7938
11926TIP3    H157269   0.523   1.855   4.554  2.3496  1.1375 -3.0624
11926TIP3    H257270   0.464   1.752   4.461 -0.1251 -0.2177 -0.1406
11927TIP3   OH257271   6.458   6.040  12.311  0.6258  0.0460 -0.8655
11927TIP3    H157272   6.546   6.024  12.276  0.1828 -0.3275 -1.8633
11927TIP3    H257273   6.463   6.014  12.403  1.4240 -0.4523 -1.0397
11928TIP3   OH257274   4.993   1.994  16.516 -0.3140  0.4288  0.3097
11928TIP3    H157275   5.075   2.019  16.474 -0.1048 -0.4541  0.1751
11928TIP3    H257276   5.013   1.913  16.563 -1.4862 -0.6898 -1.0244
11929TIP3   OH257277   5.862   4.946  11.812 -0.3832 -0.6083  0.2364
11929TIP3    H157278   5.767   4.943  11.806 -0.4284 -0.7181  0.8997
11929TIP3    H257279   5.884   5.039  11.813 -0.5221 -0.5766  0.5388
11930TIP3   OH257280   0.093   1.986  12.919 -0.6409  0.0447  0.3867
11930TIP3    H157281   0.155   1.963  12.849  1.6542  1.0445  1.9525
11930TIP3    H257282   0.137   1.959  12.999 -0.8705  3.4125  1.7994
11931TIP3   OH257283   5.873   4.783   5.313 -0.3853  0.1799  0.2478
11931TIP3    H157284   5.791   4.830   5.300 -1.4975 -1.1784  1.8947
11931TIP3    H257285   5.868   4.750   5.403  1.6485 -0.5718  0.1468
11932TIP3   OH257286   4.469   1.643   3.755  0.0716 -0.2640 -0.4993
11932TIP3    H157287   4.511   1.727   3.772 -0.8745  0.1581 -0.1669
11932TIP3    H257288   4.471   1.635   3.659 -0.3206  0.4033 -0.5733
11933TIP3   OH257289   3.811   0.155  12.813  0.6567  0.0232  0.0510
11933TIP3    H157290   3.757   0.222  12.855  0.3474 -0.5669  0.6253
11933TIP3    H257291   3.812   0.178  12.720 -2.9423 -1.4542 -0.5117
11934TIP3   OH257292   0.317   1.571   5.557 -0.6416  0.5933 -0.7758
11934TIP3    H157293   0.221   1.575   5.548 -0.6661 -0.0012 -0.8216
11934TIP3    H257294   0.346   1.661   5.543 -1.3529  1.1658  1.1909
11935TIP3   OH257295   5.591   0.110  17.195 -0.0503 -0.5769 -0.4474
11935TIP3    H157296   5.505   0.147  17.214 -1.4926 -2.2288 -3.0800
11935TIP3    H257297   5.637   0.180  17.148 -0.0311  0.2058  0.6973
11936TIP3   OH257298   0.315   1.809   3.845  0.0036  0.1966  0.0298
11936TIP3    H157299   0.324   1.734   3.785 -0.5446  1.6837 -2.0445
11936TIP3    H257300   0.223   1.808   3.872 -0.2682  0.6646 -0.8261
11937TIP3   OH257301   2.161   0.274   2.751 -0.4749  0.1644  1.1290
11937TIP3    H157302   2.133   0.312   2.835 -1.6612 -0.5839  1.0927
11937TIP3    H257303   2.085   0.281   2.694  0.8917  2.4585 -0.5825
11938TIP3   OH257304   1.844   2.460   1.958 -0.5131  0.2068 -0.4739
11938TIP3    H157305   1.836   2.544   1.912  0.3277 -0.2766 -1.5494
11938TIP3    H257306   1.844   2.395   1.888  0.8219 -0.5638  0.2149
11939TIP3   OH257307   5.388   1.244  16.574  0.3600 -0.5406 -0.0371
11939TIP3    H157308   5.436   1.165  16.553  1.0809 -0.3001  0.6505
11939TIP3    H257309   5.379   1.242  16.669 -0.8788 -0.5065 -0.1338
11940TIP3   OH257310   5.615   2.042  11.393  0.1305  0.1336 -0.5692
11940TIP3    H157311   5.662   1.974  11.345  1.1498 -0.0034  0.5683
11940TIP3    H257312   5.647   2.034  11.483 -1.7392  0.3604  0.1542
11941TIP3   OH257313   4.647   5.708  11.094  0.1774  0.6026 -0.4311
11941TIP3    H157314   4.584   5.664  11.151  0.6194  1.0855  0.4544
11941TIP3    H257315   4.732   5.672  11.119  0.2838  0.1221 -1.4576
11942TIP3   OH257316   2.568   5.271   4.046 -0.0028  0.3299 -0.5730
11942TIP3    H157317   2.525   5.351   4.017 -1.2413  0.2816  0.9519
11942TIP3    H257318   2.656   5.299   4.072 -0.0974  1.0110 -0.9578
11943TIP3   OH257319   4.414   1.052  16.805 -0.0722 -0.4721  0.0169
11943TIP3    H157320   4.323   1.052  16.773  0.1168 -0.1269 -0.5235
11943TIP3    H257321   4.406   1.023  16.896 -0.6444 -1.1906 -0.2516
11944TIP3   OH257322   5.102   3.121   5.287 -0.2608 -0.0328  0.3304
11944TIP3    H157323   5.053   3.182   5.231  1.2881  0.6236 -0.3771
11944TIP3    H257324   5.159   3.073   5.227  1.0319  0.2818  1.2481
11945TIP3   OH257325   3.668   0.562   3.366  0.1567 -0.2971 -0.4995
11945TIP3    H157326   3.635   0.645   3.331  1.6005 -0.4494 -2.3882
11945TIP3    H257327   3.615   0.495   3.324 -0.1922 -0.3942  0.0801
11946TIP3   OH257328   2.329   3.651  13.939  0.1734  0.2484  0.3053
11946TIP3    H157329   2.255   3.611  13.893  0.4479 -0.6104  0.5958
11946TIP3    H257330   2.318   3.623  14.030  0.7113  0.3377  0.3973
11947TIP3   OH257331   0.724   0.877  15.074  0.4889 -0.1285 -0.8281
11947TIP3    H157332   0.720   0.845  14.984 -0.6491  1.6012 -1.4338
11947TIP3    H257333   0.743   0.799  15.126 -1.0479 -1.5910 -2.3317
11948TIP3   OH257334   5.419   2.649  11.261  0.0035 -0.2496  0.4761
11948TIP3    H157335   5.460   2.672  11.177  0.0283 -0.0924  0.5305
11948TIP3    H257336   5.376   2.730  11.289 -2.0498 -0.9211 -0.5478
11949TIP3   OH257337   4.195   4.974  11.989  0.2071  0.0277 -0.4161
11949TIP3    H157338   4.199   4.954  12.083 -0.0547  0.5080 -0.2944
11949TIP3    H257339   4.121   5.036  11.982  0.2629  0.0358 -0.9289
11950TIP3   OH257340   6.255   6.030   5.721  0.0203  0.0265 -0.2687
11950TIP3    H157341   6.261   6.026   5.626  2.0950 -1.6388 -0.1329
11950TIP3    H257342   6.161   6.036   5.739 -0.4666 -0.4697 -2.3813
11951TIP3   OH257343   3.894   6.732   0.140  0.2953 -0.4303  0.1428
11951TIP3    H157344   3.877   6.807   0.196  0.1613 -0.3709  0.0252
11951TIP3    H257345   3.820   6.673   0.155 -0.2207 -0.0093 -0.6429
11952TIP3   OH257346   6.037   6.604   4.879  0.4364 -0.1485  0.4794
11952TIP3    H157347   5.957   6.631   4.833 -0.4105  0.5035  2.2416
11952TIP3    H257348   6.108   6.636   4.824 -0.5078 -0.3676 -0.9162
11953TIP3   OH257349   1.304   2.729   0.195  0.3986  0.0839  0.2727
11953TIP3    H157350   1.341   2.773   0.118  0.5862 -3.2842 -1.7718
11953TIP3    H257351   1.311   2.636   0.175 -2.0568 -0.9194  3.2651
11954TIP3   OH257352   0.823   5.275  14.831 -0.0171 -0.1299 -0.3440
11954TIP3    H157353   0.823   5.180  14.826 -1.9869 -0.3275  1.7928
11954TIP3    H257354   0.769   5.303  14.757 -0.7306 -0.7874 -0.0903
11955TIP3   OH257355   5.873   6.717   2.968 -0.2749  0.1173 -0.4732
11955TIP3    H157356   5.938   6.739   3.035 -0.3071 -0.0815 -0.3747
11955TIP3    H257357   5.805   6.783   2.978  0.4683  1.0568 -1.3753
11956TIP3   OH257358   5.963   3.130   3.252 -0.1804 -0.0251 -0.2979
11956TIP3    H157359   5.985   3.063   3.316 -0.1375  0.1687 -0.1058
11956TIP3    H257360   6.046   3.173   3.233 -0.3728  0.6960  0.4157
11957TIP3   OH257361   2.058   4.718  14.410 -0.0871  0.2271 -0.4049
11957TIP3    H157362   1.989   4.692  14.349  0.7508  0.0512 -1.2894
11957TIP3    H257363   2.073   4.811  14.391  0.6607  0.0005 -0.9698
11958TIP3   OH257364   0.101   5.011   1.984 -0.3121 -0.0293 -0.2214
11958TIP3    H157365   0.086   5.086   1.926 -0.0880  0.3919  0.2591
11958TIP3    H257366   0.014   4.975   2.001 -0.3729 -0.2131 -0.8903
11959TIP3   OH257367   1.870   5.079   1.572  0.3285 -0.2298 -0.0301
11959TIP3    H157368   1.782   5.051   1.597  0.5151 -0.2081  0.6740
11959TIP3    H257369   1.883   5.042   1.485 -0.1418 -0.7530  0.1163
11960TIP3   OH257370   1.183   4.548   5.409 -0.0316  0.0697 -0.7327
11960TIP3    H157371   1.090   4.565   5.392  0.4542  1.1196 -2.6528
11960TIP3    H257372   1.201   4.591   5.493 -0.7191  2.1798 -1.5965
11961TIP3   OH257373   1.754   5.316  16.427  0.1044 -0.3061  0.6828
11961TIP3    H157374   1.664   5.286  16.443  0.0050 -0.5914 -0.3078
11961TIP3    H257375   1.757   5.404  16.465 -0.3646 -0.5832  1.3937
11962TIP3   OH257376   3.069   0.048  10.707 -0.6802  0.2960  0.2249
11962TIP3    H157377   3.117   0.126  10.681 -0.5091  0.1054 -0.0437
11962TIP3    H257378   2.983   0.058  10.665 -0.3236 -0.1232 -0.6327
11963TIP3   OH257379   2.456   0.479  14.043 -0.1558  0.3239 -0.4812
11963TIP3    H157380   2.467   0.418  13.970 -0.0626 -0.5929  0.2708
11963TIP3    H257381   2.503   0.437  14.116  1.5233  2.1818 -0.4123
11964TIP3   OH257382   3.407   2.860   3.220  0.2487  0.2187 -0.1599
11964TIP3    H157383   3.442   2.819   3.299  2.0237 -1.1326 -1.5657
11964TIP3    H257384   3.426   2.953   3.230 -0.2692  0.1892  1.3189
11965TIP3   OH257385   4.670   4.465   3.885 -0.4848 -0.3187  0.1756
11965TIP3    H157386   4.663   4.500   3.796  0.4558 -1.8528 -0.5530
11965TIP3    H257387   4.700   4.538   3.938 -1.4443  0.7250 -0.6767
11966TIP3   OH257388   2.511   0.098   4.261 -0.5882 -0.1395 -0.1032
11966TIP3    H157389   2.443   0.084   4.327  0.7589  0.7365  1.5582
11966TIP3    H257390   2.589   0.055   4.297 -0.4284 -1.9430 -2.3982
11967TIP3   OH257391   2.624   3.803  14.127 -0.1522  0.3876  0.7555
11967TIP3    H157392   2.598   3.852  14.049 -1.5206  1.0285  1.5849
11967TIP3    H257393   2.557   3.823  14.192  0.7776 -0.3970  2.0077
11968TIP3   OH257394   6.088   5.337  12.393  0.3641  0.1381  0.3361
11968TIP3    H157395   6.007   5.351  12.344  0.7801  0.1673 -0.3657
11968TIP3    H257396   6.093   5.411  12.453 -0.1168  0.1469  0.3694
11969TIP3   OH257397   3.367   6.204   4.557 -0.3698 -0.1146  0.5087
11969TIP3    H157398   3.436   6.233   4.498  0.0569 -0.8086  0.6568
11969TIP3    H257399   3.308   6.152   4.503 -2.2417  2.5808 -0.2244
11970TIP3   OH257400   4.735   5.763  14.125 -0.3623  0.2784 -0.2913
11970TIP3    H157401   4.797   5.783  14.194  3.3805 -2.0013 -2.6053
11970TIP3    H257402   4.670   5.705  14.166  0.6543  0.4535  1.6474
11971TIP3   OH257403   5.467   2.553  16.664 -0.4731 -0.2732  0.0165
11971TIP3    H157404   5.474   2.582  16.574 -0.1617  1.7360  0.6456
11971TIP3    H257405   5.497   2.462  16.662  0.3369 -0.0080 -1.7547
11972TIP3   OH257406   0.675   2.864   4.935 -0.1596  0.4012 -0.0909
11972TIP3    H157407   0.619   2.922   4.882  1.7772  1.0139 -1.5802
11972TIP3    H257408   0.701   2.795   4.875 -0.4240 -0.6577  0.9874
11973TIP3   OH257409   1.934   0.257   5.410 -0.4827 -0.5044  0.1490
11973TIP3    H157410   1.916   0.253   5.504  1.6190  0.3639  0.6420
11973TIP3    H257411   1.928   0.351   5.389  2.0772 -0.2695  0.1437
11974TIP3   OH257412   4.397   4.124   1.918 -0.1350  0.1054  0.3187
11974TIP3    H157413   4.376   4.081   2.001 -0.6760 -0.2852 -0.0129
11974TIP3    H257414   4.470   4.073   1.884 -0.5728 -0.3773  0.0761
11975TIP3   OH257415   4.706   2.941  15.533  0.1994 -0.4792 -0.2028
11975TIP3    H157416   4.691   3.035  15.542  0.9603 -0.2238 -1.3456
11975TIP3    H257417   4.787   2.925  15.580 -1.8246 -1.3211  3.3711
11976TIP3   OH257418   5.545   2.188   4.166  0.0380  0.3441 -0.2690
11976TIP3    H157419   5.592   2.122   4.218 -0.0823  1.0905  0.8195
11976TIP3    H257420   5.611   2.254   4.146  0.1374 -0.0382 -1.2920
11977TIP3   OH257421   3.897   5.457  14.014 -0.1247 -0.4826  0.2696
11977TIP3    H157422   3.808   5.432  13.989 -0.4577 -1.5776  2.2839
11977TIP3    H257423   3.921   5.393  14.082  1.3001  1.1928  1.4219
11978TIP3   OH257424   4.184   1.855   0.383 -0.4329 -0.5027 -0.1658
11978TIP3    H157425   4.197   1.815   0.469  3.4318 -0.9341 -0.7551
11978TIP3    H257426   4.127   1.930   0.400  1.8883  0.7278  3.2928
11979TIP3   OH257427   1.669   3.909   3.045  0.4737  0.0239  0.9502
11979TIP3    H157428   1.607   3.949   2.983  0.5870  0.2300  0.9707
11979TIP3    H257429   1.727   3.980   3.070  1.3563 -0.4023  0.1550
11980TIP3   OH257430   1.372   2.333  12.068 -0.2178 -0.1558 -0.0811
11980TIP3    H157431   1.297   2.389  12.087 -0.9436 -1.3148  0.6151
11980TIP3    H257432   1.405   2.363  11.984 -0.3626  1.5246  0.4330
11981TIP3   OH257433   5.077   6.474   2.369  0.6746  0.5167  0.0954
11981TIP3    H157434   5.125   6.553   2.392 -0.8487  1.1859  1.1073
11981TIP3    H257435   5.019   6.500   2.297  0.1989  0.3278  0.4000
11982TIP3   OH257436   4.628   6.503  10.826 -0.4837  0.4435 -0.0329
11982TIP3    H157437   4.602   6.594  10.810 -0.4309  0.2125 -1.5634
11982TIP3    H257438   4.561   6.451  10.780 -0.8395 -0.3140  1.3061
11983TIP3   OH257439   0.410   1.949   2.997 -0.2272  0.0899  0.6820
11983TIP3    H157440   0.414   1.893   2.919  1.3238  1.8258 -0.5905
11983TIP3    H257441   0.340   2.011   2.978  0.5486  0.8850  0.3812
11984TIP3   OH257442   5.598   3.769  11.163  0.2216 -0.4023 -0.3191
11984TIP3    H157443   5.588   3.853  11.118 -0.3775 -1.1721 -1.6816
11984TIP3    H257444   5.537   3.710  11.118 -0.2596 -1.2837  1.3838
11985TIP3   OH257445   0.718   4.145  16.588  0.5798 -0.4450  0.4027
11985TIP3    H157446   0.798   4.104  16.554  0.3956 -0.5471  0.0827
11985TIP3    H257447   0.737   4.239  16.585  1.2044 -0.5038  1.6419
11986TIP3   OH257448   3.037   2.051  12.447  0.3317 -0.3442 -0.4296
11986TIP3    H157449   3.019   2.128  12.392 -0.2839  0.0728  0.3444
11986TIP3    H257450   3.041   2.086  12.536  2.8578 -0.7420 -0.3006
11987TIP3   OH257451   1.603   1.858   2.551  0.0419 -1.0847 -0.0365
11987TIP3    H157452   1.656   1.922   2.504 -0.7167 -1.2410 -1.1451
11987TIP3    H257453   1.639   1.857   2.639  0.9628 -0.1603 -0.3841
11988TIP3   OH257454   3.444   2.705   3.465 -0.5471 -0.6607 -0.5723
11988TIP3    H157455   3.539   2.697   3.466 -0.1808  2.4494 -0.3215
11988TIP3    H257456   3.418   2.709   3.557 -0.8960 -1.0584 -0.6462
11989TIP3   OH257457   2.116   6.359  13.125 -0.1332 -0.0576 -0.2206
11989TIP3    H157458   2.087   6.269  13.111  1.0240 -0.8163  1.9053
11989TIP3    H257459   2.044   6.412  13.091 -1.4453 -1.7862 -0.3017
11990TIP3   OH257460   6.179   1.084  12.923  0.6324  0.4728 -0.0987
11990TIP3    H157461   6.235   1.161  12.935 -0.8137  1.3353  1.4965
11990TIP3    H257462   6.097   1.106  12.968  0.3092 -2.1651  0.7584
11991TIP3   OH257463   1.914   6.132  13.150 -0.4900 -0.1098  0.1570
11991TIP3    H157464   1.847   6.200  13.150  0.7160  1.1526 -1.2819
11991TIP3    H257465   1.948   6.131  13.239 -1.2703  0.3957  0.4629
11992TIP3   OH257466   5.646   2.912  13.527  0.5803  0.8263  0.4406
11992TIP3    H157467   5.599   2.961  13.459  0.3673  2.0075  1.4049
11992TIP3    H257468   5.735   2.950  13.526  1.1987 -0.5735 -0.5599
11993TIP3   OH257469   1.279   1.684  15.416  0.4283  0.9625 -0.5487
11993TIP3    H157470   1.187   1.700  15.399  0.4511  1.0535 -0.5880
11993TIP3    H257471   1.325   1.754  15.368  0.5463  0.5650 -1.0235
11994TIP3   OH257472   0.682   3.881   5.585 -0.1214 -0.3995  0.2240
11994TIP3    H157473   0.739   3.846   5.517  0.1017  0.8979 -0.2939
11994TIP3    H257474   0.741   3.928   5.644 -0.6967  2.1688 -1.0810
11995TIP3   OH257475   1.022   3.130  14.589 -0.1888  0.4826  0.0865
11995TIP3    H157476   0.949   3.173  14.634 -0.6148  0.0109 -0.1515
11995TIP3    H257477   0.998   3.134  14.496  0.3949  0.8973 -0.0499
11996TIP3   OH257478   4.511   5.480   6.248 -0.2401 -0.2237  0.2170
11996TIP3    H157479   4.478   5.406   6.299 -1.5089 -0.0489 -0.3085
11996TIP3    H257480   4.576   5.442   6.189 -1.1586 -0.9954 -0.3164
11997TIP3   OH257481   3.540   3.377  11.284 -0.4541 -0.7249  0.1361
11997TIP3    H157482   3.606   3.350  11.349 -0.6942  0.6962  1.0236
11997TIP3    H257483   3.571   3.461  11.252 -1.9311  0.0898  0.7396
11998TIP3   OH257484   4.776   6.504  13.609  0.8868 -0.3565 -0.1591
11998TIP3    H157485   4.831   6.517  13.531  1.3449 -0.1355  0.1982
11998TIP3    H257486   4.824   6.440  13.662  1.0887  0.2602  0.4192
11999TIP3   OH257487   6.739   2.504   4.613  0.2827 -0.4005 -0.3746
11999TIP3    H157488   6.764   2.459   4.533  2.6521 -2.7704  1.4962
11999TIP3    H257489   6.673   2.447   4.653 -1.0698  0.8847 -0.6932
12000TIP3   OH257490   5.762   5.803   4.175 -0.2160 -0.1787  0.0049
12000TIP3    H157491   5.849   5.813   4.136 -0.0914  0.2881  0.3893
12000TIP3    H257492   5.739   5.891   4.203 -1.2445 -0.1206 -0.9761
12001TIP3   OH257493   0.152   5.046  16.878 -0.0041 -0.6703 -0.1923
12001TIP3    H157494   0.069   5.034  16.925 -0.4972  0.4977 -0.7318
12001TIP3    H257495   0.201   5.109  16.931 -0.4711  0.4823 -1.0880
12002TIP3   OH257496   2.457   4.873   4.138 -0.2020  0.4136 -0.0161
12002TIP3    H157497   2.386   4.903   4.082 -1.5317 -3.3659 -0.6460
12002TIP3    H257498   2.520   4.834   4.078  0.6999  0.5771  0.8032
12003TIP3   OH257499   6.143   6.783   3.915 -0.1380 -0.4439 -0.0718
12003TIP3    H157500   6.199   6.728   3.970 -0.9958 -1.5649 -0.3038
12003TIP3    H257501   6.080   6.821   3.975 -0.3321 -0.7250 -0.0957
12004TIP3   OH257502   1.725   4.865  16.478 -0.2623 -0.4214 -0.0536
12004TIP3    H157503   1.722   4.861  16.574 -0.6780  1.1826  0.0340
12004TIP3    H257504   1.683   4.784  16.449 -0.9956 -0.4836  1.1376
12005TIP3   OH257505   3.202   1.702  12.689 -0.0038 -0.0276  0.4983
12005TIP3    H157506   3.224   1.763  12.760 -3.3422  1.5751  0.3388
12005TIP3    H257507   3.109   1.683  12.702 -0.4644 -0.5787 -2.8075
12006TIP3   OH257508   0.499   0.622   1.579 -0.1081 -0.0215 -0.2773
12006TIP3    H157509   0.494   0.559   1.508  0.3909  0.0377 -0.3702
12006TIP3    H257510   0.440   0.693   1.553  0.6403  0.3511 -0.9990
12007TIP3   OH257511   5.666   3.415  16.923 -0.0602 -0.8414  0.3508
12007TIP3    H157512   5.617   3.419  16.840 -0.7126 -0.3074  0.7502
12007TIP3    H257513   5.756   3.434  16.898  0.0699 -2.4190 -0.4823
12008TIP3   OH257514   5.977   2.536  10.827  0.2999 -0.1508  0.0174
12008TIP3    H157515   5.989   2.623  10.863  1.4234 -0.4974  0.5423
12008TIP3    H257516   5.907   2.545  10.762 -0.0004  1.0010  0.4881
12009TIP3   OH257517   2.519   1.420   6.676 -0.3215 -0.0905  0.7860
12009TIP3    H157518   2.528   1.502   6.724 -0.8247  0.2121  0.3657
12009TIP3    H257519   2.605   1.378   6.685 -0.3527  0.0259  1.8217
12010TIP3   OH257520   4.672   5.463  14.331 -0.2200 -0.9039 -0.0698
12010TIP3    H157521   4.611   5.528  14.297  0.6209 -0.1040 -0.0819
12010TIP3    H257522   4.697   5.410  14.256  0.9444  0.2932 -0.5575
12011TIP3   OH257523   1.195   4.746   3.848 -0.0565 -0.0008  0.3524
12011TIP3    H157524   1.100   4.759   3.839  0.1006  2.2082  1.1935
12011TIP3    H257525   1.210   4.744   3.943  0.7595 -0.1395  0.2262
12012TIP3   OH257526   1.336   5.678   3.257 -0.5321  0.3066  0.0767
12012TIP3    H157527   1.402   5.725   3.207  0.4734  0.3333  1.3628
12012TIP3    H257528   1.332   5.725   3.341 -0.6842 -0.9264  0.7792
12013TIP3   OH257529   3.093   6.138   5.245 -0.4352 -0.0390  0.0188
12013TIP3    H157530   2.999   6.123   5.236 -0.2792 -1.2926  0.3648
12013TIP3    H257531   3.123   6.069   5.303  0.7521  0.1974 -0.2932
12014TIP3   OH257532   2.644   6.784  15.860  0.6479  0.3268  0.4648
12014TIP3    H157533   2.625   6.709  15.804  1.4922  0.8365 -0.5175
12014TIP3    H257534   2.561   6.831  15.866  0.7712  0.7811 -1.1488
12015TIP3   OH257535   2.836   2.803  12.567 -0.1632  0.1474  0.0514
12015TIP3    H157536   2.890   2.725  12.558  0.1811  0.3490  0.3454
12015TIP3    H257537   2.870   2.864  12.501 -1.2071 -0.3766 -1.0067
12016TIP3   OH257538   0.639   2.447   4.088 -0.5470 -0.0253  0.2473
12016TIP3    H157539   0.641   2.440   4.183 -0.1393  0.0849  0.2534
12016TIP3    H257540   0.719   2.497   4.067  2.0213 -3.9807 -0.4910
12017TIP3   OH257541   1.268   4.709   6.606  0.4569  0.1581 -0.0556
12017TIP3    H157542   1.277   4.752   6.691  0.0051 -1.7498  1.0131
12017TIP3    H257543   1.332   4.638   6.608 -0.3082 -0.5834 -0.8608
12018TIP3   OH257544   2.559   4.161  12.792 -0.4020  0.1877 -0.0177
12018TIP3    H157545   2.523   4.171  12.704 -1.4940 -2.0533  0.0950
12018TIP3    H257546   2.638   4.109  12.780 -0.3932  0.1252  0.2965
12019TIP3   OH257547   4.155   5.318  10.495 -0.3715 -0.4407  0.2208
12019TIP3    H157548   4.074   5.297  10.541  0.5513 -0.6860  1.8458
12019TIP3    H257549   4.199   5.233  10.483 -0.2602 -0.2940 -0.4677
12020TIP3   OH257550   6.788   6.081   2.583 -0.0865  0.0463  0.2054
12020TIP3    H157551   6.856   6.107   2.521 -1.1699  0.8019 -0.6929
12020TIP3    H257552   6.785   6.153   2.646  0.1756 -0.1555  0.4538
12021TIP3   OH257553   0.603   2.874  14.936 -0.2671  0.2635  0.9123
12021TIP3    H157554   0.613   2.952  14.881 -0.6146  0.7490  1.5236
12021TIP3    H257555   0.690   2.834  14.935  0.3905  1.5835  1.9457
12022TIP3   OH257556   0.082   2.056  10.359  0.2971 -0.0168  0.3504
12022TIP3    H157557   0.030   2.134  10.339 -0.7124 -0.7200  0.1775
12022TIP3    H257558   0.021   1.983  10.350  1.3340 -0.8786  0.0653
12023TIP3   OH257559   1.313   0.033  10.751  0.5583 -0.2441 -0.1910
12023TIP3    H157560   1.246   0.023  10.684 -0.6989 -0.3820  1.0341
12023TIP3    H257561   1.343  -0.057  10.769 -0.8808 -0.5034  1.1285
12024TIP3   OH257562   1.935   4.815  13.453  0.3138 -0.6436 -0.2345
12024TIP3    H157563   1.921   4.720  13.453 -0.2675 -0.5662 -0.1014
12024TIP3    H257564   1.953   4.837  13.362 -1.8117 -0.5907 -0.7089
12025TIP3   OH257565   5.661   4.434  13.256  0.6707 -0.3783  0.0758
12025TIP3    H157566   5.624   4.346  13.262 -1.9647  0.7525  2.5383
12025TIP3    H257567   5.623   4.471  13.176  0.7076 -0.9933 -0.2300
12026TIP3   OH257568   1.118   2.371   5.682  0.3427  0.1230  0.1027
12026TIP3    H157569   1.072   2.409   5.756  1.0169  0.0817  0.5579
12026TIP3    H257570   1.106   2.277   5.692  1.5805  0.0245  0.9677
12027TIP3   OH257571   2.718   6.066  12.854  0.1509 -0.2722  0.6370
12027TIP3    H157572   2.654   6.059  12.925 -2.0441  0.4453 -1.1501
12027TIP3    H257573   2.710   5.983  12.807 -0.4002  0.3011 -0.3080
12028TIP3   OH257574   5.423   1.531  16.510 -0.4381  0.1189  0.2388
12028TIP3    H157575   5.426   1.536  16.414 -0.1155  0.0788  0.2434
12028TIP3    H257576   5.406   1.438  16.528  1.6210 -0.3013  0.2372
12029TIP3   OH257577   5.405   0.048   5.602  0.2878 -0.1096 -0.2105
12029TIP3    H157578   5.313   0.026   5.596 -0.1913  1.6304  0.2376
12029TIP3    H257579   5.408   0.143   5.597  2.2701 -0.1671 -2.7179
12030TIP3   OH257580   4.588   5.298  12.314 -0.2341  0.6353  0.1325
12030TIP3    H157581   4.520   5.344  12.265 -0.5378  0.2149  0.1529
12030TIP3    H257582   4.669   5.344  12.291 -0.6766  1.9508  1.0931
12031TIP3   OH257583   0.470   3.157   4.502 -0.6877  0.3702 -0.0138
12031TIP3    H157584   0.537   3.225   4.498  0.1420 -0.4259  0.0132
12031TIP3    H257585   0.390   3.204   4.525 -0.2860  1.4311 -0.7061
12032TIP3   OH257586   5.947   0.986  14.139 -0.8037  0.3616  0.1636
12032TIP3    H157587   5.861   0.986  14.179 -0.7667  2.7813  0.3722
12032TIP3    H257588   6.005   1.022  14.206  0.0622  0.3058 -0.5298
12033TIP3   OH257589   3.019   2.628  12.116 -0.2925  0.0639 -0.2928
12033TIP3    H157590   3.004   2.594  12.027 -3.9806  0.7005 -0.0586
12033TIP3    H257591   2.942   2.600  12.165  0.8786  1.1464  2.3191
12034TIP3   OH257592   1.843   4.983   0.392 -0.1774  0.1753  0.2998
12034TIP3    H157593   1.878   4.913   0.337  0.7652  2.2710 -1.9576
12034TIP3    H257594   1.912   5.049   0.393 -1.8435  1.9965  0.5053
12035TIP3   OH257595   0.780   5.226   0.490  0.3958  0.6198  0.2547
12035TIP3    H157596   0.689   5.247   0.472  0.6425  2.6868  1.0531
12035TIP3    H257597   0.784   5.216   0.585  0.9250  0.1764  0.1888
12036TIP3   OH257598   4.944   1.866   4.881 -0.0951 -0.2124 -0.0838
12036TIP3    H157599   4.881   1.842   4.949 -0.4790 -1.5852 -0.8875
12036TIP3    H257600   5.015   1.802   4.891 -0.1757 -0.4544 -0.9981
12037TIP3   OH257601   0.346   4.712  13.346 -0.0314  0.4031 -0.2660
12037TIP3    H157602   0.361   4.664  13.427  2.1826  0.1818 -0.7309
12037TIP3    H257603   0.432   4.750  13.324 -0.5337  0.4296 -2.5007
12038TIP3   OH257604   4.572   1.664  11.996 -0.3764  0.1640  0.4493
12038TIP3    H157605   4.635   1.592  11.989 -0.1097  0.5542 -1.8499
12038TIP3    H257606   4.540   1.658  12.086  2.2431 -0.6317  1.4511
12039TIP3   OH257607   6.638   6.601  12.982  0.3650  0.1141 -0.0559
12039TIP3    H157608   6.651   6.605  13.077 -0.0986 -0.4830  0.0349
12039TIP3    H257609   6.543   6.598  12.970  0.4382 -0.5719 -0.5039
12040TIP3   OH257610   2.279   1.786   3.137 -0.6608  0.1794 -0.1570
12040TIP3    H157611   2.260   1.738   3.057  1.9059 -0.4610 -0.4732
12040TIP3    H257612   2.303   1.874   3.107  0.2154 -0.0354 -0.1055
12041TIP3   OH257613   5.457   6.793  15.128 -0.2316  0.0559  0.2668
12041TIP3    H157614   5.419   6.880  15.143 -1.2389 -0.0054 -1.6580
12041TIP3    H257615   5.388   6.744  15.084  2.1114  0.1177 -3.9839
12042TIP3   OH257616   1.760   1.218  10.669  0.0660 -0.0102  0.0615
12042TIP3    H157617   1.733   1.168  10.747  0.1399  2.7853  2.0231
12042TIP3    H257618   1.688   1.206  10.607 -0.2779 -1.8317  0.7237
12043TIP3   OH257619   4.182   0.113   5.765 -0.2304 -0.0749 -0.0036
12043TIP3    H157620   4.203   0.025   5.735 -0.1157 -0.0752  0.0752
12043TIP3    H257621   4.245   0.130   5.835 -0.1047  0.1565 -0.1722
12044TIP3   OH257622   6.784   4.392  14.786  0.0208 -0.1086  0.0436
12044TIP3    H157623   6.791   4.446  14.707  1.2218 -0.1286  0.1247
12044TIP3    H257624   6.702   4.343  14.773  0.5068 -0.5868 -1.5102
12045TIP3   OH257625   1.764   5.396   4.969 -0.1646  0.4084  0.1604
12045TIP3    H157626   1.670   5.382   4.957 -0.2885  1.2078  0.1661
12045TIP3    H257627   1.782   5.366   5.058 -0.7033  1.6220  0.6977
12046TIP3   OH257628   6.642   5.236   0.833 -0.5353 -0.4572 -0.5360
12046TIP3    H157629   6.633   5.232   0.929  0.1900 -1.1902 -0.4826
12046TIP3    H257630   6.562   5.196   0.800 -0.3720 -1.0749 -0.2075
12047TIP3   OH257631   0.104   1.416   4.961 -0.0496  0.0694 -0.1250
12047TIP3    H157632   0.146   1.398   4.877 -2.5869 -2.1459 -1.0858
12047TIP3    H257633   0.138   1.349   5.020 -1.5801 -1.3208 -0.7323
12048TIP3   OH257634   2.144   6.019   6.531  0.2708  0.2319  0.9843
12048TIP3    H157635   2.237   6.037   6.544  0.7027 -1.1036 -0.0366
12048TIP3    H257636   2.131   5.933   6.570 -0.2915 -0.0696  0.1497
12049TIP3   OH257637   4.268   6.505   2.797  0.3279  0.0082  0.5387
12049TIP3    H157638   4.183   6.518   2.755  0.8718  1.5505 -0.1663
12049TIP3    H257639   4.254   6.533   2.888 -0.7420 -2.9431  1.3891
12050TIP3   OH257640   6.715   0.142   0.079 -0.2085 -0.3991  0.6115
12050TIP3    H157641   6.713   0.213   0.144 -1.3566  0.3892 -0.2559
12050TIP3    H257642   6.796   0.094   0.099  0.6606  1.2100  1.1654
12051TIP3   OH257643   5.582   2.848  14.756  0.1044 -0.0802 -0.5120
12051TIP3    H157644   5.667   2.885  14.779  0.5144 -0.3141 -1.6184
12051TIP3    H257645   5.546   2.818  14.840  1.1298 -0.0243 -0.0387
12052TIP3   OH257646   0.843   2.439   3.745 -0.2191 -0.6926 -0.2332
12052TIP3    H157647   0.913   2.393   3.698  0.1184 -0.5194  0.0940
12052TIP3    H257648   0.827   2.384   3.822  1.0781  0.3546  0.8494
12053TIP3   OH257649   3.551   3.729   5.007 -0.2214 -0.1734 -0.1602
12053TIP3    H157650   3.578   3.730   5.099 -1.9262 -0.8468  0.4039
12053TIP3    H257651   3.582   3.812   4.972  0.4897  0.0854  1.0171
12054TIP3   OH257652   3.204   5.919  15.440  0.4427 -0.2954  0.6958
12054TIP3    H157653   3.178   5.827  15.443  1.0666 -0.4948  0.2311
12054TIP3    H257654   3.126   5.967  15.467  0.2003 -0.9723  1.2528
12055TIP3   OH257655   3.926   0.326  16.386  0.0661 -0.4345  0.2175
12055TIP3    H157656   3.956   0.380  16.460  0.6527  1.8966 -1.6131
12055TIP3    H257657   3.842   0.364  16.362 -0.1836 -1.2715 -0.2522
12056TIP3   OH257658   4.136   4.131   5.860  0.4280 -0.7331 -0.2866
12056TIP3    H157659   4.201   4.068   5.827  2.7354  0.4401  1.7491
12056TIP3    H257660   4.178   4.173   5.935 -1.5656  2.2258 -0.6438
12057TIP3   OH257661   2.544   3.319   4.256 -0.4519  0.1707  0.3568
12057TIP3    H157662   2.574   3.408   4.272 -1.0525  0.3973  0.2479
12057TIP3    H257663   2.513   3.289   4.342  1.9454 -0.8178  0.9810
12058TIP3   OH257664   5.509   5.046  10.654  0.1406 -0.5421  0.1811
12058TIP3    H157665   5.530   5.139  10.664 -0.3577 -0.5180  1.1216
12058TIP3    H257666   5.444   5.044  10.584 -1.0082  0.0014  1.1917
12059TIP3   OH257667   1.197   5.070  15.187  0.1399 -0.5996 -0.5870
12059TIP3    H157668   1.252   5.122  15.245  0.8759 -1.5548 -0.4112
12059TIP3    H257669   1.238   4.983  15.186 -1.2652 -1.2935 -0.5746
12060TIP3   OH257670   4.245   2.814  15.301 -0.2526  0.4756 -0.5962
12060TIP3    H157671   4.303   2.890  15.307 -1.5572  1.4951 -0.6235
12060TIP3    H257672   4.172   2.843  15.247  0.5334 -1.6877 -3.0451
12061TIP3   OH257673   1.351   6.158  11.739 -0.1003 -0.1098 -0.1562
12061TIP3    H157674   1.414   6.180  11.807  1.3214 -1.4821 -0.9856
12061TIP3    H257675   1.281   6.112  11.785 -1.4874  2.9300  1.0616
12062TIP3   OH257676   1.332   3.651  14.728  0.5672  0.2015 -0.2413
12062TIP3    H157677   1.327   3.600  14.647  0.6186  2.6856 -1.9103
12062TIP3    H257678   1.245   3.688  14.738  0.4470 -0.3973  1.1035
12063TIP3   OH257679   6.098   2.305  13.083 -0.4664 -0.7870 -0.4260
12063TIP3    H157680   6.193   2.320  13.076 -0.4757 -0.9150 -0.8218
12063TIP3    H257681   6.088   2.254  13.163 -0.3018  0.1336  0.2042
12064TIP3   OH257682   1.658   2.247   5.406  0.1443 -0.5842  0.1169
12064TIP3    H157683   1.741   2.216   5.443  0.9984 -1.1278 -2.1170
12064TIP3    H257684   1.603   2.169   5.401 -0.7010 -0.1674  1.8999
12065TIP3   OH257685   4.471   3.163   2.870  0.0049  0.3630 -0.3616
12065TIP3    H157686   4.540   3.106   2.904  1.2888  2.2425  0.3352
12065TIP3    H257687   4.396   3.105   2.859  1.5408 -1.7021 -0.7840
12066TIP3   OH257688   0.284   2.214   4.886 -0.0822  0.8115 -0.3415
12066TIP3    H157689   0.237   2.292   4.916  1.5504  1.7204  0.0002
12066TIP3    H257690   0.377   2.236   4.898  0.4462 -0.9235 -0.9114
12067TIP3   OH257691   1.568   4.883   2.165  0.2483 -0.0792 -1.4494
12067TIP3    H157692   1.532   4.822   2.229  0.4465 -0.7368 -1.9533
12067TIP3    H257693   1.516   4.963   2.177  0.9007  0.1456  0.1663
12068TIP3   OH257694   3.243   0.512   1.971  0.0112  0.4805  0.1435
12068TIP3    H157695   3.338   0.523   1.972  0.0744 -0.0254  0.4820
12068TIP3    H257696   3.229   0.425   2.009 -0.5846  0.5271  0.0441
12069TIP3   OH257697   4.285   6.121  15.116  0.1989 -0.4745 -0.0582
12069TIP3    H157698   4.380   6.121  15.117  0.2419  1.1013  1.6528
12069TIP3    H257699   4.261   6.192  15.056  0.0686 -1.0829 -0.7457
12070TIP3   OH257700   4.091   3.956   1.001 -0.0618  0.2911 -0.6411
12070TIP3    H157701   4.176   3.999   1.007 -0.3437  0.6320  2.2600
12070TIP3    H257702   4.051   3.992   0.922  1.8542  1.2802 -1.2133
12071TIP3   OH257703   2.140   0.312   4.566  0.8882 -0.3809 -0.2121
12071TIP3    H157704   2.065   0.333   4.622  0.7897 -0.6013 -0.2617
12071TIP3    H257705   2.145   0.384   4.504 -0.6189 -1.4096 -1.6195
12072TIP3   OH257706   3.559   2.915   0.935 -0.2807 -0.1959 -0.3111
12072TIP3    H157707   3.535   3.005   0.955  1.3799  0.9056 -2.7982
12072TIP3    H257708   3.485   2.880   0.885 -0.3881  0.2308 -0.4549
12073TIP3   OH257709   0.633   4.833   4.541  0.9941 -0.3026  0.7642
12073TIP3    H157710   0.632   4.754   4.594  0.1397 -1.1752 -0.5068
12073TIP3    H257711   0.569   4.891   4.583 -1.0237 -1.6796 -0.2734
12074TIP3   OH257712   6.044   6.730   5.972  0.1412 -0.2916 -0.2825
12074TIP3    H157713   6.051   6.812   6.021  0.4841  0.0012 -0.8049
12074TIP3    H257714   6.077   6.663   6.032 -1.0337 -0.1961  0.4913
12075TIP3   OH257715   4.163   4.989   1.461 -0.4851  0.2610  0.6808
12075TIP3    H157716   4.165   4.902   1.502 -1.9846  0.0327  0.3055
12075TIP3    H257717   4.234   5.036   1.504  0.1105 -1.0193  1.1741
12076TIP3   OH257718   3.186   4.748  14.351  0.2629 -0.2171 -0.1317
12076TIP3    H157719   3.273   4.713  14.370 -0.1888 -1.3587 -0.0932
12076TIP3    H257720   3.126   4.697  14.406 -0.5094  0.0705 -0.6778
12077TIP3   OH257721   4.944   3.159  16.915 -0.1086 -0.0370 -0.3671
12077TIP3    H157722   4.935   3.251  16.892  0.2020 -0.2607 -1.3980
12077TIP3    H257723   4.874   3.115  16.867  0.7567 -0.5504 -1.1917
12078TIP3   OH257724   6.361   2.999   2.813  0.1116  0.5134  0.0596
12078TIP3    H157725   6.394   3.088   2.826 -0.7783  0.8192  0.3285
12078TIP3    H257726   6.317   3.002   2.728 -0.4036  0.4971  0.3170
12079TIP3   OH257727   4.197   2.273   3.093 -0.0717  0.1390  0.0290
12079TIP3    H157728   4.182   2.178   3.099 -2.5396  0.4452 -0.1712
12079TIP3    H257729   4.173   2.295   3.003  0.9614  0.9060 -0.0701
12080TIP3   OH257730   0.691   6.809   1.565 -1.0994  0.0776 -0.2115
12080TIP3    H157731   0.777   6.830   1.602 -1.1312  0.5030 -0.3816
12080TIP3    H257732   0.704   6.816   1.470 -1.8600  2.2810 -0.2040
12081TIP3   OH257733   4.586   2.533  10.972  0.2399 -0.0908  0.1703
12081TIP3    H157734   4.632   2.617  10.982 -0.5698  0.6421 -1.7291
12081TIP3    H257735   4.493   2.557  10.971 -0.1246 -1.2924  1.7169
12082TIP3   OH257736   1.590   6.575  13.530  0.0834  0.8906  0.0142
12082TIP3    H157737   1.563   6.629  13.456 -2.6764 -1.5064 -0.9138
12082TIP3    H257738   1.682   6.553  13.512  0.4276  2.8753 -0.9842
12083TIP3   OH257739   4.869   2.158  12.934  0.0612  0.5017 -0.1603
12083TIP3    H157740   4.919   2.109  13.000 -0.5734 -0.4716 -0.3791
12083TIP3    H257741   4.851   2.242  12.976 -0.5393 -0.1828  1.0350
12084TIP3   OH257742   0.877   0.769   1.551 -0.0385 -0.2162  0.5011
12084TIP3    H157743   0.830   0.744   1.471 -0.3659  4.6440 -1.1740
12084TIP3    H257744   0.964   0.731   1.541  0.1577  0.8181 -2.6374
12085TIP3   OH257745   5.742   6.484   1.942  0.1295 -0.1460  0.0665
12085TIP3    H157746   5.709   6.448   2.024  1.6550  0.3263  0.9325
12085TIP3    H257747   5.711   6.575   1.942  0.5435 -0.0028  0.3691
12086TIP3   OH257748   0.313   2.690  15.774  0.1673  0.7876 -0.8167
12086TIP3    H157749   0.360   2.670  15.693 -1.4264  0.1553 -1.6361
12086TIP3    H257750   0.262   2.611  15.792  0.5026  0.9130  0.8305
12087TIP3   OH257751   6.532   0.973   5.546  0.3281 -0.0961  0.3647
12087TIP3    H157752   6.474   1.001   5.616 -1.0316  2.5897 -1.6422
12087TIP3    H257753   6.606   1.035   5.551  0.2360  0.0930 -0.5161
12088TIP3   OH257754   2.280   4.746   6.118  0.2844  0.2765 -0.7864
12088TIP3    H157755   2.358   4.799   6.136 -0.7708  1.4049  0.8109
12088TIP3    H257756   2.266   4.696   6.199 -1.7354  1.6219 -0.2224
12089TIP3   OH257757   5.361   3.249  14.900  0.0349 -0.3333  0.2877
12089TIP3    H157758   5.344   3.193  14.976  1.0808 -0.5702  0.3592
12089TIP3    H257759   5.317   3.331  14.920  0.6238 -0.2593  1.3276
12090TIP3   OH257760   6.218   0.129   2.871  0.2008 -0.6500  0.3354
12090TIP3    H157761   6.239   0.153   2.781 -1.1667 -0.7901 -0.0460
12090TIP3    H257762   6.124   0.147   2.880  0.0792 -1.6373  1.3952
12091TIP3   OH257763   3.492   6.283   2.026 -0.3422  0.0636 -0.0353
12091TIP3    H157764   3.536   6.210   2.070 -1.2553 -0.3825  0.1698
12091TIP3    H257765   3.501   6.263   1.933  1.2807  0.8231 -0.0843
12092TIP3   OH257766   4.610   1.160  15.542 -1.1562 -0.3006 -0.0967
12092TIP3    H157767   4.559   1.123  15.615 -0.3783  0.9114  1.1196
12092TIP3    H257768   4.547   1.169  15.471 -2.2988 -0.2173  0.8901
12093TIP3   OH257769   3.981   3.014  12.255  0.7037  0.2400  0.2377
12093TIP3    H157770   3.970   2.982  12.165  0.7328 -0.6106  0.5242
12093TIP3    H257771   4.042   2.952  12.295 -1.2562 -0.9569  1.5894
12094TIP3   OH257772   5.508   1.354  15.654 -0.4936 -0.3841  0.0684
12094TIP3    H157773   5.510   1.368  15.560 -0.9946 -2.1168 -0.2267
12094TIP3    H257774   5.472   1.266  15.665 -2.1190  0.4485  1.9566
12095TIP3   OH257775   5.465   0.056   4.698  0.0377 -0.0288 -0.1400
12095TIP3    H157776   5.507  -0.021   4.736 -0.7325  0.7101  2.4112
12095TIP3    H257777   5.401   0.019   4.636  1.8557 -1.2628 -1.3780
12096TIP3   OH257778   5.217   0.489   4.511  0.2877 -0.4153 -0.0892
12096TIP3    H157779   5.222   0.393   4.508 -2.0852 -0.6471  1.3319
12096TIP3    H257780   5.282   0.518   4.446  1.8728 -2.9300  0.2328
12097TIP3   OH257781   6.537   0.020  14.540  0.1700  0.2634  0.3468
12097TIP3    H157782   6.562  -0.056  14.593  0.9184  0.6809  0.6027
12097TIP3    H257783   6.619   0.067  14.525 -0.0699  0.3178 -0.9273
12098TIP3   OH257784   3.266   3.149   6.854 -0.0358  0.1948 -0.0290
12098TIP3    H157785   3.211   3.124   6.780  1.5749 -0.2132 -1.1641
12098TIP3    H257786   3.253   3.243   6.863 -1.1862  0.0480 -0.0089
12099TIP3   OH257787   4.108   3.620   5.224  0.5447  0.1180  0.4203
12099TIP3    H157788   4.076   3.617   5.134  1.5366  2.8728 -0.1071
12099TIP3    H257789   4.155   3.537   5.235  1.0985  0.0558 -1.8863
12100TIP3   OH257790   5.412   2.391  14.278 -0.0473  0.7737 -0.1106
12100TIP3    H157791   5.357   2.355  14.348  0.1159 -0.9270 -0.8037
12100TIP3    H257792   5.354   2.396  14.202  0.9666 -2.5616 -1.3095
12101TIP3   OH257793   0.680   2.335  12.608  0.7683  0.4277 -0.0305
12101TIP3    H157794   0.585   2.346  12.608  0.8168  0.8858  0.2868
12101TIP3    H257795   0.696   2.266  12.672  0.5688 -0.4769 -0.9338
12102TIP3   OH257796   3.943   3.984   5.263  0.5255  1.3820  0.4923
12102TIP3    H157797   3.928   4.021   5.350 -2.0021  1.9789 -0.1055
12102TIP3    H257798   3.982   4.055   5.212 -0.7382  2.0298  0.3870
12103TIP3   OH257799   6.742   5.545  16.955  0.3720 -0.1323  0.4357
12103TIP3    H157800   6.791   5.474  16.914  0.1048 -1.0325  1.6310
12103TIP3    H257801   6.791   5.624  16.934  0.7222 -0.6627 -0.8446
12104TIP3   OH257802   1.031   3.947   5.344 -0.6277 -0.2901  0.0871
12104TIP3    H157803   1.055   4.029   5.300 -0.6012 -0.1350  0.3864
12104TIP3    H257804   1.011   3.886   5.272 -1.3545  0.1872 -0.1356
12105TIP3   OH257805   4.907   6.172   5.860 -0.1145  0.1450 -0.0008
12105TIP3    H157806   4.932   6.191   5.950  0.7035 -0.2253 -0.1437
12105TIP3    H257807   4.988   6.183   5.809 -0.0790 -1.6738 -0.3798
12106TIP3   OH257808   3.383   4.820  15.420  0.3081 -0.1698 -0.3002
12106TIP3    H157809   3.463   4.794  15.465  0.1349 -0.3129 -0.0684
12106TIP3    H257810   3.382   4.915  15.425 -0.8461 -0.2162  2.0557
12107TIP3   OH257811   6.619   6.472  13.999 -0.0393 -0.4371  0.2961
12107TIP3    H157812   6.585   6.386  14.025  0.6900 -0.6043  0.7310
12107TIP3    H257813   6.545   6.531  14.010 -0.6076 -1.0388 -0.1924
12108TIP3   OH257814   5.626   0.844  12.320 -0.0334  0.8617 -0.3924
12108TIP3    H157815   5.578   0.762  12.332 -0.1572  0.8629 -0.8539
12108TIP3    H257816   5.590   0.882  12.240  0.4356  1.0748 -0.5100
12109TIP3   OH257817   2.678   5.698   2.284  0.1646  0.1903 -0.3190
12109TIP3    H157818   2.618   5.715   2.357 -1.1335  0.2484 -1.3612
12109TIP3    H257819   2.678   5.780   2.234  0.2212 -0.1833 -0.9376
12110TIP3   OH257820   3.266   1.394   2.084 -0.0935 -0.4046 -0.1117
12110TIP3    H157821   3.357   1.368   2.103 -0.6070 -0.5625  2.5715
12110TIP3    H257822   3.272   1.445   2.004  2.5051  0.3064  0.4362
12111TIP3   OH257823   6.020   1.421   4.933 -0.8034  0.4907 -0.0081
12111TIP3    H157824   5.973   1.375   5.002 -2.3659  0.3839 -1.1065
12111TIP3    H257825   5.983   1.388   4.852  1.4721  0.1074 -0.9607
12112TIP3   OH257826   5.452   0.641  10.967 -0.1774 -1.2693 -0.3594
12112TIP3    H157827   5.431   0.596  10.885  0.5710  0.9420 -1.8374
12112TIP3    H257828   5.547   0.653  10.965 -0.2247 -0.5989  0.5162
12113TIP3   OH257829   3.770   4.087  11.585  0.4578  0.1139 -0.3404
12113TIP3    H157830   3.853   4.040  11.591  1.3633  1.6527 -0.1698
12113TIP3    H257831   3.735   4.085  11.674  0.4692 -0.2708 -0.3444
12114TIP3   OH257832   0.477   3.491   3.630  0.3852  0.7045  0.4575
12114TIP3    H157833   0.521   3.406   3.629  1.4469  1.2322 -1.7077
12114TIP3    H257834   0.408   3.483   3.564 -0.3703  1.1339  1.1719
12115TIP3   OH257835   6.218   2.928   4.898  0.3305  0.0387  0.4827
12115TIP3    H157836   6.304   2.965   4.920  0.4504 -0.2664  0.5387
12115TIP3    H257837   6.236   2.870   4.823  0.0376  0.5743 -0.0098
12116TIP3   OH257838   5.950   1.608  12.680 -0.7767 -0.0185  0.0324
12116TIP3    H157839   5.936   1.610  12.774  0.1074  0.0382  0.1634
12116TIP3    H257840   6.036   1.647  12.666 -0.7581 -0.3061 -0.7690
12117TIP3   OH257841   0.987   5.063   0.195  0.0408 -0.4636  0.2799
12117TIP3    H157842   0.981   5.149   0.236  0.3132  0.2466 -1.0983
12117TIP3    H257843   1.052   5.016   0.247 -1.5678 -0.6008  2.2870
12118TIP3   OH257844   6.549   4.352   5.802 -0.4079 -0.7096 -0.7939
12118TIP3    H157845   6.492   4.422   5.835 -0.3578 -1.4944  1.0889
12118TIP3    H257846   6.611   4.397   5.746 -0.6295  0.7155  0.0391
12119TIP3   OH257847   5.406   2.409   6.332  0.3209 -0.2954 -0.4449
12119TIP3    H157848   5.426   2.414   6.425  2.5361 -0.8889 -0.8417
12119TIP3    H257849   5.402   2.501   6.304 -2.5929 -0.0053  0.5817
12120TIP3   OH257850   3.313   1.235   1.740  0.0306  0.1602  0.1610
12120TIP3    H157851   3.392   1.232   1.793  0.0475  3.0527  0.4424
12120TIP3    H257852   3.344   1.238   1.650  0.1923  0.1366  0.2155
12121TIP3   OH257853   2.852   0.019   5.105 -0.3248 -0.2241  0.0830
12121TIP3    H157854   2.858   0.083   5.176  2.5835  1.7698 -1.7367
12121TIP3    H257855   2.922  -0.043   5.122  0.1266  0.0308 -0.7903
12122TIP3   OH257856   4.793   4.503   4.902  0.4394  0.2003 -0.4576
12122TIP3    H157857   4.794   4.524   4.809 -1.5367  1.9601 -0.1578
12122TIP3    H257858   4.884   4.482   4.923  1.2781  1.6247 -2.3935
12123TIP3   OH257859   4.762   1.293   5.419  0.4603 -0.0543  0.3307
12123TIP3    H157860   4.682   1.251   5.389  1.3754 -2.0628  0.5005
12123TIP3    H257861   4.733   1.358   5.483 -1.0631 -0.0801 -0.2868
12124TIP3   OH257862   2.311   5.220   3.987 -0.0537  0.8101 -0.6081
12124TIP3    H157863   2.396   5.210   4.030 -0.7397  0.6684  0.7797
12124TIP3    H257864   2.330   5.269   3.907  1.1548  1.8641  0.2871
12125TIP3   OH257865   0.792   0.450  16.579  0.2050 -0.1862 -0.4967
12125TIP3    H157866   0.698   0.455  16.557 -0.3924 -0.9895  1.6153
12125TIP3    H257867   0.835   0.439  16.495 -1.7196 -1.1038 -1.4340
12126TIP3   OH257868   4.100   2.402  10.636  0.1140  0.6487  0.0778
12126TIP3    H157869   4.031   2.424  10.698 -0.2864  2.2432 -0.8614
12126TIP3    H257870   4.059   2.340  10.576  0.3846 -0.5925  1.1260
12127TIP3   OH257871   1.131   5.945   3.510 -0.2571  0.7175 -0.5498
12127TIP3    H157872   1.160   5.924   3.421 -0.3774  0.5821 -0.5564
12127TIP3    H257873   1.037   5.930   3.509 -0.1681  0.1153 -0.2280
12128TIP3   OH257874   0.910   4.235   2.865  0.5124  0.6407  0.5303
12128TIP3    H157875   0.989   4.232   2.811  0.0318 -3.2690 -0.2708
12128TIP3    H257876   0.866   4.316   2.839  1.8985  0.5164 -2.6459
12129TIP3   OH257877   4.157   3.233  15.672 -0.3021 -0.5082 -0.2760
12129TIP3    H157878   4.113   3.162  15.717  2.0319 -1.1860  1.1176
12129TIP3    H257879   4.179   3.296  15.740 -1.0362  0.8656 -1.2657
12130TIP3   OH257880   1.997   6.526   4.308  0.3690 -0.4649  0.9709
12130TIP3    H157881   2.078   6.482   4.284  0.6629  0.3254  0.4533
12130TIP3    H257882   2.024   6.590   4.374 -0.4659 -2.7922  3.7604
12131TIP3   OH257883   4.541   4.579   2.745 -0.2474  0.4140  0.4550
12131TIP3    H157884   4.521   4.658   2.695 -2.5019  0.1326  0.8219
12131TIP3    H257885   4.513   4.599   2.834 -0.5012 -0.6674  0.6276
12132TIP3   OH257886   0.785   3.348   2.139 -0.5768 -0.9106  0.3994
12132TIP3    H157887   0.840   3.416   2.177 -0.9138 -0.0208 -0.6329
12132TIP3    H257888   0.719   3.330   2.205 -1.3543  0.8323  0.1406
12133TIP3   OH257889   6.154   0.487   5.833  0.1581  0.2472  0.3754
12133TIP3    H157890   6.211   0.420   5.870 -2.9009 -1.8386  1.7134
12133TIP3    H257891   6.170   0.564   5.887  1.6882 -0.2270  0.6582
12134TIP3   OH257892   1.914   3.582  10.990  0.0548  0.2947 -0.3620
12134TIP3    H157893   1.894   3.519  10.920 -1.4715 -0.2441  0.4977
12134TIP3    H257894   1.857   3.656  10.971 -0.0636  0.3166  0.0649
12135TIP3   OH257895   5.078   0.379   6.236  0.0348  0.5483  0.1922
12135TIP3    H157896   5.161   0.355   6.276 -0.3663 -1.3017 -0.0103
12135TIP3    H257897   5.056   0.464   6.275  1.8350  0.9086  0.4924
12136TIP3   OH257898   1.813   4.940   2.252 -0.0231  0.1400 -0.0323
12136TIP3    H157899   1.737   4.919   2.197  0.2063  0.0158 -0.3027
12136TIP3    H257900   1.871   4.990   2.195  0.8164 -1.1063 -0.3215
12137TIP3   OH257901   1.703   5.813   5.495  0.4069 -0.7191 -0.2569
12137TIP3    H157902   1.773   5.832   5.557  0.7984  1.5614 -1.2996
12137TIP3    H257903   1.729   5.859   5.415 -2.7362  1.0636 -0.3795
12138TIP3   OH257904   1.357   1.329   0.379  0.1294  0.3549 -0.3685
12138TIP3    H157905   1.339   1.330   0.473  2.3930 -0.5479  0.1400
12138TIP3    H257906   1.338   1.239   0.352  0.5032  0.3230 -0.5365
12139TIP3   OH257907   3.992   0.042   6.508 -0.0845  0.7650  0.0225
12139TIP3    H157908   3.899   0.029   6.528  0.2336  1.3630  2.1123
12139TIP3    H257909   4.021   0.109   6.570  1.3978  1.7304 -1.6287
12140TIP3   OH257910   4.577   3.751  12.365  0.9079  0.1467 -0.6144
12140TIP3    H157911   4.496   3.803  12.366  0.9240  0.2194  1.8306
12140TIP3    H257912   4.554   3.672  12.316 -0.9410 -0.2570  0.8123
12141TIP3   OH257913   6.229   1.542  14.433 -0.5002  0.2426  0.0151
12141TIP3    H157914   6.151   1.518  14.483 -0.2990  0.1408  0.2792
12141TIP3    H257915   6.197   1.603  14.367 -0.5978  1.2017  0.9254
12142TIP3   OH257916   2.016   0.967  16.889  0.5835 -0.5502  0.2394
12142TIP3    H157917   2.095   0.918  16.912  0.2055 -1.5207 -0.4508
12142TIP3    H257918   1.945   0.903  16.896  0.0803 -0.1191 -0.7224
12143TIP3   OH257919   3.136   2.884   1.719 -0.1995  0.1765  0.2594
12143TIP3    H157920   3.173   2.887   1.807  1.2154 -3.5307 -0.0210
12143TIP3    H257921   3.042   2.873   1.733  0.0128 -0.3497  1.3429
12144TIP3   OH257922   4.637   0.729   5.494 -0.1843 -0.2234 -0.1813
12144TIP3    H157923   4.676   0.753   5.578  0.3267  1.5774 -0.8944
12144TIP3    H257924   4.667   0.639   5.479  0.2709 -0.3381  1.2314
12145TIP3   OH257925   5.841   5.569   5.618 -0.1236 -0.1047 -0.1256
12145TIP3    H157926   5.861   5.661   5.637  1.1721 -0.2241 -0.7632
12145TIP3    H257927   5.875   5.555   5.529  0.7578 -1.4783  0.3847
12146TIP3   OH257928   4.681   1.491  11.316 -0.4028 -0.1136  0.5948
12146TIP3    H157929   4.680   1.408  11.364 -0.6142 -0.1036  0.6075
12146TIP3    H257930   4.761   1.487  11.264  0.1122  0.1180  1.3583
12147TIP3   OH257931   5.048   0.014  12.207 -0.2750 -1.0370 -0.3268
12147TIP3    H157932   5.064   0.055  12.292 -1.2951  1.3282 -1.1953
12147TIP3    H257933   5.128   0.031  12.156  0.2285 -2.2210  0.0246
12148TIP3   OH257934   4.596   1.835  12.484  0.0834  0.4819  0.5613
12148TIP3    H157935   4.626   1.837  12.393  0.6894  0.1070  0.7386
12148TIP3    H257936   4.648   1.764  12.523 -0.4410  0.3953  1.1042
12149TIP3   OH257937   4.229   0.127  12.024 -0.2480  0.3408  0.1570
12149TIP3    H157938   4.221   0.220  12.005 -2.0103  0.2462  0.2882
12149TIP3    H257939   4.147   0.088  11.995  0.8531 -1.3750 -0.8666
12150TIP3   OH257940   1.513   3.048   4.108  0.1061 -0.6185 -0.8363
12150TIP3    H157941   1.442   3.015   4.053 -0.7029  1.6600 -1.2519
12150TIP3    H257942   1.570   2.972   4.121 -1.2353 -1.9584 -2.3354
12151TIP3   OH257943   5.784   3.885   2.427 -0.4742 -0.4421 -0.3996
12151TIP3    H157944   5.795   3.966   2.477  1.9221 -1.1304  0.3059
12151TIP3    H257945   5.863   3.878   2.374 -1.0735 -1.8506 -1.1733
12152TIP3   OH257946   0.023   0.526  13.499 -0.1582  0.3975 -0.2291
12152TIP3    H157947   0.030   0.531  13.595  0.7088 -3.8778  0.1385
12152TIP3    H257948  -0.067   0.499  13.484 -0.5387  1.8618 -0.7737
12153TIP3   OH257949   3.899   3.411   5.397  0.4285  0.5149  0.2727
12153TIP3    H157950   3.968   3.403   5.462  0.1735 -0.3685  0.4527
12153TIP3    H257951   3.901   3.328   5.350 -0.9707  0.1689  0.7675
12154TIP3   OH257952   3.565   1.759  11.322 -0.0193 -0.1947  0.1604
12154TIP3    H157953   3.509   1.684  11.304  0.2261 -0.8110  1.8493
12154TIP3    H257954   3.586   1.794  11.235 -1.2941 -1.2006 -0.5889
12155TIP3   OH257955   2.527   2.411   4.693  0.3654 -0.5214  0.0687
12155TIP3    H157956   2.582   2.473   4.741  0.3572 -1.0631  0.7871
12155TIP3    H257957   2.590   2.351   4.653  0.3240 -0.7746  0.3821
12156TIP3   OH257958   5.023   5.516  10.467  0.3734 -0.4917 -0.2700
12156TIP3    H157959   4.995   5.561  10.547 -1.4641  0.4973 -1.3914
12156TIP3    H257960   4.949   5.459  10.444  0.1918  0.3914 -2.0648
12157TIP3   OH257961   1.958   5.038  15.641 -0.0159 -0.3410  0.3794
12157TIP3    H157962   2.022   4.987  15.690 -0.3114 -2.8787 -1.7081
12157TIP3    H257963   1.899   5.073  15.708  2.5132  0.6826  2.1955
12158TIP3   OH257964   1.086   6.731   2.869 -0.0610  0.5234  0.4493
12158TIP3    H157965   1.132   6.647   2.867 -0.2919  0.4088 -1.0332
12158TIP3    H257966   1.136   6.788   2.811 -1.4747  0.5323 -0.8287
12159TIP3   OH257967   0.821   4.894  15.748  0.1432 -0.3687 -0.2816
12159TIP3    H157968   0.798   4.804  15.724  2.1203 -0.7877 -0.8147
12159TIP3    H257969   0.783   4.907  15.835 -3.2877 -0.4107 -1.6083
12160TIP3   OH257970   4.733   3.999  15.325  0.8028  0.1752 -0.0471
12160TIP3    H157971   4.768   3.928  15.271  2.0664  0.5057  0.2969
12160TIP3    H257972   4.693   4.058  15.263  0.3232 -0.5120 -0.4045
12161TIP3   OH257973   4.186   3.565   3.902  0.2207  0.3932  0.3114
12161TIP3    H157974   4.278   3.539   3.906  0.6475  1.6307 -0.5937
12161TIP3    H257975   4.168   3.574   3.808 -0.9692 -0.2651  0.4578
12162TIP3   OH257976   2.354   4.447  14.912  0.7838 -0.5346 -0.5364
12162TIP3    H157977   2.332   4.447  15.005  1.1443 -1.8693 -0.4296
12162TIP3    H257978   2.331   4.535  14.882  0.7208 -0.0629  0.8203
12163TIP3   OH257979   2.159   3.428  10.990 -0.7427 -0.2120 -0.5441
12163TIP3    H157980   2.152   3.432  10.894  0.2215  1.7032 -0.5783
12163TIP3    H257981   2.095   3.492  11.021 -0.1692  0.0840  0.0391
12164TIP3   OH257982   6.254   2.074  15.472 -0.0762 -0.5060 -0.0933
12164TIP3    H157983   6.240   2.001  15.532  0.1530 -1.2967 -0.9842
12164TIP3    H257984   6.240   2.037  15.385  1.2430  0.2079 -0.6423
12165TIP3   OH257985   3.930   6.068   0.124  0.2657 -0.7418  0.0366
12165TIP3    H157986   3.980   6.140   0.164  0.2952  0.0100 -1.3010
12165TIP3    H257987   3.875   6.035   0.195  1.7638 -0.7795  1.2228
12166TIP3   OH257988   6.107   5.529   4.414 -0.4600  0.0939 -0.0851
12166TIP3    H157989   6.187   5.574   4.442  1.1013 -1.4047 -1.8612
12166TIP3    H257990   6.097   5.457   4.476 -0.1216 -0.0390 -0.1861
12167TIP3   OH257991   1.983   3.918  14.178 -0.0401 -0.0597  0.1120
12167TIP3    H157992   1.944   3.938  14.093  1.7910 -1.0194 -1.0211
12167TIP3    H257993   1.981   4.000  14.226 -3.7876 -0.1116  0.3584
12168TIP3   OH257994   3.019   6.329   4.199 -0.1340  0.1641  0.5537
12168TIP3    H157995   2.940   6.376   4.171 -0.3434 -0.1238  0.6570
12168TIP3    H257996   3.089   6.393   4.192 -0.0680 -0.0658 -1.2418
12169TIP3   OH257997   2.618   6.512  16.606 -0.3647 -0.4008 -0.4967
12169TIP3    H157998   2.709   6.531  16.626 -0.4921 -0.2309 -0.0773
12169TIP3    H257999   2.603   6.425  16.644 -0.4098 -0.3837 -0.4755
12170TIP3   OH258000   4.445   3.865  13.504  0.7643 -0.7002 -0.1191
12170TIP3    H158001   4.416   3.955  13.487  0.9561 -0.7139 -0.5303
12170TIP3    H258002   4.419   3.816  13.425  1.9043 -0.7091 -0.5043
12171TIP3   OH258003   1.071   2.212   3.127  0.5403 -0.3512 -0.4958
12171TIP3    H158004   1.040   2.198   3.216  0.3933  2.1604 -0.0873
12171TIP3    H258005   1.047   2.131   3.081 -0.6098 -1.1655  1.3911
12172TIP3   OH258006   3.804   4.708   2.488  0.0842  0.1109  0.3232
12172TIP3    H158007   3.822   4.647   2.560 -0.2071 -0.1377  0.1895
12172TIP3    H258008   3.884   4.708   2.437 -0.4682 -1.5059 -0.6427
12173TIP3   OH258009   1.435   4.326  11.124 -0.6181 -0.6753  0.4841
12173TIP3    H158010   1.530   4.315  11.118 -0.7341 -0.9164 -1.7637
12173TIP3    H258011   1.416   4.395  11.061 -1.9700 -0.7494  0.7916
12174TIP3   OH258012   0.300   4.870  13.077  0.1143 -0.8056 -0.3207
12174TIP3    H158013   0.353   4.878  12.997 -0.1895 -0.2032 -0.4710
12174TIP3    H258014   0.292   4.960  13.109  0.2612 -1.0550  0.4085
12175TIP3   OH258015   1.186   3.269  15.443 -0.2170  0.7720  0.5752
12175TIP3    H158016   1.208   3.326  15.516 -1.7760 -0.5725  2.1889
12175TIP3    H258017   1.161   3.186  15.483  1.9218 -1.1062 -1.6795
12176TIP3   OH258018   5.635   5.962  10.885  0.3469 -0.7726  0.3396
12176TIP3    H158019   5.686   5.885  10.858 -0.5062 -2.0680  2.1771
12176TIP3    H258020   5.563   5.965  10.823  1.4251 -0.2358 -0.9393
12177TIP3   OH258021   2.852   4.598  13.428  0.5287 -0.5623 -0.1512
12177TIP3    H158022   2.879   4.679  13.473  1.9954 -1.6089  0.9492
12177TIP3    H258023   2.839   4.535  13.499 -1.9446 -0.9816 -0.8856
12178TIP3   OH258024   5.299   6.589  15.014  0.0804 -0.3944 -0.0760
12178TIP3    H158025   5.246   6.574  15.092  1.9840 -3.5369  0.7716
12178TIP3    H258026   5.280   6.515  14.957  1.5968 -0.2178 -0.8741
12179TIP3   OH258027   3.431   6.822  16.469  0.4463 -0.1770 -0.7040
12179TIP3    H158028   3.335   6.817  16.473  0.3549  0.5077 -1.6895
12179TIP3    H258029   3.455   6.766  16.395  0.7870 -0.0985 -0.6538
12180TIP3   OH258030   1.542   3.001  12.363 -0.4128  0.2161 -0.3737
12180TIP3    H158031   1.483   2.937  12.321 -0.1460 -1.3368  1.4972
12180TIP3    H258032   1.487   3.045  12.428 -0.5695  1.9002 -1.5863
12181TIP3   OH258033   4.382   4.891  12.768  0.4162 -0.3340 -0.5945
12181TIP3    H158034   4.378   4.978  12.728  1.6850 -0.4202 -0.9417
12181TIP3    H258035   4.306   4.888  12.826 -1.1773 -0.0154 -2.5783
12182TIP3   OH258036   2.874   3.103   4.160  0.2115 -0.3232 -0.2622
12182TIP3    H158037   2.867   3.011   4.134 -1.1637 -0.0552 -0.9310
12182TIP3    H258038   2.799   3.145   4.119  1.0672  1.1952 -0.3289
12183TIP3   OH258039   5.901   1.142  14.449 -0.3148 -0.2556 -0.1112
12183TIP3    H158040   5.865   1.054  14.438 -1.5705  0.4637 -2.3102
12183TIP3    H258041   5.983   1.128  14.496 -1.4631 -2.3735  1.4779
12184TIP3   OH258042   2.526   4.826  16.062  0.0037 -0.8148 -0.2157
12184TIP3    H158043   2.547   4.909  16.106  1.6452 -0.6240 -1.2675
12184TIP3    H258044   2.540   4.760  16.130 -0.6217 -0.2920  0.4358
12185TIP3   OH258045   5.000   4.661  12.980  0.2199 -0.0725 -0.2619
12185TIP3    H158046   5.075   4.719  12.988 -0.5338  0.8927 -0.0414
12185TIP3    H258047   4.930   4.704  13.029 -0.5535 -0.8235 -0.6644
12186TIP3   OH258048   6.582   0.442  13.386 -0.0769  0.2206 -0.0003
12186TIP3    H158049   6.524   0.381  13.431 -0.3803 -1.0269 -1.9455
12186TIP3    H258050   6.530   0.521  13.374 -0.5393 -0.0207  0.3920
12187TIP3   OH258051   2.369   6.414  15.921 -0.5102 -0.0666  0.1231
12187TIP3    H158052   2.296   6.414  15.983  0.2339  0.6851  1.0317
12187TIP3    H258053   2.406   6.326  15.926 -2.7271 -1.2233 -2.0612
12188TIP3   OH258054   0.001   2.614  11.073 -0.2721  0.1033 -0.4632
12188TIP3    H158055  -0.082   2.575  11.044 -0.0671 -0.5547 -0.1707
12188TIP3    H258056   0.050   2.628  10.992  0.5104 -2.1999 -0.4321
12189TIP3   OH258057   0.212   4.573   3.705 -0.1824  0.1713  0.0940
12189TIP3    H158058   0.156   4.503   3.671  0.4830 -1.2998  1.8473
12189TIP3    H258059   0.300   4.549   3.676 -0.2878  1.9466 -1.8298
12190TIP3   OH258060   1.944   3.177   0.364  0.5279  0.4716  0.2645
12190TIP3    H158061   1.943   3.244   0.432 -0.7524  0.6830  0.0667
12190TIP3    H258062   1.900   3.217   0.289  2.1218  0.3278 -0.8023
12191TIP3   OH258063   4.246   1.408  16.867  0.4881 -0.1679  0.2508
12191TIP3    H158064   4.294   1.439  16.790 -0.3135 -0.7771 -0.5223
12191TIP3    H258065   4.154   1.424  16.846  0.2497 -0.4766  1.0248
12192TIP3   OH258066   6.184   3.386   0.382  0.0105 -0.1289  0.1927
12192TIP3    H158067   6.142   3.465   0.348 -0.7689  1.3846  4.0282
12192TIP3    H258068   6.273   3.412   0.403 -0.0065 -0.4958  0.7572
12193TIP3   OH258069   5.029   6.430  15.021  0.0031 -0.1495  0.1068
12193TIP3    H158070   4.963   6.418  15.090 -0.9165  1.6825 -0.3860
12193TIP3    H258071   5.002   6.370  14.951 -0.0588 -0.7407  0.6241
12194TIP3   OH258072   4.997   4.227  15.391  0.6480 -0.1547  0.5779
12194TIP3    H158073   5.033   4.149  15.348  0.3710  0.9571 -1.8226
12194TIP3    H258074   4.913   4.198  15.426  1.7896 -1.6237  2.3118
12195TIP3   OH258075   0.794   3.521   4.019 -0.4856  0.3342 -0.3131
12195TIP3    H158076   0.712   3.517   3.969  0.7554 -2.3965 -2.3751
12195TIP3    H258077   0.862   3.501   3.956  1.5449  0.1007  1.8167
12196TIP3   OH258078   2.009   5.384  15.743  0.3521  0.1698  0.2194
12196TIP3    H158079   2.087   5.424  15.781 -0.7822 -0.0367  3.0236
12196TIP3    H258080   2.007   5.295  15.778 -0.2479 -0.4114 -1.2036
12197TIP3   OH258081   4.466   2.340   1.356 -0.0598 -0.3204 -0.5482
12197TIP3    H158082   4.392   2.380   1.310 -0.3396 -0.4618 -0.2258
12197TIP3    H258083   4.544   2.370   1.308 -0.2711  0.5094 -0.3925
12198TIP3   OH258084   3.893   1.094   1.363 -0.4406 -0.4367 -0.0538
12198TIP3    H158085   3.976   1.134   1.337 -0.7280 -1.5580 -3.0262
12198TIP3    H258086   3.917   1.007   1.393 -0.3170  0.2590  2.1218
12199TIP3   OH258087   4.055   1.780   6.573 -0.2880 -0.7927  0.1191
12199TIP3    H158088   4.048   1.786   6.668 -0.0624 -1.2345  0.1686
12199TIP3    H258089   4.091   1.692   6.557  1.0538 -0.2030 -0.2989
12200TIP3   OH258090   1.790   6.140   1.100 -0.3466 -0.9019  0.3956
12200TIP3    H158091   1.833   6.195   1.034 -2.9063 -0.3163 -0.9016
12200TIP3    H258092   1.793   6.052   1.063 -0.2558 -0.8593  0.2986
12201TIP3   OH258093   0.329   2.166   6.804 -0.6235  0.1893 -0.7212
12201TIP3    H158094   0.369   2.252   6.810  0.8859 -0.6006  1.8220
12201TIP3    H258095   0.400   2.108   6.776 -0.6268 -0.7749  1.1057
12202TIP3   OH258096   1.765   0.562  11.460  0.2675 -0.5637 -0.1365
12202TIP3    H158097   1.775   0.532  11.370 -1.4665 -0.0496 -0.5447
12202TIP3    H258098   1.769   0.481  11.512 -1.1865 -1.1811 -0.9225
12203TIP3   OH258099   6.368   1.497   2.622 -0.4325 -0.2187 -0.2661
12203TIP3    H158100   6.391   1.578   2.575  0.9664 -0.4485 -0.0276
12203TIP3    H258101   6.273   1.492   2.615 -0.5602  1.4515 -0.2994
12204TIP3   OH258102   2.959   3.719   2.623  0.2301 -0.6335 -0.4867
12204TIP3    H158103   3.025   3.673   2.571 -1.0430 -1.5366 -1.3691
12204TIP3    H258104   2.952   3.805   2.582  0.5974 -0.6637 -0.6178
12205TIP3   OH258105   2.458   0.704   5.533 -0.0153  0.0211  0.2096
12205TIP3    H158106   2.552   0.697   5.522 -0.0851  1.3225 -1.8045
12205TIP3    H258107   2.438   0.647   5.607  2.3754 -0.0042  0.9156
12206TIP3   OH258108   3.774   3.384   4.479 -0.1697  0.0268 -0.0057
12206TIP3    H158109   3.831   3.399   4.554 -1.2724  0.1503  0.8322
12206TIP3    H258110   3.710   3.319   4.510 -0.3267 -0.3183 -1.0067
12207TIP3   OH258111   2.106   3.412   4.180 -0.2518  0.1069 -0.3526
12207TIP3    H158112   2.182   3.439   4.129 -0.0751  1.3333  0.5041
12207TIP3    H258113   2.123   3.320   4.201 -0.1701 -0.3205 -2.1640
12208TIP3   OH258114   5.651   4.684  12.306  0.2088  0.2849  0.4811
12208TIP3    H158115   5.695   4.715  12.227  2.8641 -0.0692  1.7275
12208TIP3    H258116   5.695   4.601  12.327 -0.6758  0.1863  2.1357
12209TIP3   OH258117   1.368   0.737   2.850 -0.0613 -0.4044 -0.5903
12209TIP3    H158118   1.450   0.729   2.803  0.7802  1.2013  0.4972
12209TIP3    H258119   1.329   0.817   2.815  0.4116  0.6208  1.1163
12210TIP3   OH258120   0.656   1.414   5.959  0.0253  0.0732  0.6248
12210TIP3    H158121   0.651   1.493   5.903 -0.9449 -1.3300 -1.3977
12210TIP3    H258122   0.579   1.364   5.936  1.2867 -2.1060  0.8741
12211TIP3   OH258123   4.097   4.424   1.310 -0.4211  0.0665 -0.5242
12211TIP3    H158124   4.103   4.465   1.223 -0.9516  1.6325  0.1462
12211TIP3    H258125   4.178   4.451   1.354 -0.1010 -0.8216 -0.5499
12212TIP3   OH258126   4.051   6.091  12.673  0.1801 -0.4775 -0.1320
12212TIP3    H158127   4.140   6.060  12.654 -0.6963 -1.5659 -2.9866
12212TIP3    H258128   4.044   6.173  12.625 -0.4413 -0.5508 -0.1720
12213TIP3   OH258129   3.114   1.198   0.079  0.1244 -0.6647  0.2106
12213TIP3    H158130   3.039   1.238   0.035  1.4278 -0.0244 -1.5530
12213TIP3    H258131   3.084   1.182   0.169 -1.1375  2.4203  0.4597
12214TIP3   OH258132   5.562   2.988  12.377  0.1159 -0.0367  0.0240
12214TIP3    H158133   5.519   3.061  12.422 -1.5052 -1.8268  1.5669
12214TIP3    H258134   5.512   2.977  12.296  1.1237  1.2473 -0.8264
12215TIP3   OH258135   6.332   0.092  13.757  0.2158 -0.5569  0.1487
12215TIP3    H158136   6.402   0.096  13.823  0.1662 -0.3572  0.1904
12215TIP3    H258137   6.269   0.029  13.793  0.3965 -0.7741  0.0897
12216TIP3   OH258138   6.570   5.390   5.714  0.1460  0.3568  0.5110
12216TIP3    H158139   6.617   5.456   5.764  2.5270  0.0386 -1.1529
12216TIP3    H258140   6.621   5.309   5.725 -0.4870 -0.2332 -0.6361
12217TIP3   OH258141   5.099   5.034  15.118  0.3151 -0.1242  0.2521
12217TIP3    H158142   5.156   5.029  15.195 -0.5266  0.9357  0.9714
12217TIP3    H258143   5.039   4.961  15.127 -0.0855  0.2721  0.8686
12218TIP3   OH258144   5.980   0.073   0.139 -0.1503 -0.2611  0.8779
12218TIP3    H158145   5.944   0.008   0.079 -1.0098  1.0147 -0.0278
12218TIP3    H258146   5.906   0.099   0.194  0.2494 -0.2237  1.4133
12219TIP3   OH258147   4.219   6.085  16.123  0.2539  0.1006  0.0671
12219TIP3    H158148   4.309   6.071  16.093  0.0546 -1.8031  0.2620
12219TIP3    H258149   4.213   6.180  16.136  1.7785  0.4307 -1.3203
12220TIP3   OH258150   2.655   2.257   6.703  0.0959  0.2005  0.1712
12220TIP3    H158151   2.750   2.270   6.711 -0.0611  1.0467  0.7190
12220TIP3    H258152   2.627   2.323   6.639 -0.3216  0.8850  1.0412
12221TIP3   OH258153   0.604   5.907  15.571  0.7867 -0.6306  0.2256
12221TIP3    H158154   0.626   5.992  15.608 -2.2111 -0.5078  2.0087
12221TIP3    H258155   0.634   5.911  15.480 -2.0075  3.5816 -0.7556
12222TIP3   OH258156   1.619   2.093   4.635  0.0561 -0.2055 -0.2050
12222TIP3    H158157   1.543   2.070   4.582 -0.4715  0.6743  0.1473
12222TIP3    H258158   1.624   2.188   4.630  1.2624 -0.2703 -0.3823
12223TIP3   OH258159   6.195   3.621  15.979 -0.6177  0.9045 -0.3964
12223TIP3    H158160   6.221   3.674  15.904 -0.3599 -0.1819 -1.1054
12223TIP3    H258161   6.186   3.683  16.051 -1.3909  2.0549 -1.4432
12224TIP3   OH258162   3.809   2.036  12.802  0.3045  0.2543  0.2625
12224TIP3    H158163   3.862   2.035  12.881 -0.7030 -0.6072  0.9618
12224TIP3    H258164   3.857   1.980  12.740  0.9702  0.7365  0.3375
12225TIP3   OH258165   6.200   3.225  11.268 -0.4517 -0.3719  0.4205
12225TIP3    H158166   6.172   3.195  11.182 -0.2466 -1.5240  0.7414
12225TIP3    H258167   6.124   3.270  11.304 -0.4456  0.3806 -0.4703
12226TIP3   OH258168   3.897   5.029   1.379 -0.3038 -0.3092  0.6886
12226TIP3    H158169   3.898   4.977   1.299  1.6063  0.5718  0.0657
12226TIP3    H258170   3.987   5.025   1.412 -0.5179  1.1348  1.5730
12227TIP3   OH258171   2.296   2.750   4.512  0.4634  0.3799  0.2368
12227TIP3    H158172   2.205   2.719   4.517  1.0005 -1.1866  0.8564
12227TIP3    H258173   2.344   2.677   4.472  1.7098  0.6069  1.2646
12228TIP3   OH258174   6.194   2.837  16.917 -0.0527 -0.1827 -0.3563
12228TIP3    H158175   6.146   2.768  16.961  1.6245 -1.7120 -0.8023
12228TIP3    H258176   6.222   2.798  16.834  1.3002  0.8757 -0.4343
12229TIP3   OH258177   1.838   2.544  15.623 -0.3207 -0.1455  0.0866
12229TIP3    H158178   1.780   2.537  15.698 -0.0985 -1.6843  0.1324
12229TIP3    H258179   1.907   2.604  15.652 -1.1622  0.6680  0.4706
12230TIP3   OH258180   2.183   2.522  14.135 -0.3550 -0.5712 -0.1959
12230TIP3    H158181   2.231   2.445  14.102 -0.8496 -1.3660  0.8617
12230TIP3    H258182   2.096   2.488  14.157  0.1553 -0.3148  2.5941
12231TIP3   OH258183   5.951   4.378  13.449  0.2547  0.4793  0.1667
12231TIP3    H158184   5.907   4.311  13.396 -0.7245  0.1248  1.3937
12231TIP3    H258185   5.967   4.336  13.533  2.0445  0.9433  0.1153
12232TIP3   OH258186   3.173   2.598  11.401 -0.1793 -0.4205 -0.7843
12232TIP3    H158187   3.223   2.649  11.465 -2.6294  1.8633 -0.4990
12232TIP3    H258188   3.119   2.663  11.355 -0.3665 -2.2998 -3.4551
12233TIP3   OH258189   4.063   5.065   2.318  0.0978 -0.4889 -0.1299
12233TIP3    H158190   4.020   4.996   2.267 -0.0342 -0.2679 -0.3170
12233TIP3    H258191   3.999   5.089   2.384  1.3604 -2.9392  2.1625
12234TIP3   OH258192   6.238   6.159  13.602 -0.0221 -0.4324 -1.1600
12234TIP3    H158193   6.236   6.153  13.506 -2.6019  0.1103 -1.2074
12234TIP3    H258194   6.150   6.186  13.626  0.9805  0.9512  1.3110
12235TIP3   OH258195   4.810   3.125   6.234 -0.1016  0.4332 -0.1323
12235TIP3    H158196   4.889   3.158   6.277  0.1216 -1.3664  0.9690
12235TIP3    H258197   4.738   3.165   6.282  0.1629  0.0175  0.6366
12236TIP3   OH258198   6.817   6.147  10.383  0.0183 -0.0508 -0.4324
12236TIP3    H158199   6.748   6.110  10.437 -0.1238  0.3300 -0.3516
12236TIP3    H258200   6.873   6.072  10.360  0.0773 -0.2156  0.2321
12237TIP3   OH258201   0.078   4.551   1.900  0.6768  0.3097  0.4266
12237TIP3    H158202  -0.011   4.521   1.883  1.5960 -2.3339 -0.2044
12237TIP3    H258203   0.086   4.633   1.851 -1.4281  0.7139  0.6807
12238TIP3   OH258204   4.586   6.097  16.619  0.1561 -0.6161 -0.0690
12238TIP3    H158205   4.584   6.119  16.712  1.4530  0.2932 -0.2445
12238TIP3    H258206   4.659   6.147  16.583 -0.6124 -0.5781 -1.6815
12239TIP3   OH258207   1.365   0.900  15.131 -0.3350  0.8735 -0.6359
12239TIP3    H158208   1.439   0.898  15.192  0.8325 -2.3229 -1.9689
12239TIP3    H258209   1.297   0.847  15.173 -0.1642  0.0834 -1.3405
12240TIP3   OH258210   1.417   6.574  14.975 -0.0238 -0.1911  0.5764
12240TIP3    H158211   1.474   6.608  15.043 -0.9149  1.3734  0.5991
12240TIP3    H258212   1.354   6.519  15.022  0.6954 -0.9081  0.7107
12241TIP3   OH258213   4.943   2.699  11.134 -0.1192  0.2082 -0.2745
12241TIP3    H158214   4.988   2.617  11.112  1.4390  1.0928 -0.5377
12241TIP3    H258215   4.850   2.679  11.123  0.1516 -1.7618  0.4696
12242TIP3   OH258216   2.462   6.147  15.981 -0.0735 -0.6000  0.1374
12242TIP3    H158217   2.544   6.119  16.022  0.5490 -0.3125 -0.8821
12242TIP3    H258218   2.426   6.067  15.942 -1.3621 -1.1769  2.3027
12243TIP3   OH258219   0.837   2.102  12.304 -0.4245  0.3815 -0.0131
12243TIP3    H158220   0.783   2.059  12.370  2.0617  0.3101  2.1356
12243TIP3    H258221   0.824   2.196  12.320 -1.3292  0.4125 -0.8047
12244TIP3   OH258222   6.498   4.985   2.073 -0.4668  0.6834 -0.8391
12244TIP3    H158223   6.403   4.998   2.066 -0.6319 -1.0888 -3.0611
12244TIP3    H258224   6.510   4.934   2.153 -1.0928  2.8129  0.6979
12245TIP3   OH258225   0.027   2.181  15.163  0.8401 -0.2254 -0.4583
12245TIP3    H158226   0.027   2.266  15.207 -0.7801 -0.2073 -0.4125
12245TIP3    H258227   0.054   2.200  15.074 -1.1276  0.6749 -0.9299
12246TIP3   OH258228   0.074   6.752   4.122 -0.5288  0.0350 -0.0071
12246TIP3    H158229   0.141   6.707   4.172 -2.4784 -0.4560  2.3624
12246TIP3    H258230   0.024   6.682   4.080 -1.1061  0.1912  0.3910
12247TIP3   OH258231   5.886   5.735   2.905 -0.0990  0.7920  0.0112
12247TIP3    H158232   5.814   5.794   2.925 -1.6913 -1.2046  0.5194
12247TIP3    H258233   5.873   5.661   2.964  2.0869  0.1212 -0.2540
12248TIP3   OH258234   2.935   3.100   5.051 -0.4923  0.1471  0.0979
12248TIP3    H158235   3.026   3.099   5.020 -0.5716 -1.0537 -0.1419
12248TIP3    H258236   2.897   3.020   5.016 -0.6646 -1.2039  3.0483
12249TIP3   OH258237   3.136   1.613   4.989 -0.5611  0.6324 -0.0757
12249TIP3    H158238   3.208   1.550   4.975 -0.2025  0.8966  0.5528
12249TIP3    H258239   3.141   1.672   4.914 -0.7959  0.0228 -0.5892
12250TIP3   OH258240   3.301   3.783   5.925 -0.6205 -0.2651  0.3737
12250TIP3    H158241   3.357   3.768   6.002 -0.9463  0.3576  0.7400
12250TIP3    H258242   3.352   3.750   5.852  0.0260 -0.1555  0.7639
12251TIP3   OH258243   6.170   1.943   3.731 -0.2432 -0.1554 -0.3871
12251TIP3    H158244   6.194   2.035   3.719  1.8123 -0.7675 -1.4473
12251TIP3    H258245   6.075   1.945   3.746 -0.1539  2.1666  0.3140
12252TIP3   OH258246   6.789   5.781  16.823  0.2218 -0.0558  0.6464
12252TIP3    H158247   6.747   5.861  16.853 -0.7217  0.0592 -0.8506
12252TIP3    H258248   6.773   5.780  16.728  2.1685 -0.8651  0.2673
12253TIP3   OH258249   4.165   2.444   4.873  0.0721 -0.5803 -0.6022
12253TIP3    H158250   4.078   2.407   4.860  0.1509 -0.9184 -0.1911
12253TIP3    H258251   4.217   2.410   4.801 -0.1203 -0.4234 -0.8163
12254TIP3   OH258252   3.639   2.368  13.156  0.5224  0.1507 -0.3200
12254TIP3    H158253   3.730   2.375  13.127  0.3168  0.2915 -0.9493
12254TIP3    H258254   3.635   2.284  13.202  0.6520 -0.5284 -1.4989
12255TIP3   OH258255   2.265   3.926   1.836  0.4128  0.1270 -0.0282
12255TIP3    H158256   2.293   3.998   1.780 -0.3173  1.9104  1.7573
12255TIP3    H258257   2.338   3.911   1.895 -0.6562  1.8979  1.8816
12256TIP3   OH258258   4.195   0.160   2.227  0.0034  0.6826  0.2803
12256TIP3    H158259   4.122   0.100   2.239  0.7574 -0.1010  1.0929
12256TIP3    H258260   4.200   0.209   2.308  0.5403  0.5374  0.3395
12257TIP3   OH258261   3.880   1.979   1.589 -0.3279  0.3069  0.2230
12257TIP3    H158262   3.875   1.910   1.522  0.8846  0.2130  0.2003
12257TIP3    H258263   3.966   2.018   1.576 -0.7741  1.4594  0.6156
12258TIP3   OH258264   0.960   4.051  14.173 -0.2415  0.4612  0.4222
12258TIP3    H158265   0.868   4.024  14.176 -0.0043 -0.4367  0.0621
12258TIP3    H258266   0.971   4.090  14.087  0.2158 -1.4373 -0.4379
12259TIP3   OH258267   0.847   4.563  15.806  0.7756  0.3727  0.3147
12259TIP3    H158268   0.814   4.586  15.719  0.6615 -0.0615  0.2402
12259TIP3    H258269   0.934   4.602  15.811  1.3204 -0.7008 -0.4924
12260TIP3   OH258270   0.089   5.952  15.817  0.1861  0.1615  0.4604
12260TIP3    H158271   0.132   5.889  15.874  0.1092  0.1107  0.4630
12260TIP3    H258272   0.160   6.005  15.781  0.4811 -1.2933 -1.2420
12261TIP3   OH258273   5.520   4.166   5.149 -0.3405  0.2714  0.0732
12261TIP3    H158274   5.585   4.212   5.095  0.4532 -1.4487 -0.5193
12261TIP3    H258275   5.447   4.228   5.157  0.5232  1.4806 -0.9560
12262TIP3   OH258276   2.944   5.195   0.620 -0.2337  0.4860 -0.5666
12262TIP3    H158277   2.889   5.273   0.630 -0.0457  0.4884  0.6417
12262TIP3    H258278   2.965   5.192   0.527  0.6011  2.4560 -0.4858
12263TIP3   OH258279   1.271   4.671  12.320 -0.0542 -0.3072  0.5796
12263TIP3    H158280   1.228   4.740  12.269  1.3722  0.7011  0.6724
12263TIP3    H258281   1.207   4.648  12.387 -0.0152  2.0886  1.5569
12264TIP3   OH258282   1.364   1.663  16.776  0.5569 -0.0759  0.3278
12264TIP3    H158283   1.411   1.586  16.807 -1.9524 -2.0093 -0.3087
12264TIP3    H258284   1.415   1.694  16.701  0.3740 -2.7384 -1.0261
12265TIP3   OH258285   3.485   5.238  12.438 -0.0939 -0.1479 -0.1348
12265TIP3    H158286   3.513   5.268  12.352  3.4758 -2.2314  0.1048
12265TIP3    H258287   3.505   5.310  12.497  2.8860 -0.6355 -0.3734
12266TIP3   OH258288   1.932   1.513  16.836  0.5095  0.4603 -0.4409
12266TIP3    H158289   1.875   1.506  16.759  0.2040 -1.2012 -0.1153
12266TIP3    H258290   1.962   1.423  16.851  0.4616  0.7311  1.4554
12267TIP3   OH258291   1.713   6.309  13.206 -0.0591  0.3631 -0.4488
12267TIP3    H158292   1.685   6.366  13.135  0.8289  1.6709  0.2071
12267TIP3    H258293   1.636   6.301  13.263 -1.2040 -1.7855 -2.1654
12268TIP3   OH258294   0.154   4.794   1.770 -0.1808 -0.2451  0.3057
12268TIP3    H158295   0.204   4.875   1.777  2.3088 -1.5432 -0.9910
12268TIP3    H258296   0.131   4.788   1.677 -0.5103 -0.9183  0.4207
12269TIP3   OH258297   3.031   3.189  16.761 -0.3316 -0.0792  0.2681
12269TIP3    H158298   2.971   3.131  16.806  0.2833  1.2890  3.0496
12269TIP3    H258299   2.975   3.254  16.718 -0.9173 -0.5048  0.3869
12270TIP3   OH258300   1.254   3.088  16.241  0.4296 -0.5013 -0.3184
12270TIP3    H158301   1.302   3.149  16.184 -0.4514  0.6648  0.1522
12270TIP3    H258302   1.179   3.061  16.188  0.2895 -0.4024 -0.1688
12271TIP3   OH258303   1.546   6.109   5.348 -0.2926 -0.6032 -0.1932
12271TIP3    H158304   1.544   6.134   5.441 -0.3256 -0.1871 -0.3031
12271TIP3    H258305   1.622   6.052   5.340  1.3379  1.4616 -0.4205
12272TIP3   OH258306   6.551   4.362  11.832 -0.3395  0.7761  0.1910
12272TIP3    H158307   6.519   4.436  11.884  0.1525  2.0710 -1.2894
12272TIP3    H258308   6.608   4.314  11.892 -2.0575  0.5259  1.7417
12273TIP3   OH258309   5.062   6.496   0.425 -0.3763 -0.2280  1.0473
12273TIP3    H158310   5.113   6.485   0.505  0.5082  0.6793  0.6365
12273TIP3    H258311   5.058   6.409   0.385  0.3991 -0.4070  1.3581
12274TIP3   OH258312   1.292   0.860  10.256 -0.5353  0.0614  0.0545
12274TIP3    H158313   1.339   0.801  10.315  0.6918  0.6966 -0.2470
12274TIP3    H258314   1.306   0.947  10.293  0.0928  0.4491 -1.0358
12275TIP3   OH258315   5.450   2.660   6.237 -0.0245 -0.2460  0.5593
12275TIP3    H158316   5.414   2.729   6.293  0.5378  1.8274 -1.4902
12275TIP3    H258317   5.545   2.668   6.247  0.0606 -0.3102 -0.1311
12276TIP3   OH258318   0.504   3.020  14.049  0.5704 -0.3648  0.3460
12276TIP3    H158319   0.440   3.006  14.119  0.6379 -0.3680  0.4076
12276TIP3    H258320   0.457   3.070  13.983  0.9023  0.9002  1.0175
12277TIP3   OH258321   5.685   3.520   3.228 -0.4764  0.4185  0.5421
12277TIP3    H158322   5.627   3.566   3.288 -0.0760  0.8735  0.5833
12277TIP3    H258323   5.647   3.432   3.221 -0.6490  0.4289  1.2888
12278TIP3   OH258324   0.856   6.079   5.499 -0.2670 -0.2274 -0.3289
12278TIP3    H158325   0.781   6.070   5.440 -0.6138  0.7053 -0.0417
12278TIP3    H258326   0.873   5.990   5.530 -1.1342 -0.4780 -0.5496
12279TIP3   OH258327   1.627   5.995  13.031  0.4446  0.0340 -0.1069
12279TIP3    H158328   1.536   6.026  13.040  1.0353  1.8433  0.1280
12279TIP3    H258329   1.670   6.064  12.980  1.6116 -0.9839 -0.5304
12280TIP3   OH258330   1.722   2.171  12.573  0.0225  0.5563  0.2760
12280TIP3    H158331   1.763   2.226  12.507  0.3214 -0.1128 -0.1117
12280TIP3    H258332   1.639   2.144  12.534  1.2547 -1.8464 -0.9321
12281TIP3   OH258333   0.416   0.441  15.314 -0.0238  0.3337 -0.2681
12281TIP3    H158334   0.339   0.479  15.356 -0.0001  2.9447 -2.3798
12281TIP3    H258335   0.406   0.346  15.327 -2.5267  0.7183  1.2035
12282TIP3   OH258336   3.284   3.608   4.853 -0.5082  0.1377  0.2289
12282TIP3    H158337   3.245   3.618   4.940 -1.8404  0.3226 -0.3571
12282TIP3    H258338   3.212   3.626   4.793  0.0763 -1.1884 -0.9251
12283TIP3   OH258339   4.952   6.652   1.457 -0.2799 -0.3743  0.0098
12283TIP3    H158340   4.911   6.714   1.396  1.1960 -0.2636 -0.9235
12283TIP3    H258341   4.927   6.684   1.544 -1.1482  0.3909 -0.5046
12284TIP3   OH258342   6.583   6.076   1.500 -0.3134 -0.2072  0.1023
12284TIP3    H158343   6.629   6.125   1.568 -1.5166 -0.8293  1.4136
12284TIP3    H258344   6.587   6.133   1.423  0.1580  1.0020  0.9849
12285TIP3   OH258345   2.245   6.348   2.821  0.1335  0.1477 -0.1019
12285TIP3    H158346   2.252   6.301   2.738  1.6456 -0.0548  0.1071
12285TIP3    H258347   2.228   6.438   2.796 -0.5021 -0.0962 -0.5855
12286TIP3   OH258348   6.211   3.249   2.449 -0.1481  0.4830  0.0632
12286TIP3    H158349   6.219   3.229   2.356  1.9738  0.9631  0.0907
12286TIP3    H258350   6.160   3.330   2.451  0.3865  0.8601 -0.7480
12287TIP3   OH258351   0.243   5.464   2.869 -0.1252  0.3429 -0.6800
12287TIP3    H158352   0.268   5.508   2.787  0.6647  1.0256 -0.0810
12287TIP3    H258353   0.315   5.481   2.929 -0.0118 -1.4071 -0.2755
12288TIP3   OH258354   1.693   2.381   4.656 -0.1813 -0.0196  0.1050
12288TIP3    H158355   1.720   2.410   4.743 -0.3647  0.9163 -0.1369
12288TIP3    H258356   1.775   2.354   4.614 -0.0446 -0.1405  0.4420
12289TIP3   OH258357   6.336   1.941   1.927  0.4165  0.0013  0.1873
12289TIP3    H158358   6.318   1.978   2.014  0.2491  0.2691  0.0402
12289TIP3    H258359   6.426   1.967   1.908  0.3636  0.1734  0.1661
12290TIP3   OH258360   1.377   5.737  10.608 -0.0132  0.6943 -0.1560
12290TIP3    H158361   1.430   5.676  10.556  0.3893 -0.5724  1.6291
12290TIP3    H258362   1.321   5.781  10.544  0.6830 -0.5360 -1.6797
12291TIP3   OH258363   6.017   2.950  12.186 -0.5123  0.0464 -0.0234
12291TIP3    H158364   6.060   2.988  12.110 -0.8098 -0.6166 -0.5276
12291TIP3    H258365   6.012   2.856  12.168 -0.1594 -0.1882  1.0220
12292TIP3   OH258366   0.453   0.276   5.662  0.1549 -0.3593  0.2384
12292TIP3    H158367   0.495   0.322   5.735 -1.2954  1.4186  0.0152
12292TIP3    H258368   0.433   0.345   5.599 -1.0081 -1.4860 -0.6620
12293TIP3   OH258369   0.323   3.917  11.395  0.1021  0.1291  0.1750
12293TIP3    H158370   0.271   3.867  11.332  0.7002 -0.3001  0.0183
12293TIP3    H258371   0.397   3.861  11.416 -0.6469 -0.2108  2.1297
12294TIP3   OH258372   1.896   0.836  15.497  0.4179  0.2056 -0.4400
12294TIP3    H158373   1.946   0.776  15.553  2.0082  0.6776 -1.2756
12294TIP3    H258374   1.881   0.913  15.551 -0.0709 -0.2315  0.0606
12295TIP3   OH258375   4.503   6.663  15.840  0.5319  0.1378  0.1153
12295TIP3    H158376   4.539   6.611  15.768  1.4800 -0.5548  1.0491
12295TIP3    H258377   4.556   6.742  15.842  0.4027  0.2278 -0.0509
12296TIP3   OH258378   0.346   4.029  14.703  0.2379 -0.0704 -0.3368
12296TIP3    H158379   0.315   4.112  14.668  0.3500  0.3845  0.6255
12296TIP3    H258380   0.430   4.050  14.745 -0.6244 -0.2739  1.5645
12297TIP3   OH258381   3.684   2.135   1.680 -0.5010 -0.1690 -0.3267
12297TIP3    H158382   3.629   2.101   1.610 -0.3372 -0.9629 -0.0846
12297TIP3    H258383   3.761   2.079   1.680 -0.5813 -0.3109  0.5974
12298TIP3   OH258384   1.338   1.839   6.349  0.0558 -0.6900  0.3882
12298TIP3    H158385   1.318   1.913   6.292 -1.7086 -1.7096 -0.4055
12298TIP3    H258386   1.428   1.855   6.378  0.3483  0.8442 -1.1569
12299TIP3   OH258387   4.453   6.084  12.151  0.3419  0.4136 -0.3832
12299TIP3    H158388   4.496   6.045  12.227  0.7288  2.9964  0.8574
12299TIP3    H258389   4.506   6.059  12.076  2.2611  0.9638  0.7273
12300TIP3   OH258390   4.766   5.297  15.863 -0.2208 -0.2685 -0.4534
12300TIP3    H158391   4.723   5.284  15.779 -0.4802 -0.6162 -0.2660
12300TIP3    H258392   4.795   5.389  15.860  1.1144 -0.6852 -1.5308
12301TIP3   OH258393   3.481   1.708   1.343  0.2258 -0.2299  0.2040
12301TIP3    H158394   3.560   1.656   1.326  0.2874  0.1491 -0.7096
12301TIP3    H258395   3.493   1.787   1.290 -0.4546  0.1384  0.5974
12302TIP3   OH258396   6.544   2.484   5.605  0.3830 -0.0786  0.5932
12302TIP3    H158397   6.495   2.464   5.685  0.8792 -1.9134  0.4861
12302TIP3    H258398   6.589   2.402   5.584  1.3139  0.7698 -0.8346
12303TIP3   OH258399   5.406   4.721   2.622 -0.4405  0.2984 -0.2387
12303TIP3    H158400   5.399   4.638   2.575  0.5318  1.0013 -1.7242
12303TIP3    H258401   5.476   4.707   2.685 -1.2561 -0.4388  0.5214
12304TIP3   OH258402   1.677   0.553   1.641  0.2850  0.5689 -0.2696
12304TIP3    H158403   1.629   0.593   1.712  0.6195 -2.4540  1.8653
12304TIP3    H258404   1.610   0.528   1.577 -0.4582  0.2080  0.6392
12305TIP3   OH258405   4.573   0.574   0.159  0.6585  0.1171 -0.1632
12305TIP3    H158406   4.651   0.595   0.210  1.1035 -1.2579 -0.2354
12305TIP3    H258407   4.543   0.490   0.194  0.5544 -0.4951 -1.6505
12306TIP3   OH258408   0.624   3.114  14.768 -0.2632 -0.2500 -0.3864
12306TIP3    H158409   0.655   3.148  14.683  0.1406  2.1075  0.6267
12306TIP3    H258410   0.657   3.177  14.832 -1.9229 -1.0848  1.3786
12307TIP3   OH258411   0.291   4.977  12.209 -0.6247  0.1108 -0.0012
12307TIP3    H158412   0.200   4.967  12.180 -0.9657 -0.7275  1.2745
12307TIP3    H258413   0.317   5.064  12.179 -1.8774  0.3958 -0.3086
12308TIP3   OH258414   6.403   3.908   3.011  0.0140  0.0116  0.0779
12308TIP3    H158415   6.469   3.975   3.026 -0.0132 -0.0806  0.6322
12308TIP3    H258416   6.324   3.957   2.988  0.4573  0.0980 -1.3940
12309TIP3   OH258417   6.160   6.809   5.473  0.4069  0.0696  0.5636
12309TIP3    H158418   6.195   6.721   5.485 -0.6401 -0.2559  1.4067
12309TIP3    H258419   6.175   6.853   5.557  2.0190  1.1324 -0.2218
12310TIP3   OH258420   3.739   3.200   0.584  0.6130  0.1597  0.0886
12310TIP3    H158421   3.812   3.230   0.529  0.1308  0.6687 -0.2887
12310TIP3    H258422   3.717   3.275   0.638 -0.4684  0.4521 -0.7141
12311TIP3   OH258423   1.964   4.709  14.715  0.6687  0.5844  0.0748
12311TIP3    H158424   1.976   4.624  14.757 -0.5126  0.4299  0.1199
12311TIP3    H258425   1.978   4.692  14.621  1.1812  0.5031  0.1622
12312TIP3   OH258426   1.563   5.023  12.566  0.0627 -0.3676 -0.0758
12312TIP3    H158427   1.533   4.933  12.561 -1.6709 -0.0072  2.1316
12312TIP3    H258428   1.647   5.018  12.612 -0.7720 -0.7932  1.4684
12313TIP3   OH258429   1.629   5.405  14.233 -0.0778  0.0617  0.1937
12313TIP3    H158430   1.559   5.387  14.170 -1.4831  0.1725  1.6674
12313TIP3    H258431   1.688   5.330  14.225 -0.3115 -0.0189 -1.0999
12314TIP3   OH258432   5.387   1.262  11.844 -0.2669  0.0887 -0.4547
12314TIP3    H158433   5.294   1.284  11.844 -0.1089  0.9880  1.7639
12314TIP3    H258434   5.391   1.176  11.802 -2.0406  0.1974 -0.9317
12315TIP3   OH258435   2.609   2.150   3.575 -0.5100 -0.4278 -0.3164
12315TIP3    H158436   2.573   2.235   3.601 -0.4199 -0.6681  0.6376
12315TIP3    H258437   2.533   2.096   3.556 -0.5715  0.5294 -3.3249
12316TIP3   OH258438   5.377   0.962   5.797  0.4881  0.1962 -0.1711
12316TIP3    H158439   5.309   1.026   5.774 -0.9065 -0.1574  2.5251
12316TIP3    H258440   5.420   0.942   5.714 -2.3327  0.8674 -1.9488
12317TIP3   OH258441   1.161   3.082   4.165  0.3540 -0.1172 -0.1441
12317TIP3    H158442   1.081   3.042   4.197 -0.4114  1.9173  0.6602
12317TIP3    H258443   1.215   3.094   4.243  0.2830  0.9543 -0.2427
12318TIP3   OH258444   5.736   4.515   3.479 -0.8176  0.3348  1.2001
12318TIP3    H158445   5.710   4.607   3.489 -0.1086  0.5659  1.0007
12318TIP3    H258446   5.713   4.494   3.388 -1.8398  0.0254  1.5224
12319TIP3   OH258447   6.225   6.812   1.510 -0.7250 -0.4961  0.7085
12319TIP3    H158448   6.262   6.757   1.442 -0.8063 -1.0459  1.0955
12319TIP3    H258449   6.188   6.750   1.574 -1.9791  0.0177  0.5204
12320TIP3   OH258450   3.067   6.814   0.725 -0.2661  0.1292 -0.2016
12320TIP3    H158451   3.042   6.723   0.738 -0.7159  0.3772  0.7746
12320TIP3    H258452   3.070   6.851   0.814 -1.3194  1.3893 -0.6649
12321TIP3   OH258453   6.556   3.540  15.260  0.5419  0.3601  0.0639
12321TIP3    H158454   6.613   3.586  15.198  1.4454  0.0660  0.6628
12321TIP3    H258455   6.572   3.447  15.242  1.0060  0.2723  0.9047
12322TIP3   OH258456   4.729   0.156  10.408 -0.0871  0.5079  0.2061
12322TIP3    H158457   4.656   0.127  10.462 -1.3384  0.1251 -1.5826
12322TIP3    H258458   4.703   0.132  10.319  1.3696  2.0916 -0.7061
12323TIP3   OH258459   3.380   3.537   3.858 -0.2404  0.1150  0.3901
12323TIP3    H158460   3.420   3.468   3.804 -0.8532  0.2005 -0.1950
12323TIP3    H258461   3.437   3.613   3.846 -0.5788  0.2454 -0.4642
12324TIP3   OH258462   0.344   6.561  15.284  0.4033 -0.0105  0.2366
12324TIP3    H158463   0.436   6.587  15.293 -0.0113  1.6573 -0.0770
12324TIP3    H258464   0.310   6.616  15.214 -1.3436  0.8862  1.7040
12325TIP3   OH258465   4.167   3.447  13.538  0.5447  0.0060  0.1807
12325TIP3    H158466   4.224   3.426  13.612  0.1417 -0.7907  0.2773
12325TIP3    H258467   4.101   3.506  13.576 -0.3225 -1.2879  0.7503
12326TIP3   OH258468   5.904   3.281   0.931  0.2874  0.0119 -0.4205
12326TIP3    H158469   5.904   3.270   1.026  0.1430 -0.4064 -0.4640
12326TIP3    H258470   5.974   3.224   0.899  1.1937  1.1274 -0.4736
12327TIP3   OH258471   1.431   1.974   1.497 -0.6622  0.1151  0.9298
12327TIP3    H158472   1.492   2.041   1.526 -1.3934  0.7216  1.0855
12327TIP3    H258473   1.364   1.971   1.565  0.0304 -1.6866  1.5802
12328TIP3   OH258474   5.806   5.658   2.364  0.0370  0.1438 -0.3004
12328TIP3    H158475   5.829   5.651   2.457  0.6265 -0.1836 -0.4653
12328TIP3    H258476   5.807   5.752   2.346  1.3498  0.1559 -0.3068
12329TIP3   OH258477   0.521   2.440   5.662 -0.1922 -0.0001  0.3495
12329TIP3    H158478   0.594   2.474   5.713 -2.4694  1.1946  3.1134
12329TIP3    H258479   0.445   2.490   5.693 -2.1548 -0.8192 -2.6869
12330TIP3   OH258480   5.694   6.316  15.927 -0.6189 -0.1801 -0.7276
12330TIP3    H158481   5.633   6.372  15.879 -0.1993  0.0947 -0.9476
12330TIP3    H258482   5.641   6.275  15.995 -0.7575  1.1315 -0.0374
12331TIP3   OH258483   5.556   5.881   3.913  0.2738  0.8305  0.1067
12331TIP3    H158484   5.488   5.947   3.924  0.3450  0.6724  1.7525
12331TIP3    H258485   5.638   5.927   3.932  0.3460  0.3356  1.0444
12332TIP3   OH258486   0.618   0.884   1.254 -0.7175  0.7003 -0.1407
12332TIP3    H158487   0.705   0.901   1.218 -0.0655 -1.9776 -0.0576
12332TIP3    H258488   0.604   0.955   1.317  0.5520  2.2480 -1.5003
12333TIP3   OH258489   2.022   2.735   4.561  0.6287  0.1617 -0.5635
12333TIP3    H158490   1.943   2.680   4.556 -0.0317  1.1035 -0.7913
12333TIP3    H258491   1.989   2.824   4.552  1.4192  0.7949  2.1372
12334TIP3   OH258492   2.942   6.503  11.184 -0.0599 -0.0357 -0.1840
12334TIP3    H158493   2.909   6.591  11.166 -0.9285 -0.4114 -0.4413
12334TIP3    H258494   2.992   6.480  11.106 -2.1742 -0.8734 -1.3704
12335TIP3   OH258495   2.256   5.404  13.798  0.1935  0.3726 -0.0544
12335TIP3    H158496   2.239   5.424  13.706 -1.0059 -0.2001  0.0293
12335TIP3    H258497   2.187   5.451  13.846 -0.6047 -1.1597  0.3713
12336TIP3   OH258498   2.946   5.448   4.613 -0.1458  0.0092  0.5590
12336TIP3    H158499   2.914   5.477   4.698 -0.8697  1.5857 -0.2177
12336TIP3    H258500   2.934   5.353   4.614 -1.5597  0.1635  1.6406
12337TIP3   OH258501   3.904   4.979  15.476  0.0241 -0.0979  0.3962
12337TIP3    H158502   3.832   5.035  15.449 -0.7832 -1.9638 -1.6097
12337TIP3    H258503   3.981   5.037  15.478 -1.1727  1.5417  0.8232
12338TIP3   OH258504   0.707   2.017   5.864 -0.1097  0.1385  0.4098
12338TIP3    H158505   0.784   2.034   5.809  0.5259  2.0088  1.7584
12338TIP3    H258506   0.741   1.967   5.938  0.0590  1.7739  1.4856
12339TIP3   OH258507   1.809   6.112  16.415  0.7708 -0.9897 -0.5094
12339TIP3    H158508   1.754   6.064  16.354  0.0355 -0.1108 -0.5585
12339TIP3    H258509   1.796   6.204  16.392  0.9055 -0.6740  0.6047
12340TIP3   OH258510   0.335   0.214   0.001  0.3947  0.0973 -0.0597
12340TIP3    H158511   0.246   0.210  -0.035  0.2136  1.6811  0.1164
12340TIP3    H258512   0.389   0.242  -0.073  1.0114 -2.1790 -0.5226
12341TIP3   OH258513   1.457   1.382   5.952 -0.1160 -0.1630 -0.2312
12341TIP3    H158514   1.373   1.417   5.982  0.2197  0.6499 -0.2258
12341TIP3    H258515   1.434   1.298   5.910 -0.8202 -0.3434  0.4968
12342TIP3   OH258516   1.567   0.641   3.062 -0.0806 -0.2851 -0.0727
12342TIP3    H158517   1.505   0.676   2.998 -0.4814 -0.0587  0.4338
12342TIP3    H258518   1.648   0.690   3.045 -1.2191  2.6593  2.1019
12343TIP3   OH258519   6.077   3.116  11.655  0.4210  0.2431  0.0446
12343TIP3    H158520   6.113   3.203  11.640 -0.3783  0.3511 -1.4339
12343TIP3    H258521   6.080   3.074  11.569 -1.1973 -0.4029  0.2689
12344TIP3   OH258522   3.301   6.407  11.234 -0.2360  0.0626 -0.3609
12344TIP3    H158523   3.221   6.391  11.283 -0.1327 -0.0227 -0.2172
12344TIP3    H258524   3.307   6.503  11.228 -0.5603  0.0561 -0.7268
12345TIP3   OH258525   6.478   5.891   2.106 -0.4174  0.5700 -1.2716
12345TIP3    H158526   6.533   5.966   2.126 -0.0187 -0.2401  0.9490
12345TIP3    H258527   6.537   5.829   2.063 -0.2377  0.7197 -1.2405
12346TIP3   OH258528   0.767   2.700  14.372 -0.0100 -0.5972 -0.3713
12346TIP3    H158529   0.856   2.732  14.387 -0.6675  0.7303  1.0032
12346TIP3    H258530   0.741   2.735  14.287  0.1580  0.5147  0.0283
12347TIP3   OH258531   4.679   2.693   1.547  0.6716 -0.1076 -0.1367
12347TIP3    H158532   4.594   2.689   1.502 -0.0131 -0.2739  1.1374
12347TIP3    H258533   4.741   2.717   1.478 -0.5695  1.0888 -0.8831
12348TIP3   OH258534   1.086   3.608  15.896  0.1310  0.4486  0.0160
12348TIP3    H158535   1.122   3.582  15.981  1.6879  1.7529 -0.1957
12348TIP3    H258536   1.000   3.567  15.893 -0.4729  1.3320  2.7282
12349TIP3   OH258537   3.368   2.631   1.125 -0.0945  0.0536 -0.0354
12349TIP3    H158538   3.323   2.561   1.078  0.5790 -0.0229 -0.5796
12349TIP3    H258539   3.321   2.711   1.100 -0.2895 -0.0908 -0.1354
12350TIP3   OH258540   5.018   2.759  15.343 -0.2012  0.0732  0.1323
12350TIP3    H158541   4.985   2.846  15.368 -0.4491 -0.1994  0.7908
12350TIP3    H258542   5.055   2.724  15.425  2.3997  0.6449 -0.6837
12351TIP3   OH258543   2.968   3.614   4.069 -0.1863 -0.0580 -0.3096
12351TIP3    H158544   2.944   3.538   4.016  0.4377 -0.0069 -0.6864
12351TIP3    H258545   2.997   3.577   4.152 -1.5094 -0.1196  0.1523
12352TIP3   OH258546   2.005   6.324  15.154 -0.3593 -0.3683  0.2350
12352TIP3    H158547   1.958   6.399  15.189 -1.2910 -1.1024  0.5857
12352TIP3    H258548   2.075   6.363  15.101  1.0652  0.8025  2.7791
12353TIP3   OH258549   1.361   5.239   0.993  0.0835 -0.1631 -0.2317
12353TIP3    H158550   1.351   5.154   1.036  0.4315  0.4109  1.0057
12353TIP3    H258551   1.403   5.217   0.909  0.9532 -1.1465  0.4217
12354TIP3   OH258552   1.761   5.657  16.618 -0.0790 -0.3115 -0.5115
12354TIP3    H158553   1.787   5.617  16.701 -0.6243 -0.3628 -0.3593
12354TIP3    H258554   1.830   5.633  16.557 -0.0111 -0.8445 -0.2350
12355TIP3   OH258555   4.078   4.271   4.926  0.2048 -0.0313 -0.0740
12355TIP3    H158556   4.166   4.287   4.961  0.3465 -1.3826  0.2579
12355TIP3    H258557   4.045   4.358   4.904  1.1606  0.6160  0.9144
12356TIP3   OH258558   1.867   6.254   5.440 -0.1692  0.0311 -0.6329
12356TIP3    H158559   1.956   6.278   5.413  0.0668  1.3530  1.1283
12356TIP3    H258560   1.810   6.309   5.386  0.0315 -0.9889 -1.9326
12357TIP3   OH258561   0.668   0.344   2.504 -0.0633 -0.2403 -0.3685
12357TIP3    H158562   0.606   0.403   2.548 -0.6094 -0.3460 -0.9767
12357TIP3    H258563   0.725   0.313   2.573 -0.6563 -0.0851  0.2005
12358TIP3   OH258564   3.388   1.238   3.492 -0.4988 -0.0437  0.0222
12358TIP3    H158565   3.465   1.278   3.533 -2.1669  1.0607  2.2633
12358TIP3    H258566   3.403   1.144   3.499  1.3379  0.1160 -1.0504
12359TIP3   OH258567   1.497   3.338   6.409  0.3819  0.0314  0.1408
12359TIP3    H158568   1.538   3.397   6.345  2.0511 -1.5561 -0.3572
12359TIP3    H258569   1.427   3.389   6.448  0.3308  1.5854 -1.8502
12360TIP3   OH258570   6.441   5.836  11.145  0.1323 -0.1928 -0.0092
12360TIP3    H158571   6.450   5.749  11.106 -1.8231 -1.2677  1.7245
12360TIP3    H258572   6.369   5.876  11.095 -0.0241 -0.2080  0.2009
12361TIP3   OH258573   5.173   0.461  12.100  0.0481  0.1478  0.6164
12361TIP3    H158574   5.145   0.462  12.191 -2.6112 -0.8143 -0.0917
12361TIP3    H258575   5.114   0.399  12.057  1.1292  0.6533 -1.7953
12362TIP3   OH258576   2.946   4.890   6.410 -0.3774 -0.1564 -0.2047
12362TIP3    H158577   2.924   4.798   6.392 -1.4910  0.1483 -0.4694
12362TIP3    H258578   2.887   4.940   6.354  1.0204  0.7232 -0.9512
12363TIP3   OH258579   0.157   6.647  11.803 -0.4614  0.4989  0.4806
12363TIP3    H158580   0.072   6.605  11.791 -0.2005 -0.1217  0.7662
12363TIP3    H258581   0.210   6.613  11.731 -0.5772  1.2209  0.0483
12364TIP3   OH258582   2.401   2.800  15.726 -0.0446  0.1320  0.3057
12364TIP3    H158583   2.313   2.838  15.726 -0.4385 -0.7414  1.5021
12364TIP3    H258584   2.443   2.839  15.803  0.5103  0.2785 -0.0663
12365TIP3   OH258585   1.408   4.466  13.630 -0.4333  0.0656 -0.1237
12365TIP3    H158586   1.396   4.542  13.686 -5.2596 -1.8571  1.9720
12365TIP3    H258587   1.382   4.495  13.543 -0.0721  1.3209  0.1763
12366TIP3   OH258588   1.231   2.305  13.226  0.0815  0.5386  0.1901
12366TIP3    H158589   1.224   2.216  13.191 -2.3477  0.0683  1.6457
12366TIP3    H258590   1.286   2.351  13.163 -0.5992 -1.3517 -1.9167
12367TIP3   OH258591   3.341   4.330   3.486  0.2158  0.0696  0.5999
12367TIP3    H158592   3.322   4.242   3.454 -1.2118  0.0809  1.3297
12367TIP3    H258593   3.437   4.337   3.483  0.3568 -1.5070  0.5634
12368TIP3   OH258594   0.032   1.114   4.771 -0.7871 -0.1218  0.0107
12368TIP3    H158595   0.097   1.106   4.841 -0.3161  1.5532 -0.2079
12368TIP3    H258596  -0.008   1.199   4.785 -2.6214 -0.9027 -0.1687
12369TIP3   OH258597   4.806   1.848  14.159  0.4153 -0.1309 -0.3139
12369TIP3    H158598   4.860   1.912  14.113 -0.1841  1.0179  0.5526
12369TIP3    H258599   4.856   1.825  14.237 -0.4780  1.2589  0.7158
12370TIP3   OH258600   0.980   0.611   5.668  0.1927  0.3232  0.0706
12370TIP3    H158601   0.958   0.565   5.748  0.6200 -1.8816 -1.0074
12370TIP3    H258602   0.903   0.665   5.650  0.4554  1.5831  2.3772
12371TIP3   OH258603   0.877   3.197  16.827 -0.3550  0.4981 -0.2936
12371TIP3    H158604   0.912   3.284  16.847 -1.9240  1.2933 -0.8622
12371TIP3    H258605   0.938   3.161  16.763  2.3189 -0.3281  2.4712
12372TIP3   OH258606   2.112   6.421  13.601 -0.1500  0.2927 -0.3850
12372TIP3    H158607   2.091   6.416  13.695 -1.0070  0.3156 -0.5709
12372TIP3    H258608   2.149   6.335  13.580  0.3081  0.3803  0.0275
12373TIP3   OH258609   3.955   2.805  11.719  0.0086 -0.7759 -0.0962
12373TIP3    H158610   4.023   2.856  11.674  0.7216 -0.1423  1.6294
12373TIP3    H258611   4.000   2.759  11.789 -0.6570 -3.7077 -1.4203
12374TIP3   OH258612   4.548   3.713  12.647 -0.2727 -0.2111  0.6454
12374TIP3    H158613   4.561   3.791  12.701 -2.2268  1.1740 -0.7093
12374TIP3    H258614   4.561   3.745  12.557  0.0599 -1.7540  0.1190
12375TIP3   OH258615   3.457   6.324  16.866  0.5195 -0.2170 -0.2810
12375TIP3    H158616   3.380   6.269  16.879  0.1427  0.4076  0.1543
12375TIP3    H258617   3.433   6.383  16.794  0.5737  0.0080 -0.1152
12376TIP3   OH258618   4.975   6.163  12.908 -0.0731  0.4663 -0.3534
12376TIP3    H158619   4.898   6.201  12.866  0.4703  0.3653 -1.4662
12376TIP3    H258620   4.973   6.071  12.881  0.4683  0.4784 -0.4312
12377TIP3   OH258621   0.295   5.933  14.168 -0.0393  0.3435 -0.4324
12377TIP3    H158622   0.373   5.929  14.223 -0.7366  0.7060  0.6039
12377TIP3    H258623   0.277   5.842  14.144  0.7089  0.2635 -0.6906
12378TIP3   OH258624   1.992   1.117  12.141 -0.1217  0.3273  0.9710
12378TIP3    H158625   1.966   1.209  12.151 -0.2583  0.3418  0.5050
12378TIP3    H258626   2.080   1.113  12.179 -0.0734  0.6752  0.9030
12379TIP3   OH258627   5.473   0.437   4.073 -0.3099 -0.0383  0.3730
12379TIP3    H158628   5.432   0.363   4.028 -0.8679  0.9358 -0.7838
12379TIP3    H258629   5.407   0.506   4.070  0.9818  1.2195 -0.5452
12380TIP3   OH258630   5.009   3.312  13.835  0.2476  0.5566  0.2784
12380TIP3    H158631   5.063   3.391  13.839 -0.7817  1.3429 -0.8024
12380TIP3    H258632   4.961   3.312  13.917 -2.6075  3.2247 -1.2115
12381TIP3   OH258633   6.809   3.529   1.655  0.3522 -0.5076  0.5428
12381TIP3    H158634   6.879   3.558   1.597  0.5868 -1.1837  0.4814
12381TIP3    H258635   6.813   3.589   1.730  0.3882  0.0359  0.1122
12382TIP3   OH258636   3.882   1.229  13.286  0.1560  0.0541 -0.2745
12382TIP3    H158637   3.876   1.139  13.318  1.8590  0.3745  1.0607
12382TIP3    H258638   3.912   1.220  13.196 -1.6103 -0.7458 -0.8420
12383TIP3   OH258639   3.755   0.370   4.704  0.8031  0.0860  0.5522
12383TIP3    H158640   3.845   0.359   4.671  0.8778  0.0127  0.7813
12383TIP3    H258641   3.711   0.421   4.635  1.8804  2.9539  1.7985
12384TIP3   OH258642   2.956   1.752   1.696 -0.4260 -0.0448  0.4308
12384TIP3    H158643   2.885   1.695   1.666 -0.1511 -0.7734  1.1246
12384TIP3    H258644   2.960   1.736   1.791 -0.7519  1.5894  0.7472
12385TIP3   OH258645   4.890   6.641   0.787 -0.1616 -0.3305  1.0036
12385TIP3    H158646   4.911   6.553   0.757 -2.1477 -0.2409 -0.8544
12385TIP3    H258647   4.808   6.632   0.836 -0.6766  0.5408  0.3376
12386TIP3   OH258648   1.302   4.266   2.932  0.2463  0.2077  0.1406
12386TIP3    H158649   1.284   4.295   3.021 -1.0681 -0.0538 -0.0190
12386TIP3    H258650   1.237   4.198   2.915  0.9338 -0.2487 -0.7784
12387TIP3   OH258651   3.644   5.732  13.430  0.0639  0.0035 -0.0300
12387TIP3    H158652   3.592   5.665  13.474  1.4364 -0.3298  1.1537
12387TIP3    H258653   3.635   5.810  13.484  1.2150 -0.2188  0.5247
12388TIP3   OH258654   3.315   5.919  12.591 -0.5620 -0.4335  0.2960
12388TIP3    H158655   3.379   5.875  12.647  0.7313 -0.4023 -1.0934
12388TIP3    H258656   3.262   5.848  12.555  0.2520 -0.6998 -0.4064
12389TIP3   OH258657   3.062   5.146   1.397  0.1318 -0.0411  0.1468
12389TIP3    H158658   3.060   5.050   1.397  2.1134 -0.1193 -0.3481
12389TIP3    H258659   3.047   5.170   1.488  0.3410 -0.8538  0.4056
12390TIP3   OH258660   4.193   5.545  16.545  0.0211  0.1064  0.0421
12390TIP3    H158661   4.273   5.520  16.590 -1.3177 -0.7020  2.1245
12390TIP3    H258662   4.144   5.464  16.534 -0.6201  0.6045 -1.0268
12391TIP3   OH258663   6.104   4.722  13.197  0.0125  0.0492  0.2277
12391TIP3    H158664   6.092   4.807  13.239 -1.6770 -0.0045 -0.0609
12391TIP3    H258665   6.108   4.660  13.270 -0.7366  0.1802  0.3836
12392TIP3   OH258666   2.389   0.994  13.411  0.1897 -0.4416  0.4549
12392TIP3    H158667   2.426   1.040  13.487 -0.3068 -0.2267  0.5680
12392TIP3    H258668   2.311   0.950  13.445 -0.0933 -0.2593  0.0430
12393TIP3   OH258669   5.361   0.991  16.881  0.0200  0.0052  0.0942
12393TIP3    H158670   5.298   0.929  16.845  0.0613  1.0275 -1.9408
12393TIP3    H258671   5.446   0.949  16.870 -0.0339  0.0215 -0.4402
12394TIP3   OH258672   0.024   2.245  13.105  0.2490 -0.1099  0.2524
12394TIP3    H158673   0.051   2.168  13.053  0.7200 -0.6725  1.2977
12394TIP3    H258674   0.006   2.209  13.192  2.5454  1.2618  1.3622
12395TIP3   OH258675   4.058   4.997   6.116 -0.2838 -0.1580  0.0546
12395TIP3    H158676   3.981   4.967   6.165 -0.6252  0.3040 -0.1887
12395TIP3    H258677   4.103   5.056   6.177 -0.5590  0.1983 -0.0809
12396TIP3   OH258678   2.917   3.258  11.870 -0.8967  0.2225 -0.5815
12396TIP3    H158679   2.883   3.326  11.812  0.2040 -0.0844 -1.6271
12396TIP3    H258680   3.005   3.288  11.894 -1.0650 -0.0007  0.3690
12397TIP3   OH258681   6.095   1.606  11.516  0.5926  0.1710  0.0958
12397TIP3    H158682   6.177   1.583  11.472  1.7060  1.0113  1.6463
12397TIP3    H258683   6.027   1.587  11.451  2.0013 -0.4962 -1.2518
12398TIP3   OH258684   1.343   4.435  15.831  0.2543 -0.5558 -0.4769
12398TIP3    H158685   1.348   4.531  15.835 -3.0818 -0.2845 -0.0185
12398TIP3    H258686   1.432   4.406  15.850  0.9802  2.4161  1.4187
12399TIP3   OH258687   0.392   5.602  11.968  0.1363  0.4419 -0.7561
12399TIP3    H158688   0.451   5.539  12.010 -0.0253  0.1950 -0.9001
12399TIP3    H258689   0.420   5.605  11.877 -0.2239  0.1523 -0.8747
12400TIP3   OH258690   5.470   1.749   2.028 -0.1336  0.4688 -0.2535
12400TIP3    H158691   5.456   1.687   1.956  1.5621 -0.0415 -0.2095
12400TIP3    H258692   5.418   1.714   2.100 -1.4391  0.6935 -1.0685
12401TIP3   OH258693   1.480   3.039  15.996 -0.7661 -0.5375  0.0734
12401TIP3    H158694   1.481   2.979  16.070 -1.0656 -0.4004  0.1937
12401TIP3    H258695   1.528   3.116  16.027 -0.9048 -0.4738  0.1338
12402TIP3   OH258696   5.295   0.507  13.826 -0.2071 -0.1773 -0.3554
12402TIP3    H158697   5.381   0.465  13.836 -0.8503 -1.5535 -0.2969
12402TIP3    H258698   5.262   0.516  13.915 -0.5104 -0.5105 -0.4314
12403TIP3   OH258699   4.744   6.789   2.340  0.3192  0.2059  0.0701
12403TIP3    H158700   4.827   6.837   2.333  0.4523 -0.0654 -0.2153
12403TIP3    H258701   4.700   6.804   2.257  1.3078 -1.9012 -0.9137
12404TIP3   OH258702   0.133   4.033   4.162  0.4572 -0.1203 -0.1808
12404TIP3    H158703   0.145   4.009   4.254 -0.3768  0.4497  0.0946
12404TIP3    H258704   0.196   3.980   4.115  1.6950  0.4040  0.8275
12405TIP3   OH258705   4.870   1.900  13.472  0.2338 -0.2364 -0.4001
12405TIP3    H158706   4.874   1.885  13.566  1.7243  0.9440 -0.2217
12405TIP3    H258707   4.889   1.994  13.462  4.6361 -1.0563 -2.0131
12406TIP3   OH258708   5.735   2.788   2.538  0.4130 -0.6291  0.1365
12406TIP3    H158709   5.686   2.869   2.528  1.6904  0.0933 -0.5066
12406TIP3    H258710   5.670   2.719   2.529 -0.6531  0.3087  0.4133
12407TIP3   OH258711   5.601   4.930   2.786 -0.2021 -0.6738  0.5323
12407TIP3    H158712   5.534   4.989   2.821  1.1343  0.4507  1.2840
12407TIP3    H258713   5.611   4.958   2.695 -0.0327 -0.1634  0.7041
12408TIP3   OH258714   1.574   3.690  12.736  0.2777  0.1724  0.3450
12408TIP3    H158715   1.575   3.785  12.744  0.3139  0.2377 -0.3395
12408TIP3    H258716   1.522   3.673  12.657  2.5915 -0.2283 -1.2001
12409TIP3   OH258717   2.856   2.205   2.188 -0.1203  0.7335  0.2169
12409TIP3    H158718   2.893   2.168   2.268  1.6581  1.6545 -0.1243
12409TIP3    H258719   2.925   2.195   2.123 -1.0370  1.1935 -0.8609
12410TIP3   OH258720   6.690   6.328  12.335  0.6007 -0.1648 -0.6136
12410TIP3    H158721   6.661   6.313  12.425 -0.4193 -0.4493 -0.9775
12410TIP3    H258722   6.609   6.334  12.284  1.1286 -2.7745 -1.9617
12411TIP3   OH258723   1.025   4.259   3.525 -0.4252  0.2025 -0.3274
12411TIP3    H158724   1.115   4.237   3.548 -0.8039 -1.2560 -0.1649
12411TIP3    H258725   0.971   4.215   3.591 -1.2964  0.1948 -1.0185
12412TIP3   OH258726   0.891   3.095   2.979  0.1333  0.6243  0.8947
12412TIP3    H158727   0.937   3.067   3.059  0.2984  0.6874  0.8210
12412TIP3    H258728   0.952   3.155   2.936  0.2923  0.1255  0.4156
12413TIP3   OH258729   1.611   1.477  14.466  0.5920  0.2115 -0.4941
12413TIP3    H158730   1.593   1.472  14.373 -1.1539 -2.6885 -0.1216
12413TIP3    H258731   1.687   1.420  14.479  1.7141  1.6876 -0.2542
12414TIP3   OH258732   3.871   1.166   6.099 -0.0966  0.4507  0.0793
12414TIP3    H158733   3.912   1.080   6.100 -0.3972  0.2054 -2.4219
12414TIP3    H258734   3.878   1.197   6.190  0.3991 -1.9894  0.9475
12415TIP3   OH258735   4.671   5.419  16.938  0.2191  0.7345  0.3719
12415TIP3    H158736   4.673   5.496  16.994  0.3905  0.3449  0.9031
12415TIP3    H258737   4.666   5.455  16.849 -1.8657  1.3620  0.6818
12416TIP3   OH258738   4.569   6.782   1.570  0.0174 -0.2049 -0.3349
12416TIP3    H158739   4.643   6.778   1.632 -0.4295  0.1635  0.2316
12416TIP3    H258740   4.509   6.845   1.609 -0.0688  0.3797 -1.3833
12417TIP3   OH258741   0.057   0.438   4.290  0.2056  0.5114  0.2464
12417TIP3    H158742   0.086   0.445   4.199 -0.7837  0.9572 -0.0507
12417TIP3    H258743   0.135   0.410   4.338  0.0803 -2.9104 -1.2082
12418TIP3   OH258744   4.941   3.144  11.599 -0.6746 -0.1291  0.2029
12418TIP3    H158745   5.017   3.092  11.575 -0.1362  0.3613  0.8153
12418TIP3    H258746   4.964   3.234  11.575 -1.2075 -0.0263  0.0484
12419TIP3   OH258747   4.490   5.171  13.524 -0.6747  0.1545  0.3100
12419TIP3    H158748   4.487   5.076  13.539 -0.2075  0.3076  1.5203
12419TIP3    H258749   4.460   5.182  13.434  2.2671 -1.4394 -1.0205
12420TIP3   OH258750   4.086   0.743   2.516  0.6688  0.0305 -0.2709
12420TIP3    H158751   4.073   0.837   2.525  0.2896  0.0671 -1.0940
12420TIP3    H258752   4.116   0.714   2.602 -1.0112  0.6103  0.5520
12421TIP3   OH258753   3.634   2.674  11.565 -0.5422 -0.0945 -0.4523
12421TIP3    H158754   3.542   2.681  11.540 -0.4561 -1.6985 -1.3441
12421TIP3    H258755   3.651   2.580  11.569  1.4670  0.1429 -1.8736
12422TIP3   OH258756   3.918   2.075  11.306  0.3643  0.0016  0.2532
12422TIP3    H158757   3.840   2.131  11.307  0.4553  0.2912 -2.1717
12422TIP3    H258758   3.991   2.136  11.314  0.4140  0.1258 -0.9313
12423TIP3   OH258759   2.223   2.011   5.728 -0.4696  0.0047 -0.2505
12423TIP3    H158760   2.316   2.018   5.709  0.0536  0.3612  2.0585
12423TIP3    H258761   2.190   1.945   5.668  1.7603 -1.7638  0.3574
12424TIP3   OH258762   0.162   6.707  14.593 -0.3980  0.4235  0.0223
12424TIP3    H158763   0.149   6.759  14.514 -0.0516 -0.4472 -0.6263
12424TIP3    H258764   0.098   6.636  14.585  0.5401 -0.4175 -0.1465
12425TIP3   OH258765   3.514   5.721  15.175 -0.3469  0.4566 -0.1830
12425TIP3    H158766   3.418   5.717  15.177 -0.3146 -0.6559 -0.0677
12425TIP3    H258767   3.535   5.810  15.203 -1.2979  0.1731  1.5706
12426TIP3   OH258768   6.163   4.806   1.760 -0.1840  0.5244 -0.4639
12426TIP3    H158769   6.213   4.849   1.691  0.2933 -0.3916 -0.7099
12426TIP3    H258770   6.151   4.716   1.729  0.9378 -0.2141  1.0746
12427TIP3   OH258771   4.053   0.329   4.731 -0.0167 -0.3540  0.0590
12427TIP3    H158772   4.081   0.281   4.810  0.4459  1.0227  0.7657
12427TIP3    H258773   4.111   0.405   4.728  0.5190 -0.7965 -2.0944
12428TIP3   OH258774   5.828   0.948   4.620 -0.2441  1.0166  0.0269
12428TIP3    H158775   5.744   0.969   4.580  0.1909  1.3868 -0.7090
12428TIP3    H258776   5.889   1.012   4.583  0.1243  1.5248  1.4661
12429TIP3   OH258777   1.556   1.651  12.809 -0.6671  0.6736 -0.2071
12429TIP3    H158778   1.617   1.685  12.873 -2.2489 -0.0304  1.7757
12429TIP3    H258779   1.567   1.707  12.732  1.6414  1.2153  0.4512
12430TIP3   OH258780   0.625   3.030  14.478  0.0611  0.2040 -0.4231
12430TIP3    H158781   0.559   2.973  14.439  0.2182 -0.5527  0.3874
12430TIP3    H258782   0.687   2.970  14.519  0.5872  0.9429 -0.1205
12431TIP3   OH258783   6.714   6.793  17.065  0.0943  0.0447 -0.1422
12431TIP3    H158784   6.720   6.704  17.099 -1.1902  0.2098  0.5536
12431TIP3    H258785   6.725   6.849  17.142  0.2084  0.4766 -0.4716
12432TIP3   OH258786   4.229   3.379   5.213 -0.2496  0.1305 -0.5430
12432TIP3    H158787   4.277   3.330   5.147  0.0767 -0.0998 -0.1442
12432TIP3    H258788   4.149   3.330   5.227  0.4891 -0.8294  0.5274
12433TIP3   OH258789   4.335   1.160   2.629 -0.1762 -0.0157 -0.0356
12433TIP3    H158790   4.334   1.092   2.562  2.0445 -0.9810  0.8153
12433TIP3    H258791   4.363   1.239   2.583  0.0423 -0.3524 -0.4882
12434TIP3   OH258792   5.662   3.250   2.678  0.2020 -0.2002  0.6269
12434TIP3    H158793   5.630   3.336   2.653  1.0642 -0.2189 -0.5843
12434TIP3    H258794   5.743   3.238   2.629 -0.0248 -1.7963  0.5811
12435TIP3   OH258795   2.623   4.916   1.832 -0.0897 -0.6538 -0.3857
12435TIP3    H158796   2.666   4.860   1.768  1.0148 -0.2856  0.0227
12435TIP3    H258797   2.692   4.974   1.865 -1.4915  2.1391 -2.0124
12436TIP3   OH258798   5.220   5.076   4.859  0.8906 -0.1749 -0.0883
12436TIP3    H158799   5.159   5.141   4.893  2.2549  0.2330  1.6981
12436TIP3    H258800   5.283   5.127   4.807  0.7854 -0.3583 -0.4010
12437TIP3   OH258801   5.836   1.788   1.447 -0.0923 -0.4344 -0.6578
12437TIP3    H158802   5.810   1.736   1.371  0.4835  0.4900 -1.5128
12437TIP3    H258803   5.894   1.729   1.497 -1.5485 -1.5270 -0.1744
12438TIP3   OH258804   0.914   6.589   2.235 -0.5923  0.0374  0.5905
12438TIP3    H158805   0.831   6.627   2.204  0.0600 -0.0507 -1.3988
12438TIP3    H258806   0.895   6.496   2.243 -1.1666  0.2511  1.8861
12439TIP3   OH258807   1.886   6.138  13.488  0.1763  0.5275  0.1687
12439TIP3    H158808   1.936   6.106  13.562  1.1916 -0.6441 -0.9612
12439TIP3    H258809   1.933   6.106  13.411 -1.5255  0.5855 -0.9720
12440TIP3   OH258810   5.129   3.018   4.564  0.3744 -0.5967 -0.5452
12440TIP3    H158811   5.152   2.925   4.564  1.7034 -0.3068 -2.2651
12440TIP3    H258812   5.206   3.062   4.602  0.4661 -0.0615 -1.3362
12441TIP3   OH258813   4.556   1.312   6.092  0.0549  0.6830 -0.3057
12441TIP3    H158814   4.586   1.369   6.162 -0.2008  0.3827  0.0522
12441TIP3    H258815   4.606   1.231   6.104 -1.1497  0.0214  0.5499
12442TIP3   OH258816   4.184   6.763   2.497  0.3328  0.9117 -0.6150
12442TIP3    H158817   4.123   6.689   2.500 -0.0869  1.2764  0.1675
12442TIP3    H258818   4.134   6.833   2.454  0.4847  0.9585 -0.7158
12443TIP3   OH258819   5.400   0.780   2.055 -0.4143  0.4498 -0.0695
12443TIP3    H158820   5.410   0.708   2.118 -3.3692 -0.0675 -0.0647
12443TIP3    H258821   5.373   0.855   2.108  1.8305  1.4175 -0.1904
12444TIP3   OH258822   5.729   2.596  13.932  0.1590 -0.0791 -0.0111
12444TIP3    H158823   5.783   2.517  13.930  0.3716 -0.0934 -4.2982
12444TIP3    H258824   5.658   2.577  13.870 -1.6733  1.9250  1.3407
12445TIP3   OH258825   1.734   6.813  16.714 -0.1550 -0.2595  0.0562
12445TIP3    H158826   1.813   6.865  16.726 -0.5317  0.2965  0.1608
12445TIP3    H258827   1.766   6.724  16.698  0.4627 -0.2134  0.9852
12446TIP3   OH258828   1.445   6.657   4.457 -0.0937  0.1985 -0.1893
12446TIP3    H158829   1.377   6.663   4.524  1.1294 -0.9031  1.2237
12446TIP3    H258830   1.408   6.599   4.390 -0.6248 -0.2150  0.4517
12447TIP3   OH258831   3.779   3.697   6.754 -0.4808  0.1393  0.1190
12447TIP3    H158832   3.685   3.685   6.736  0.2400 -0.8547 -3.7406
12447TIP3    H258833   3.809   3.612   6.785 -0.2835 -0.5941 -1.9627
12448TIP3   OH258834   2.058   5.720   2.235 -0.0003  0.0524 -0.1386
12448TIP3    H158835   2.138   5.686   2.275 -0.0828  0.7380  0.6337
12448TIP3    H258836   1.998   5.731   2.308  1.1547  5.2780  0.3835
12449TIP3   OH258837   3.454   2.553  14.879  0.5385 -0.2288  0.1198
12449TIP3    H158838   3.405   2.579  14.800 -0.6959 -0.1735  0.8774
12449TIP3    H258839   3.478   2.635  14.921 -1.2746 -0.2122  1.2507
12450TIP3   OH258840   1.211   0.383  16.458 -0.0132 -0.1822 -0.1213
12450TIP3    H158841   1.241   0.345  16.541  0.9821 -1.8802 -1.1920
12450TIP3    H258842   1.267   0.342  16.392 -0.1851  1.7924 -1.5701
12451TIP3   OH258843   2.490   3.113   3.484  0.2724  0.1503  0.2132
12451TIP3    H158844   2.451   3.091   3.569 -0.8251 -0.5928 -0.4537
12451TIP3    H258845   2.435   3.067   3.420  2.0691 -0.6485 -0.8132
12452TIP3   OH258846   1.106   4.855  14.286 -0.2727 -0.8263  0.6633
12452TIP3    H158847   1.143   4.807  14.361 -0.9421  0.9061  2.1872
12452TIP3    H258848   1.157   4.936  14.282 -0.0856 -0.9917 -0.9639
12453TIP3   OH258849   6.621   5.863   2.532 -0.0044 -0.0007  0.3450
12453TIP3    H158850   6.657   5.941   2.575  0.0407  1.1187 -1.6268
12453TIP3    H258851   6.661   5.862   2.445 -1.9503 -0.7650 -0.6099
12454TIP3   OH258852   0.205   6.337  13.030  0.3295  0.6599 -0.5706
12454TIP3    H158853   0.270   6.301  12.969 -0.1712 -0.7495 -0.3183
12454TIP3    H258854   0.200   6.430  13.008  0.5489  0.2862 -2.3240
12455TIP3   OH258855   6.250   0.360  16.053  0.0272  0.4151 -0.1959
12455TIP3    H158856   6.226   0.297  16.121  0.5993 -1.5944 -1.7682
12455TIP3    H258857   6.184   0.349  15.986  1.2251  0.0580 -1.3564
12456TIP3   OH258858   6.445   5.132  15.520 -0.0999 -0.0288  0.2344
12456TIP3    H158859   6.481   5.101  15.437  0.9292  1.2819  0.1496
12456TIP3    H258860   6.353   5.150  15.501  0.1492  0.3492 -0.6626
12457TIP3   OH258861   0.286   3.803   2.286  0.5061 -0.1166 -0.1608
12457TIP3    H158862   0.362   3.862   2.282  0.2597  0.3922  1.5830
12457TIP3    H258863   0.295   3.746   2.210  1.6047  1.1696 -1.0298
12458TIP3   OH258864   2.449   4.893   5.805  0.3327 -0.2809 -0.2282
12458TIP3    H158865   2.469   4.934   5.889 -1.7626 -1.0580  0.7186
12458TIP3    H258866   2.502   4.814   5.803  0.5988 -0.1135  0.2441
12459TIP3   OH258867   1.967   4.529  13.371 -0.7934  0.2727  0.3457
12459TIP3    H158868   1.884   4.482  13.366  0.1211 -1.3523 -0.2324
12459TIP3    H258869   1.972   4.578  13.289 -0.5360 -0.7635 -0.2659
12460TIP3   OH258870   5.564   6.402  11.691  0.4585 -0.8733  0.2206
12460TIP3    H158871   5.622   6.426  11.618 -0.7688  2.0017  0.0470
12460TIP3    H258872   5.476   6.424  11.660 -0.2213 -0.7366  2.1199
12461TIP3   OH258873   5.625   2.000  13.376 -0.2796 -0.5653  0.5133
12461TIP3    H158874   5.650   2.092  13.370 -1.5427 -0.1836  0.7723
12461TIP3    H258875   5.592   1.978  13.289 -0.2247 -0.6978  0.5261
12462TIP3   OH258876   2.124   3.201  12.494 -0.0002 -0.1567  0.2189
12462TIP3    H158877   2.140   3.107  12.491  1.6155  0.0172  1.7220
12462TIP3    H258878   2.082   3.215  12.579  2.1430  0.7453  1.1877
12463TIP3   OH258879   2.288   5.941   1.365  0.8146  0.9416  0.1831
12463TIP3    H158880   2.295   5.958   1.271  0.0970 -0.1998 -0.0943
12463TIP3    H258881   2.348   5.868   1.380  0.6577  0.8883  0.5532
12464TIP3   OH258882   2.301   5.581   0.073  0.7968  0.5487  0.0045
12464TIP3    H158883   2.324   5.669   0.101  1.5487 -0.0057  1.1976
12464TIP3    H258884   2.259   5.541   0.149 -0.4144  0.1682 -0.8276
12465TIP3   OH258885   6.001   4.227   2.519  0.1677  0.3102  0.3274
12465TIP3    H158886   5.910   4.245   2.494  0.2554  0.7775  0.3317
12465TIP3    H258887   6.000   4.136   2.548 -0.5625  0.6678  1.5359
12466TIP3   OH258888   2.501   0.178   2.071 -0.1625 -0.0717  0.5956
12466TIP3    H158889   2.513   0.176   2.166  1.7610 -0.4985  0.3950
12466TIP3    H258890   2.469   0.267   2.053 -1.7433 -0.3709  1.7168
12467TIP3   OH258891   5.667   2.191  14.701 -0.2517  0.1479 -0.1422
12467TIP3    H158892   5.656   2.286  14.697 -2.5747 -0.0379  0.4194
12467TIP3    H258893   5.640   2.160  14.615  1.4247  0.0168 -0.6581
12468TIP3   OH258894   5.240   6.601   2.187  0.2998  0.0094  0.0781
12468TIP3    H158895   5.326   6.558   2.189  0.2942 -0.0754 -1.1698
12468TIP3    H258896   5.178   6.530   2.200  0.4118  0.1680  1.7751
12469TIP3   OH258897   4.154   2.593  14.985  0.7039 -0.0258 -0.6006
12469TIP3    H158898   4.134   2.669  14.930  2.5153 -1.6621 -3.7342
12469TIP3    H258899   4.085   2.530  14.965  0.5288 -0.1164  0.2275
12470TIP3   OH258900   2.201   0.259   1.313 -0.3209  0.4231 -0.0378
12470TIP3    H158901   2.173   0.173   1.282 -1.2028  0.6141  0.1943
12470TIP3    H258902   2.166   0.265   1.402  1.1076  0.3855  0.5661
12471TIP3   OH258903   5.722   6.485  11.486  0.4227  0.2028  0.3474
12471TIP3    H158904   5.645   6.497  11.431 -1.1012 -0.2788  2.2551
12471TIP3    H258905   5.744   6.574  11.515  1.9219  0.6104 -1.7939
12472TIP3   OH258906   4.192   4.325   6.577  0.2892 -0.0266  0.1825
12472TIP3    H158907   4.251   4.285   6.641 -0.4522 -1.0450  0.2490
12472TIP3    H258908   4.217   4.418   6.577  1.7511 -0.3874  0.3395
12473TIP3   OH258909   5.208   2.413  16.443  0.0276  0.3896  0.3899
12473TIP3    H158910   5.202   2.346  16.511  3.4242 -2.0319 -1.4000
12473TIP3    H258911   5.155   2.379  16.371  1.9319 -0.6344 -0.6034
12474TIP3   OH258912   5.960   2.058  14.884  0.1670  0.2761  0.0640
12474TIP3    H158913   5.968   2.153  14.894  1.0956  0.1380  0.7234
12474TIP3    H258914   6.050   2.026  14.885 -0.0237 -0.4446 -2.0965
12475TIP3   OH258915   3.682   5.951  17.067  0.2224 -0.1359  0.3005
12475TIP3    H158916   3.654   5.921  17.153  1.8411  1.6615  1.5460
12475TIP3    H258917   3.689   6.046  17.076 -0.9455  0.2632 -2.2759
12476TIP3   OH258918   0.327   1.976   0.774  0.3251  0.2557  0.0171
12476TIP3    H158919   0.412   2.019   0.768  0.3805  0.1563  0.0793
12476TIP3    H258920   0.263   2.045   0.756  0.4407  0.2029 -0.6259
12477TIP3   OH258921   6.647   6.061   4.106 -0.5678 -0.2834  0.0617
12477TIP3    H158922   6.721   6.056   4.045 -1.3882 -0.9477 -0.9139
12477TIP3    H258923   6.573   6.087   4.051 -1.1765 -0.1583  0.9244
12478TIP3   OH258924   6.725   0.597  11.854  0.3086 -0.4607  0.6903
12478TIP3    H158925   6.644   0.582  11.903 -0.2494 -0.8964 -0.3485
12478TIP3    H258926   6.742   0.515  11.809  1.0425 -0.2004  0.4812
12479TIP3   OH258927   6.695   2.519   1.411  0.0937 -1.0150 -0.0702
12479TIP3    H158928   6.608   2.558   1.401 -0.5627 -1.8424  1.9637
12479TIP3    H258929   6.756   2.592   1.397 -0.7603 -0.7885 -3.4096
12480TIP3   OH258930   0.526   3.325  10.492 -1.0276 -0.0985 -0.0562
12480TIP3    H158931   0.519   3.350  10.584 -0.3739  0.0761 -0.0479
12480TIP3    H258932   0.615   3.291  10.484 -0.4440  1.5454 -1.0110
12481TIP3   OH258933   3.914   4.766   3.952  0.5071 -0.1945 -0.0230
12481TIP3    H158934   3.964   4.847   3.943  1.7139 -0.8720  0.3323
12481TIP3    H258935   3.954   4.721   4.027  0.1925 -1.3513 -0.5201
12482TIP3   OH258936   1.580   0.859  15.288  0.2920 -0.1588 -0.4329
12482TIP3    H158937   1.585   0.923  15.359  0.4156  0.1928 -0.7569
12482TIP3    H258938   1.617   0.778  15.325  1.6538  0.3965 -0.5351
12483TIP3   OH258939   0.240   3.901  15.323  0.0483  0.0836  0.4121
12483TIP3    H158940   0.258   3.977  15.379 -1.1667  0.9867 -0.3640
12483TIP3    H258941   0.221   3.830  15.385  0.8511  0.4846  1.1481
12484TIP3   OH258942   4.498   2.470  17.121 -0.2316 -0.8192  0.1590
12484TIP3    H158943   4.563   2.399  17.124 -0.8212 -1.3990 -0.4685
12484TIP3    H258944   4.485   2.493  17.213  1.1610 -0.4022  0.2852
12485TIP3   OH258945   6.440   2.666   3.227 -0.2956  0.0284  0.0971
12485TIP3    H158946   6.380   2.645   3.155  0.6716 -1.5705 -0.3136
12485TIP3    H258947   6.484   2.746   3.199 -2.2715  1.3209  0.4745
12486TIP3   OH258948   5.507   4.781  13.066 -0.0339  0.2647  0.5864
12486TIP3    H158949   5.434   4.730  13.098 -1.0817  1.2055 -0.2240
12486TIP3    H258950   5.523   4.748  12.977  0.6826 -0.0893  0.8397
12487TIP3   OH258951   5.903   2.172   0.912  0.0519  0.0506  0.4920
12487TIP3    H158952   5.987   2.216   0.902 -0.2869  0.5351 -0.3349
12487TIP3    H258953   5.881   2.141   0.824  0.0214 -1.3139  0.9589
12488TIP3   OH258954   1.824   5.106  14.173  0.4201 -0.1494 -0.5863
12488TIP3    H158955   1.865   5.031  14.130  0.0295 -0.5522 -0.2633
12488TIP3    H258956   1.807   5.077  14.262 -2.2892 -0.6986 -1.1702
12489TIP3   OH258957   4.437   5.914   1.435 -0.7358 -0.4345  0.2084
12489TIP3    H158958   4.467   5.964   1.511  0.6315  0.4066 -0.8392
12489TIP3    H258959   4.362   5.963   1.402  0.7651  1.1997 -0.9830
12490TIP3   OH258960   5.719   2.946   0.035 -0.5652 -0.0974  0.6950
12490TIP3    H158961   5.805   2.943  -0.008 -0.0658 -0.6025  1.6947
12490TIP3    H258962   5.696   2.854   0.049 -1.1929  0.0402  0.5975
12491TIP3   OH258963   4.077   5.313   1.724 -0.1863 -0.3730 -0.0590
12491TIP3    H158964   4.129   5.237   1.748  3.6699  2.4058  1.5456
12491TIP3    H258965   4.050   5.351   1.808 -0.5789  0.8953 -0.7288
12492TIP3   OH258966   4.577   5.347  12.598 -0.3668 -0.1644 -0.5106
12492TIP3    H158967   4.560   5.352  12.504 -1.5550  0.1200 -0.3058
12492TIP3    H258968   4.550   5.433  12.632 -0.9425 -0.6117  0.2116
12493TIP3   OH258969   0.272   3.604  15.218 -0.2019 -0.2799  0.4380
12493TIP3    H158970   0.343   3.638  15.273 -1.1255  1.2562  0.7290
12493TIP3    H258971   0.301   3.622  15.129 -0.9048  1.9151  0.5866
12494TIP3   OH258972   4.082   1.136  14.799 -0.3290  0.3932  0.1563
12494TIP3    H158973   4.026   1.117  14.875 -0.5754 -0.2628 -0.1876
12494TIP3    H258974   4.049   1.219  14.765 -0.9038  0.1576  0.1337
12495TIP3   OH258975   4.398   5.530   2.786 -0.2391  0.7150  0.1417
12495TIP3    H158976   4.400   5.436   2.770  0.1306  0.8304 -0.5028
12495TIP3    H258977   4.488   5.552   2.811 -0.2794  0.9320  0.0968
12496TIP3   OH258978   1.088   1.573   1.284  0.1456 -0.0539 -0.2742
12496TIP3    H158979   1.127   1.487   1.266  0.0373  0.0326 -0.9552
12496TIP3    H258980   1.151   1.616   1.341  1.0218  0.0413 -1.2756
12497TIP3   OH258981   4.009   3.116  12.574 -0.1176  0.1180 -0.2596
12497TIP3    H158982   4.015   3.034  12.525 -0.3940  1.0499 -1.9078
12497TIP3    H258983   4.031   3.184  12.511  0.5644  1.3054  1.1999
12498TIP3   OH258984   0.468   0.879  15.256 -0.0613  0.4187 -0.3768
12498TIP3    H158985   0.408   0.846  15.324 -1.0145  1.3903 -0.7307
12498TIP3    H258986   0.537   0.923  15.305 -0.2552  0.3230 -0.0109
12499TIP3   OH258987   1.308   5.121   2.569  0.0608  0.1829 -0.3130
12499TIP3    H158988   1.255   5.139   2.647  1.2818  2.3204  0.0935
12499TIP3    H258989   1.397   5.143   2.594  1.2443 -3.0986 -1.0571
12500TIP3   OH258990   2.533   5.388  11.684 -0.1949  0.5696 -0.2442
12500TIP3    H158991   2.504   5.348  11.601 -1.9470 -0.7880  0.9358
12500TIP3    H258992   2.613   5.435  11.661  1.1642 -2.3346 -2.1212
12501TIP3   OH258993   0.771   1.196  12.690  0.5138 -0.3400  0.4745
12501TIP3    H158994   0.829   1.139  12.742  0.4229 -0.2640  0.6590
12501TIP3    H258995   0.683   1.161  12.706  0.2798  0.7268  1.7509
12502TIP3   OH258996   6.038   1.922   4.179  0.0877 -0.1077  0.3938
12502TIP3    H158997   6.022   1.945   4.271  1.2363  0.1232  0.5498
12502TIP3    H258998   6.038   1.826   4.179 -1.4649 -0.1406  0.3296
12503TIP3   OH258999   3.618   5.264  15.843  0.4158  0.7519  0.3025
12503TIP3    H159000   3.699   5.279  15.891  0.7459  1.0755 -0.3365
12503TIP3    H259001   3.597   5.350  15.806  1.0832  0.1794 -1.5107
12504TIP3   OH259002   2.217   5.386   3.233  0.2060 -0.1880  0.4561
12504TIP3    H159003   2.272   5.443   3.180  2.5456 -2.7855 -0.1811
12504TIP3    H259004   2.247   5.401   3.323 -1.4082  1.7530  0.7426
12505TIP3   OH259005   0.965   3.843  11.671  0.9540  0.1353  0.2373
12505TIP3    H159006   0.905   3.913  11.696  0.7129 -0.3622  1.0888
12505TIP3    H259007   1.044   3.888  11.644 -0.1039  0.8535 -1.8630
12506TIP3   OH259008   2.104   1.856  11.259  0.2238 -0.5763 -0.1270
12506TIP3    H159009   2.032   1.841  11.198 -0.1640 -0.4735  0.2943
12506TIP3    H259010   2.091   1.791  11.328  0.1365 -0.1181  0.2976
12507TIP3   OH259011   3.284   2.159  12.745  0.2445 -0.4635 -0.0878
12507TIP3    H159012   3.305   2.236  12.692 -0.8045 -0.9152 -1.1956
12507TIP3    H259013   3.345   2.091  12.715 -0.3149 -0.7043 -0.6907
12508TIP3   OH259014   1.080   5.845   5.987 -0.1979  0.1920 -0.5034
12508TIP3    H159015   1.064   5.756   5.957 -2.1113  0.3794 -0.1573
12508TIP3    H259016   1.084   5.839   6.083 -0.7714  0.5386 -0.4546
12509TIP3   OH259017   2.226   0.604   1.664 -0.0481  0.1384 -0.7644
12509TIP3    H159018   2.152   0.608   1.603 -0.6563 -2.0618 -0.2573
12509TIP3    H259019   2.195   0.652   1.741 -0.7168 -0.2526 -0.7816
12510TIP3   OH259020   5.183   5.449   4.723 -0.3165  0.1774  0.1638
12510TIP3    H159021   5.199   5.487   4.637 -1.8153 -0.1021 -0.2668
12510TIP3    H259022   5.213   5.358   4.716 -1.1229 -0.0614 -0.3166
12511TIP3   OH259023   5.935   0.842   4.361  0.1951 -0.0030 -0.4937
12511TIP3    H159024   5.886   0.769   4.400 -0.6492  1.2320  0.8680
12511TIP3    H259025   5.971   0.890   4.436  1.4322  0.5228 -1.3931
12512TIP3   OH259026   5.158   2.456  11.909  0.1159  0.4269  0.0959
12512TIP3    H159027   5.243   2.491  11.935  0.1315  1.2245 -1.0030
12512TIP3    H259028   5.133   2.506  11.832  0.5158 -2.5183 -2.1045
12513TIP3   OH259029   3.252   0.557  16.675 -0.3155 -0.1381 -0.0459
12513TIP3    H159030   3.243   0.530  16.767 -2.7993 -0.9672 -0.4640
12513TIP3    H259031   3.247   0.476  16.625  0.1981  0.3829 -0.9743
12514TIP3   OH259032   1.665   1.118   6.391  0.5934 -0.2648  0.2548
12514TIP3    H159033   1.593   1.069   6.351 -0.4297  1.1519  0.2913
12514TIP3    H259034   1.737   1.111   6.329  0.5890 -2.0329  0.3902
12515TIP3   OH259035   3.065   4.644   1.117 -0.1844  0.2545 -0.4927
12515TIP3    H159036   2.971   4.652   1.106 -0.1881  0.7116 -0.1809
12515TIP3    H259037   3.096   4.735   1.120  0.1955  0.1126 -0.0258
12516TIP3   OH259038   3.230   3.630   4.078 -0.1494  0.3860 -0.6452
12516TIP3    H159039   3.283   3.580   4.016  0.6264 -0.6906  0.8372
12516TIP3    H259040   3.140   3.613   4.051  0.1011 -1.6092 -0.3892
12517TIP3   OH259041   2.011   3.116  13.635  0.0722  0.6557  0.0154
12517TIP3    H159042   2.074   3.162  13.690 -0.1033  1.3054 -0.3113
12517TIP3    H259043   1.926   3.135  13.675 -0.3273  3.1464 -1.7620
12518TIP3   OH259044   4.832   2.596  12.253 -0.3956 -1.0983 -0.6786
12518TIP3    H159045   4.853   2.504  12.269  1.5827 -0.4802  0.6668
12518TIP3    H259046   4.764   2.593  12.186  0.5256 -3.5075 -1.6561
12519TIP3   OH259047   3.801   6.518   5.378 -0.0341  0.0966 -0.6751
12519TIP3    H159048   3.728   6.470   5.339  0.1464 -0.3565 -0.4634
12519TIP3    H259049   3.833   6.573   5.308 -0.0076 -0.3703 -1.0356
12520TIP3   OH259050   1.310   3.901   2.765  0.2735 -0.6730  0.1154
12520TIP3    H159051   1.324   3.902   2.860 -0.6947 -2.4614  0.3257
12520TIP3    H259052   1.387   3.857   2.730  0.9510  0.5750 -0.0366
12521TIP3   OH259053   0.258   0.960   2.913  0.2067 -0.2405 -0.1850
12521TIP3    H159054   0.211   1.043   2.905  2.3439  1.0620 -0.0689
12521TIP3    H259055   0.257   0.924   2.825  0.0222  0.3527 -0.4346
12522TIP3   OH259056   4.771   0.168   3.454  0.0464 -0.1469  0.4176
12522TIP3    H159057   4.720   0.222   3.394  1.5756 -0.7711 -1.5875
12522TIP3    H259058   4.759   0.079   3.422  0.2909 -0.6087  1.5579
12523TIP3   OH259059   5.522   6.666  16.365  0.1292 -0.0709 -0.2317
12523TIP3    H159060   5.578   6.719  16.422  0.1054 -0.6349  0.3266
12523TIP3    H259061   5.462   6.729  16.326  0.8388  0.4755 -0.4649
12524TIP3   OH259062   3.493   2.834   0.133 -0.0529  0.1721  0.2387
12524TIP3    H159063   3.513   2.927   0.128 -3.2806  1.1700  2.6438
12524TIP3    H259064   3.418   2.822   0.075 -0.7596 -0.5130  1.2608
12525TIP3   OH259065   6.600   4.367  14.292 -0.3202 -0.6115  0.0198
12525TIP3    H159066   6.574   4.430  14.225  0.1604 -1.8764 -1.4270
12525TIP3    H259067   6.593   4.282  14.248  2.4692 -1.3136  0.7549
12526TIP3   OH259068   0.558   0.861   3.291 -0.1434 -0.1760 -0.4841
12526TIP3    H159069   0.573   0.860   3.197  1.1607 -0.9032 -0.2957
12526TIP3    H259070   0.562   0.769   3.317 -1.1432 -0.0448  0.1887
12527TIP3   OH259071   5.608   6.393  14.599  0.3224  0.3520  0.2603
12527TIP3    H159072   5.605   6.301  14.574  1.7969  0.0126  1.1778
12527TIP3    H259073   5.699   6.407  14.628  0.0290  1.9936  0.4942
12528TIP3   OH259074   6.524   3.632  17.161 -0.2281 -0.1877 -0.0270
12528TIP3    H159075   6.480   3.648  17.245  0.9108  1.1688  0.3562
12528TIP3    H259076   6.609   3.676  17.170  0.1680 -0.5512 -1.6686
12529TIP3   OH259077   0.168   5.485  13.700  0.1492 -0.2337 -0.3984
12529TIP3    H159078   0.075   5.469  13.715 -0.3643  0.0714 -2.8482
12529TIP3    H259079   0.207   5.397  13.702 -0.4117 -0.4946 -0.6616
12530TIP3   OH259080   3.904   0.239  16.694 -0.0223 -0.0336 -0.0885
12530TIP3    H159081   3.882   0.302  16.762 -0.1185 -0.1760  0.0155
12530TIP3    H259082   3.987   0.270  16.658 -0.7642  0.9427 -1.0165
12531TIP3   OH259083   1.332   3.439  14.995  0.1419  0.6167  0.2081
12531TIP3    H159084   1.277   3.397  15.061  0.0809 -0.4692 -0.4924
12531TIP3    H259085   1.277   3.510  14.960  0.2823  1.3895  1.4828
12532TIP3   OH259086   3.229   2.594   2.134 -0.2670  0.2293 -0.3584
12532TIP3    H159087   3.191   2.522   2.084  0.2455 -1.3871  1.4766
12532TIP3    H259088   3.303   2.623   2.081 -1.4748  0.6149 -1.9425
12533TIP3   OH259089   1.777   2.517   1.264 -0.3292  0.7323 -0.3929
12533TIP3    H159090   1.830   2.594   1.242  1.2387 -0.2232 -0.0902
12533TIP3    H259091   1.714   2.511   1.193 -0.6248  2.4039 -0.3203
12534TIP3   OH259092   6.784   5.525   3.868 -0.6693  0.3712 -0.1081
12534TIP3    H159093   6.760   5.477   3.947  1.5993 -0.1819  0.3216
12534TIP3    H259094   6.855   5.474   3.830  2.2290  3.5009  0.6061
12535TIP3   OH259095   0.360   5.225  10.769 -0.1357  0.0219 -0.1577
12535TIP3    H159096   0.323   5.246  10.683 -0.1542  0.8153  0.0361
12535TIP3    H259097   0.318   5.287  10.829  1.9205  1.3616 -0.0067
12536TIP3   OH259098   2.131   3.118  14.078  0.5267  0.5137  0.5962
12536TIP3    H159099   2.082   3.038  14.093  0.5150  0.6450  1.2939
12536TIP3    H259100   2.092   3.156  13.999 -1.8575  1.6334  2.2143
12537TIP3   OH259101   2.058   4.682   0.759  0.5684  0.0761  0.3888
12537TIP3    H159102   2.119   4.630   0.707 -3.1982 -3.4615 -1.0612
12537TIP3    H259103   2.064   4.645   0.847 -0.4750 -1.4469 -0.1270
12538TIP3   OH259104   2.233   5.703  15.436 -0.3716  0.3330 -0.0061
12538TIP3    H159105   2.275   5.618  15.422 -2.3843 -0.4334 -2.2750
12538TIP3    H259106   2.280   5.742  15.510  1.3045 -2.2815  0.4425
12539TIP3   OH259107   4.098   1.305   0.025  0.1629 -0.0353  0.2129
12539TIP3    H159108   4.043   1.346  -0.042  0.0908 -0.3803  0.0590
12539TIP3    H259109   4.179   1.354   0.022  0.4901 -0.5974 -0.7429
12540TIP3   OH259110   0.707   5.082   0.041 -0.5565  0.0256  0.2981
12540TIP3    H159111   0.765   5.060   0.113 -1.6157 -1.3050  0.7815
12540TIP3    H259112   0.621   5.091   0.081 -1.0080  0.1483 -0.6739
12541TIP3   OH259113   2.511   3.416   1.909  0.7875 -0.5970  0.0633
12541TIP3    H159114   2.596   3.371   1.903  0.2125 -1.8022  0.5843
12541TIP3    H259115   2.454   3.353   1.952  0.0690  0.8392  1.3145
12542TIP3   OH259116   5.081   6.592  15.977 -0.8407  0.0527  0.7356
12542TIP3    H159117   5.072   6.516  16.034 -2.1758  0.7950  1.5851
12542TIP3    H259118   5.059   6.667  16.033 -3.0372  0.7579 -0.9196
12543TIP3   OH259119   6.687   1.592  13.443  0.3582  0.5208  0.5482
12543TIP3    H159120   6.627   1.536  13.393  1.3268 -0.3335  0.2914
12543TIP3    H259121   6.700   1.545  13.526 -0.7703  1.6332  1.3749
12544TIP3   OH259122   1.621   6.757  12.905  0.2011  0.6772 -0.3686
12544TIP3    H159123   1.715   6.768  12.893  0.2459  0.1870 -0.4923
12544TIP3    H259124   1.583   6.781  12.821  0.2508  0.4671 -0.4521
12545TIP3   OH259125   3.146   3.777   5.020  0.3114 -0.4165  0.6794
12545TIP3    H159126   3.066   3.728   5.003  1.1913 -1.2317 -1.4968
12545TIP3    H259127   3.142   3.851   4.959  1.3412 -0.6400  0.3237
12546TIP3   OH259128   3.018   1.938  16.509  0.0713  0.3814  0.3509
12546TIP3    H159129   2.979   1.887  16.580  0.0506  0.7216  0.5882
12546TIP3    H259130   2.956   1.928  16.436  0.4133 -0.4832  0.1744
12547TIP3   OH259131   2.549   5.155   3.171  0.3170  0.2405 -0.4545
12547TIP3    H159132   2.463   5.117   3.150  0.6381 -1.3610  0.8833
12547TIP3    H259133   2.531   5.216   3.242  0.1053  0.9373 -1.1001
12548TIP3   OH259134   4.053   5.026   1.908  0.1844 -0.0547 -0.0918
12548TIP3    H159135   3.958   5.036   1.908  0.0265 -1.3984  0.4553
12548TIP3    H259136   4.080   5.053   1.996  0.0111 -2.0038  0.5960
12549TIP3   OH259137   6.504   6.217   5.719  0.4263  0.3599  0.1904
12549TIP3    H159138   6.432   6.157   5.739  1.4977 -0.2875  2.4307
12549TIP3    H259139   6.493   6.289   5.780  1.7015  0.2147  0.6212
12550TIP3   OH259140   4.451   3.169   3.956  0.5810  0.1141  0.0740
12550TIP3    H159141   4.500   3.120   3.890  0.8649  0.8603 -0.2800
12550TIP3    H259142   4.461   3.118   4.036  1.3313 -0.1194 -0.1637
12551TIP3   OH259143   3.971   6.364   2.944 -0.5154 -0.2261 -0.6056
12551TIP3    H159144   3.911   6.415   2.889 -2.6449 -1.0087  0.8923
12551TIP3    H259145   3.922   6.285   2.966  1.0603 -0.8698  0.7458
12552TIP3   OH259146   1.226   5.392   4.331  0.4018 -0.4625 -0.2538
12552TIP3    H159147   1.291   5.381   4.400 -0.3707  1.3361  0.8467
12552TIP3    H259148   1.269   5.360   4.251  2.0724 -0.6691  0.6821
12553TIP3   OH259149   0.130   3.157  14.549  0.2125  0.1313  0.3094
12553TIP3    H159150   0.197   3.156  14.618  0.0909 -0.0879  0.4263
12553TIP3    H259151   0.160   3.094  14.484 -1.5056 -2.5758  1.9442
12554TIP3   OH259152   2.526   4.583  13.051  0.1117  0.0436 -0.2099
12554TIP3    H159153   2.486   4.551  13.132  1.5385 -2.4255 -0.3851
12554TIP3    H259154   2.458   4.637  13.011 -2.2587 -2.1501  0.5613
12555TIP3   OH259155   1.765   3.212   5.899  0.6062  0.5747 -0.2011
12555TIP3    H159156   1.726   3.191   5.814 -4.1452  0.4207  1.6821
12555TIP3    H259157   1.775   3.127   5.942 -0.3169  0.8167  0.5348
12556TIP3   OH259158   2.491   0.956   2.868  0.8700 -0.4453  0.3317
12556TIP3    H159159   2.422   0.925   2.809  1.8944 -1.1269 -0.5345
12556TIP3    H259160   2.451   1.030   2.914 -1.0858 -1.9801  1.2616
12557TIP3   OH259161   2.120   6.737   2.442  0.3435  0.3317  1.0322
12557TIP3    H159162   2.144   6.782   2.361  0.2799 -0.4472  0.5785
12557TIP3    H259163   2.030   6.765   2.459  0.2159  0.1788  0.6141
12558TIP3   OH259164   3.234   4.355   3.063 -0.3843 -0.5619 -0.4333
12558TIP3    H159165   3.188   4.313   2.990 -2.1670  0.3172  0.1255
12558TIP3    H259166   3.191   4.440   3.073  0.6302 -0.1680  0.8753
12559TIP3   OH259167   0.728   6.209  16.796 -0.0202  0.0212 -0.2285
12559TIP3    H159168   0.773   6.170  16.721  0.9178  0.1563  0.2475
12559TIP3    H259169   0.783   6.283  16.821 -1.6797  1.5850 -1.0044
12560TIP3   OH259170   5.260   2.651   4.933 -0.1396 -0.1344 -0.6508
12560TIP3    H159171   5.187   2.619   4.880 -0.1837  0.5941 -1.0398
12560TIP3    H259172   5.314   2.701   4.872  0.4570 -0.3021 -0.2701
12561TIP3   OH259173   5.959   2.467   2.907  0.3089 -0.1702 -0.1199
12561TIP3    H159174   5.943   2.501   2.819 -2.1748  0.2551  0.4312
12561TIP3    H259175   5.911   2.527   2.964 -1.1058 -2.4707  1.2128
12562TIP3   OH259176   4.154   3.483  14.514 -0.0878 -0.0630 -0.0534
12562TIP3    H159177   4.126   3.537  14.439  0.8092 -0.9637 -1.0697
12562TIP3    H259178   4.159   3.394  14.479 -0.1059 -0.5879  1.2199
12563TIP3   OH259179   1.968   6.031   3.924  0.3319  0.3020  0.2686
12563TIP3    H159180   1.888   5.979   3.932  0.2538 -0.2294 -2.8534
12563TIP3    H259181   2.039   5.968   3.937  0.2391  0.1172 -0.1168
12564TIP3   OH259182   1.143   6.474   0.698  0.0659  0.0675 -0.1080
12564TIP3    H159183   1.073   6.502   0.640  0.2907  0.7759 -0.0509
12564TIP3    H259184   1.101   6.415   0.761 -0.0559 -1.1929 -1.3403
12565TIP3   OH259185   1.801   1.181   5.067 -0.4327  0.5115 -0.2438
12565TIP3    H159186   1.866   1.155   5.001  0.9279 -0.6812  1.4448
12565TIP3    H259187   1.849   1.240   5.125 -1.1247  0.3148  0.5463
12566TIP3   OH259188   1.299   3.495   6.545  0.5084  0.1571 -0.0933
12566TIP3    H159189   1.277   3.430   6.612  0.2973  0.6383  0.3125
12566TIP3    H259190   1.217   3.510   6.498  0.8614 -0.8710 -1.0916
12567TIP3   OH259191   1.884   0.543   5.728 -0.0819  0.4679 -0.3569
12567TIP3    H159192   1.797   0.560   5.764 -0.7232 -1.5200 -0.8362
12567TIP3    H259193   1.923   0.630   5.718 -1.5309  1.3292  1.0012
12568TIP3   OH259194   5.572   0.227  16.187 -0.6133  0.0839 -0.3820
12568TIP3    H159195   5.633   0.154  16.200 -0.3445  0.2951 -0.4657
12568TIP3    H259196   5.493   0.185  16.152 -1.1294 -0.4127  1.2806
12569TIP3   OH259197   5.336   2.347  15.407  0.1605 -0.2881  0.2060
12569TIP3    H159198   5.415   2.340  15.461  0.0102  0.4864  0.5333
12569TIP3    H259199   5.341   2.433  15.367 -0.7266 -0.0504  0.5695
12570TIP3   OH259200   3.633   5.809  14.533  0.3117 -0.5338 -0.1056
12570TIP3    H159201   3.626   5.729  14.586  2.1723 -0.0695  0.9222
12570TIP3    H259202   3.608   5.879  14.593  2.6609  0.0208  0.3037
12571TIP3   OH259203   1.596   2.629  14.328  0.2301 -0.3915  0.0270
12571TIP3    H159204   1.581   2.550  14.276  0.4295 -0.1612 -0.3857
12571TIP3    H259205   1.630   2.693  14.265 -0.2916  0.1409  0.2812
12572TIP3   OH259206   5.078   2.528   0.193 -0.7306  0.0323 -0.3765
12572TIP3    H159207   5.084   2.565   0.105  0.1095 -2.8449 -1.6445
12572TIP3    H259208   4.989   2.495   0.199 -0.6617 -0.1411 -0.3052
12573TIP3   OH259209   0.678   2.124  14.425  0.1227 -0.5950 -0.4138
12573TIP3    H159210   0.747   2.075  14.469 -0.2462 -0.7636 -0.0155
12573TIP3    H259211   0.598   2.075  14.444 -0.2583  0.1884  0.0281
12574TIP3   OH259212   0.061   4.848   0.028 -0.3746 -0.6765  0.2285
12574TIP3    H159213   0.146   4.877   0.062 -0.0126 -1.6358  0.1962
12574TIP3    H259214   0.029   4.786   0.094 -0.4652 -1.2592 -0.3522
12575TIP3   OH259215   1.845   5.365  13.061 -0.0411  0.1850 -0.0539
12575TIP3    H159216   1.805   5.408  13.137  0.8471  0.5209  0.2396
12575TIP3    H259217   1.838   5.430  12.990  0.8587  0.6510  0.2612
12576TIP3   OH259218   5.169   4.499   2.605  0.0261  0.3464 -0.4503
12576TIP3    H159219   5.261   4.488   2.580 -0.2913  0.9682 -1.9941
12576TIP3    H259220   5.131   4.411   2.595 -0.0319  0.5183 -2.0364
12577TIP3   OH259221   1.725   3.075  14.654  0.3059  0.6802 -0.4210
12577TIP3    H159222   1.727   3.119  14.739  0.4858  1.7644 -0.9746
12577TIP3    H259223   1.646   3.021  14.657  0.7963  0.0047  0.7687
12578TIP3   OH259224   3.109   5.592  14.329  0.0205 -1.0933 -0.0767
12578TIP3    H159225   3.108   5.686  14.311  0.9409 -0.7089  1.6407
12578TIP3    H259226   3.030   5.577  14.381 -1.3795 -1.7515 -2.2874
12579TIP3   OH259227   6.269   2.265   2.958 -0.4637  0.4542 -0.4269
12579TIP3    H159228   6.335   2.263   2.889  1.5743  0.2639  1.4257
12579TIP3    H259229   6.267   2.175   2.991 -1.7088  0.4511 -0.4667
12580TIP3   OH259230   5.308   3.589   4.957 -0.3752 -0.3932 -0.2049
12580TIP3    H159231   5.298   3.494   4.970 -0.2567 -0.8509 -2.7874
12580TIP3    H259232   5.301   3.626   5.044 -1.5484 -2.6822  0.7696
12581TIP3   OH259233   3.226   0.554   1.557  1.0714  0.2149 -0.1103
12581TIP3    H159234   3.260   0.620   1.498  1.9832 -0.0054  0.1549
12581TIP3    H259235   3.157   0.599   1.606 -0.3449  0.1576 -1.9267
12582TIP3   OH259236   4.361   1.525  16.061 -0.0038  0.6349 -0.3425
12582TIP3    H159237   4.267   1.543  16.060 -0.2928 -0.7308 -1.1704
12582TIP3    H259238   4.367   1.429  16.055  1.4339  0.7448 -1.2497
12583TIP3   OH259239   2.033   0.214  15.911 -0.6010  0.1542 -0.3246
12583TIP3    H159240   1.952   0.163  15.916 -1.5064  1.5671  0.1791
12583TIP3    H259241   2.063   0.220  16.002  0.5042 -0.9953 -0.5948
12584TIP3   OH259242   1.632   6.192  13.598 -0.4246 -0.1892 -0.4665
12584TIP3    H159243   1.703   6.148  13.550 -1.3608  0.3030 -2.4131
12584TIP3    H259244   1.674   6.268  13.638  0.3251 -0.4334 -0.7671
12585TIP3   OH259245   2.215   5.958  13.938  0.1998  0.4976  0.0910
12585TIP3    H159246   2.126   5.968  13.903 -0.0484 -0.8907  0.2611
12585TIP3    H259247   2.206   5.893  14.008  1.4543 -0.1320 -0.3022
12586TIP3   OH259248   5.484   0.691   1.605  0.5802  0.2989  0.2629
12586TIP3    H159249   5.501   0.644   1.687  1.6517  2.2591  1.2384
12586TIP3    H259250   5.548   0.655   1.544 -0.4880 -1.4668  0.1054
12587TIP3   OH259251   5.485   4.635   4.044 -0.1056 -0.3562 -1.0065
12587TIP3    H159252   5.438   4.653   4.126 -1.3974 -0.1126 -1.7649
12587TIP3    H259253   5.504   4.722   4.009 -0.3770 -0.4533 -1.4021
12588TIP3   OH259254   3.705   2.040  16.893  0.1379 -0.1732 -0.1422
12588TIP3    H159255   3.782   2.085  16.859 -0.7007  1.4394 -0.0439
12588TIP3    H259256   3.733   2.004  16.978  0.9297 -0.1155 -0.3732
12589TIP3   OH259257   5.664   5.472  14.016 -0.0070 -0.0032 -0.5903
12589TIP3    H159258   5.591   5.440  13.963 -0.6891 -0.5138  0.6209
12589TIP3    H259259   5.671   5.409  14.088  0.9456  0.6248 -0.1087
12590TIP3   OH259260   4.876   3.784  15.211  0.0365 -0.1927  0.2999
12590TIP3    H159261   4.926   3.805  15.132  0.5538  0.0105  0.6769
12590TIP3    H259262   4.853   3.692  15.202 -0.0999 -0.1109 -0.1914
12591TIP3   OH259263   5.172   4.120  12.317  0.1225 -0.1632  0.8618
12591TIP3    H159264   5.177   4.215  12.310  0.0570 -0.1796  0.6026
12591TIP3    H259265   5.098   4.104  12.375 -0.8613 -0.0979 -0.3511
12592TIP3   OH259266   1.444   3.368   2.826  0.2470  0.2196  0.2159
12592TIP3    H159267   1.414   3.293   2.775 -0.4844  0.4590  0.2796
12592TIP3    H259268   1.419   3.348   2.916  0.1403  0.4929  0.2475
12593TIP3   OH259269   4.244   0.964  13.098  0.0326  0.2243 -0.2374
12593TIP3    H159270   4.318   0.948  13.157 -0.0044  0.2482 -0.1841
12593TIP3    H259271   4.184   0.892  13.114  0.5035 -0.3552 -1.0196
12594TIP3   OH259272   0.894   5.848  15.812  0.1833  0.5657 -0.0170
12594TIP3    H159273   0.957   5.813  15.750  0.0425  1.9405 -0.9789
12594TIP3    H259274   0.809   5.820  15.779  0.1861 -0.0657  0.4812
12595TIP3   OH259275   0.676   1.584   0.966 -0.0676 -0.1259 -0.0356
12595TIP3    H159276   0.752   1.565   1.022 -0.1477  0.7291  0.3891
12595TIP3    H259277   0.621   1.506   0.974  1.3992 -1.3896 -1.4943
12596TIP3   OH259278   3.660   2.772  14.903  0.3842 -0.7895 -0.1708
12596TIP3    H159279   3.738   2.745  14.853  0.7470 -0.2319  0.0843
12596TIP3    H259280   3.692   2.785  14.992  1.0102  3.4948 -0.8011
12597TIP3   OH259281   3.353   1.942  13.225  1.3040 -0.3429 -0.0396
12597TIP3    H159282   3.303   2.023  13.214  0.4255 -1.0860 -2.1996
12597TIP3    H259283   3.440   1.970  13.251  0.7485  1.2104  0.2659
12598TIP3   OH259284   6.154   6.482  11.801  0.8898  0.4152  0.2367
12598TIP3    H159285   6.201   6.474  11.717  0.7301  1.1156  0.0753
12598TIP3    H259286   6.111   6.398  11.812  1.7793 -0.0641  0.1363
12599TIP3   OH259287   6.299   3.998   1.378  0.0476  0.0241  0.1742
12599TIP3    H159288   6.208   3.979   1.356 -0.4945  1.0646  1.4510
12599TIP3    H259289   6.300   4.009   1.473  1.7954 -1.4491  0.3977
12600TIP3   OH259290   3.431   4.225   0.542  0.3385  0.2790  0.1505
12600TIP3    H159291   3.350   4.228   0.592 -0.4809  0.2259 -1.1176
12600TIP3    H259292   3.409   4.268   0.459  1.2910 -0.7265 -0.6490
12601TIP3   OH259293   5.138   5.335  15.368 -0.4788  0.3767  0.5126
12601TIP3    H159294   5.227   5.349  15.336  0.0369 -1.2919  1.1130
12601TIP3    H259295   5.087   5.317  15.289 -0.2901  1.2614  0.1756
12602TIP3   OH259296   4.547   6.401   0.722 -0.3028  0.3130 -0.4876
12602TIP3    H159297   4.616   6.349   0.681 -0.5727  0.1123 -0.6925
12602TIP3    H259298   4.483   6.336   0.751  0.8993  0.2367  2.2491
12603TIP3   OH259299   0.770   2.665  13.611 -0.4736 -0.3585 -0.0747
12603TIP3    H159300   0.848   2.617  13.637  0.3418  1.0725  0.2216
12603TIP3    H259301   0.802   2.735  13.555 -1.5856  0.0678 -0.2094
12604TIP3   OH259302   1.191   5.173   2.992 -0.4886  0.1635  0.4119
12604TIP3    H159303   1.240   5.211   3.065 -0.2496  1.3391 -0.3317
12604TIP3    H259304   1.213   5.229   2.917 -2.7037  0.5484 -0.0203
12605TIP3   OH259305   5.923   0.490  13.119 -0.4857  1.1603 -0.4392
12605TIP3    H159306   5.986   0.451  13.059  0.2313  2.5184 -0.6181
12605TIP3    H259307   5.908   0.578  13.084 -1.3215  1.3956  0.4523
12606TIP3   OH259308   6.618   5.260  10.980  0.0262 -0.3396  0.4246
12606TIP3    H159309   6.546   5.305  10.936 -0.9407 -1.3272  0.9673
12606TIP3    H259310   6.686   5.252  10.912 -0.2701  0.7983 -0.0265
12607TIP3   OH259311   1.201   0.414  13.401  0.2333 -0.3743 -0.3540
12607TIP3    H159312   1.225   0.440  13.313 -0.2002  2.4211  0.2682
12607TIP3    H259313   1.114   0.374  13.392 -0.3491  1.0138 -1.0667
12608TIP3   OH259314   0.745   4.535   6.160 -0.1019 -0.3182 -0.4162
12608TIP3    H159315   0.729   4.514   6.068  0.9741  0.9050 -0.9192
12608TIP3    H259316   0.662   4.517   6.203 -1.0470  0.3423 -1.8741
12609TIP3   OH259317   6.465   4.879   5.535  0.0407  0.2591  0.2788
12609TIP3    H159318   6.539   4.884   5.596  1.1960 -1.0017 -0.9271
12609TIP3    H259319   6.469   4.961   5.486  1.5913 -0.3643 -0.7339
12610TIP3   OH259320   2.979   0.325   2.779  0.1109 -0.0289 -0.3687
12610TIP3    H159321   3.074   0.316   2.789 -0.1228 -0.2940  2.7888
12610TIP3    H259322   2.961   0.417   2.799 -0.3333 -0.0627 -0.6013
12611TIP3   OH259323   6.457   0.096  15.445 -0.0442 -0.4224 -0.4240
12611TIP3    H159324   6.379   0.052  15.479  0.5604 -2.1798 -1.1909
12611TIP3    H259325   6.426   0.143  15.368 -0.9359  1.5769  1.0703
12612TIP3   OH259326   2.379   3.309  11.185 -0.0588 -0.0192  0.2728
12612TIP3    H159327   2.371   3.241  11.252 -2.6153 -0.2401 -0.1736
12612TIP3    H259328   2.366   3.391  11.233 -0.5550 -0.0866  0.2538
12613TIP3   OH259329   0.127   2.064  16.343 -0.2741 -0.0002 -0.0394
12613TIP3    H159330   0.044   2.048  16.388  0.0214 -0.0555  0.4906
12613TIP3    H259331   0.192   2.015  16.393 -0.0593 -0.7217 -1.0006
12614TIP3   OH259332   3.246   5.381  14.825  0.1720 -0.3547 -0.7614
12614TIP3    H159333   3.307   5.393  14.898 -1.4878  0.3960  0.5682
12614TIP3    H259334   3.269   5.296  14.789 -1.6240 -2.9617  3.4205
12615TIP3   OH259335   1.376   2.433   4.511  0.5455 -0.1430 -0.0608
12615TIP3    H159336   1.306   2.492   4.538  1.3031  1.9842 -2.2915
12615TIP3    H259337   1.414   2.401   4.592 -1.6366  0.3158  1.2106
12616TIP3   OH259338   1.182   5.622   5.042  0.3734  0.7185 -0.0706
12616TIP3    H159339   1.223   5.537   5.054  0.6255  0.9191  0.5437
12616TIP3    H259340   1.205   5.671   5.121  0.0102  1.2648 -0.2961
12617TIP3   OH259341   1.285   3.061  14.108  0.2077 -0.3136  0.6758
12617TIP3    H159342   1.364   3.114  14.105  0.1301 -0.1976  0.6553
12617TIP3    H259343   1.304   2.991  14.171 -0.5538  1.1407  2.6222
12618TIP3   OH259344   1.792   2.412   0.472 -0.0406  0.0459  0.3906
12618TIP3    H159345   1.735   2.337   0.457 -0.6123  0.8998 -2.3212
12618TIP3    H259346   1.874   2.389   0.429  0.3889  0.2676  1.0875
12619TIP3   OH259347   3.392   4.523  12.616 -0.5652  0.0158 -0.0761
12619TIP3    H159348   3.403   4.586  12.546  1.3005 -0.0188  0.1278
12619TIP3    H259349   3.343   4.569  12.684  1.2652  1.4871  0.3145
12620TIP3   OH259350   3.758   0.632  15.652 -0.3153 -0.0883  0.4391
12620TIP3    H159351   3.665   0.611  15.663 -0.7009  1.1371 -0.2808
12620TIP3    H259352   3.761   0.727  15.652  1.2225 -0.0615  2.5845
12621TIP3   OH259353   4.872   2.761   3.342  0.2316 -0.0491  0.5082
12621TIP3    H159354   4.852   2.722   3.427  0.8721 -1.9168 -0.1483
12621TIP3    H259355   4.966   2.749   3.332  0.6124  2.4025  0.5637
12622TIP3   OH259356   5.853   0.975   0.063  0.8196  0.0071  0.0619
12622TIP3    H159357   5.889   1.012  -0.018  0.1985 -0.0125 -0.2233
12622TIP3    H259358   5.772   0.933   0.036  1.3799 -1.3552  0.4315
12623TIP3   OH259359   2.367   2.017  14.565  0.3892 -0.2972  0.1996
12623TIP3    H159360   2.462   2.015  14.550  0.4397  0.5723  0.3602
12623TIP3    H259361   2.336   2.091  14.514 -0.0830 -0.0765  0.7995
12624TIP3   OH259362   0.192   6.316  15.526  0.7057 -0.0992  0.4188
12624TIP3    H159363   0.214   6.374  15.600  1.3017  0.1756  0.0307
12624TIP3    H259364   0.277   6.287  15.492  0.4276 -0.4630  0.0213
12625TIP3   OH259365   2.268   2.836   1.155 -0.6659  0.0424 -0.2218
12625TIP3    H159366   2.183   2.815   1.117 -0.3347 -2.3836  0.2313
12625TIP3    H259367   2.253   2.834   1.250 -0.2079  0.0434 -0.1453
12626TIP3   OH259368   4.884   2.250   5.048 -0.0537  0.1603 -0.5929
12626TIP3    H159369   4.931   2.227   5.128  0.1797  0.2021 -0.7190
12626TIP3    H259370   4.793   2.228   5.067 -0.1943  1.2877  0.1163
12627TIP3   OH259371   2.773   0.780  12.714  0.6126 -0.5448  0.3028
12627TIP3    H159372   2.865   0.788  12.688  0.4626 -0.6227 -0.2715
12627TIP3    H259373   2.766   0.834  12.793  0.9039  0.3938 -0.2884
12628TIP3   OH259374   6.105   3.944  14.487 -0.7035 -0.1906 -0.0410
12628TIP3    H159375   6.048   4.006  14.442  2.0097  1.3219 -1.7064
12628TIP3    H259376   6.156   3.998  14.548 -0.0138 -1.2135  0.3177
12629TIP3   OH259377   2.201   5.274  12.805  0.3729 -0.0658 -0.0208
12629TIP3    H159378   2.275   5.334  12.809 -0.2653  0.6767  0.8340
12629TIP3    H259379   2.219   5.220  12.728  1.8801 -0.0144  0.2650
12630TIP3   OH259380   5.332   5.871  16.573  0.5386  0.1679  0.2995
12630TIP3    H159381   5.291   5.841  16.491  1.4475 -1.3701  0.3713
12630TIP3    H259382   5.303   5.962  16.582  1.1824  0.7157 -2.2435
12631TIP3   OH259383   0.125   5.174   1.438 -0.2479  0.1042 -0.1956
12631TIP3    H159384   0.096   5.139   1.354 -1.6602 -0.8276  0.6533
12631TIP3    H259385   0.053   5.230   1.467  0.1866  0.3362  0.4516
12632TIP3   OH259386   3.270   4.437   6.476 -0.6063  0.1848  0.0344
12632TIP3    H159387   3.213   4.431   6.552 -0.1051  1.9291  0.5831
12632TIP3    H259388   3.241   4.515   6.429  2.0862  1.9555  1.0568
12633TIP3   OH259389   0.264   5.786  16.020  0.4747  0.2652  0.0334
12633TIP3    H159390   0.309   5.835  15.952  0.6924 -0.3951 -0.2991
12633TIP3    H259391   0.301   5.699  16.016 -0.3204 -0.0954  0.2286
12634TIP3   OH259392   6.683   3.406  16.584 -0.0685  0.4906 -0.8415
12634TIP3    H159393   6.598   3.363  16.572 -0.8542  0.6748  2.7537
12634TIP3    H259394   6.744   3.334  16.600 -0.5548  0.4511  1.0965
12635TIP3   OH259395   5.296   1.953   4.602 -0.6018  0.4134  0.6242
12635TIP3    H159396   5.218   2.008   4.591 -0.1540  1.4975  2.3940
12635TIP3    H259397   5.340   1.990   4.679  1.9532  0.1715 -0.6317
12636TIP3   OH259398   5.982   2.972  15.060  0.3354  0.1868  0.4524
12636TIP3    H159399   5.983   2.877  15.069  0.0438 -0.0339 -1.5336
12636TIP3    H259400   6.026   2.989  14.977 -1.7549  1.6024 -0.4578
12637TIP3   OH259401   4.724   0.105  11.936  0.2591  0.6143 -0.0662
12637TIP3    H159402   4.728   0.133  12.027  1.7054  1.3993 -0.3471
12637TIP3    H259403   4.810   0.068  11.918 -1.2083 -3.2803 -0.0190
12638TIP3   OH259404   4.374   3.124  15.512  0.6061 -0.3209 -0.4427
12638TIP3    H159405   4.298   3.174  15.543 -0.6052 -1.5428 -1.3101
12638TIP3    H259406   4.362   3.119  15.417  0.9666 -1.7917 -0.4338
12639TIP3   OH259407   5.761   3.714   5.426  0.3551  0.0330  0.2030
12639TIP3    H159408   5.683   3.708   5.372 -0.0739  1.1052  0.6641
12639TIP3    H259409   5.735   3.675   5.510  0.1598  0.7425  0.4887
12640TIP3   OH259410   3.150   3.424  13.363 -0.0294 -0.0060 -0.0354
12640TIP3    H159411   3.201   3.433  13.443 -0.8409 -1.1256  0.6396
12640TIP3    H259412   3.064   3.460  13.385 -0.4935 -1.0093 -0.1405
12641TIP3   OH259413   1.012   1.212   2.745  0.1625 -0.7370 -0.2516
12641TIP3    H159414   1.074   1.262   2.693 -0.4642 -1.0893 -1.3639
12641TIP3    H259415   1.045   1.219   2.835  1.3127 -0.2028 -0.6986
12642TIP3   OH259416   4.221   2.960  14.632  0.3902 -0.2606 -0.0742
12642TIP3    H159417   4.302   3.009  14.631 -0.3835  1.0644 -1.3197
12642TIP3    H259418   4.248   2.868  14.632  1.8552  0.0983  2.1054
12643TIP3   OH259419   4.713   4.572  11.211  0.1718 -0.6391 -0.7570
12643TIP3    H159420   4.772   4.506  11.249  1.5621  0.3088 -1.2184
12643TIP3    H259421   4.707   4.640  11.278  0.9770  0.0653 -1.3851
12644TIP3   OH259422   4.624   6.628   0.889 -0.4405 -0.1190  0.2367
12644TIP3    H159423   4.568   6.697   0.853 -0.5082 -0.2159  0.1554
12644TIP3    H259424   4.617   6.556   0.826  1.8165  0.7741 -1.1722
12645TIP3   OH259425   2.641   6.277   4.004 -0.6725  0.3317  0.7933
12645TIP3    H159426   2.561   6.329   3.991  0.5761  1.6225 -2.9920
12645TIP3    H259427   2.704   6.340   4.039 -0.6492 -0.0789  1.4930
12646TIP3   OH259428   1.047   2.851  16.487 -0.1725  0.1223 -0.1694
12646TIP3    H159429   1.129   2.850  16.537  0.7091  0.7591 -1.5275
12646TIP3    H259430   1.023   2.758  16.478  1.2148 -0.1863 -0.9958
12647TIP3   OH259431   1.760   5.779  13.058  0.0259 -0.5244 -0.7148
12647TIP3    H159432   1.699   5.854  13.053  1.5883  0.7995 -0.7177
12647TIP3    H259433   1.841   5.812  13.019  1.3382 -1.6392  0.9694
12648TIP3   OH259434   2.794   3.897  11.927 -0.4180  0.5137  0.7622
12648TIP3    H159435   2.786   3.838  11.852  3.3178  0.2418  0.4214
12648TIP3    H259436   2.784   3.841  12.003  0.8010 -0.1972  0.4257
12649TIP3   OH259437   3.149   2.919  16.512  0.4279 -0.2878  0.3727
12649TIP3    H159438   3.136   2.870  16.593 -0.0244 -0.0641  0.4362
12649TIP3    H259439   3.216   2.984  16.534 -0.8091  0.8104  1.0348
12650TIP3   OH259440   2.169   1.876  13.868 -0.3297  1.0415 -0.8511
12650TIP3    H159441   2.255   1.915  13.877  0.0155  0.6600 -2.3250
12650TIP3    H259442   2.186   1.783  13.849 -1.0954  0.6460  0.2525
12651TIP3   OH259443   3.207   1.976   5.384 -0.3963 -0.5851 -0.1312
12651TIP3    H159444   3.228   1.883   5.377 -0.7545 -0.6581 -0.2382
12651TIP3    H259445   3.126   1.979   5.435  0.4100 -0.2514  1.1877
12652TIP3   OH259446   3.171   2.922  15.329 -0.3457  0.6163  0.2040
12652TIP3    H159447   3.101   2.988  15.325 -0.6269  0.3459  0.5304
12652TIP3    H259448   3.129   2.846  15.370 -0.0035  0.2623 -0.0969
12653TIP3   OH259449   2.918   0.014   3.133  0.3189 -0.3433 -0.0030
12653TIP3    H159450   2.885   0.006   3.222  1.2993 -2.4519  0.2316
12653TIP3    H259451   2.845  -0.016   3.078  0.4801 -1.2670  0.2667
12654TIP3   OH259452   2.988   6.632  13.114  0.0473  0.1096 -0.0032
12654TIP3    H159453   2.985   6.562  13.179  0.0569  1.8960  2.0287
12654TIP3    H259454   2.989   6.587  13.030  1.4453 -2.3371  1.2317
12655TIP3   OH259455   0.727   0.747   4.145  0.4455 -0.3300  0.6956
12655TIP3    H159456   0.746   0.728   4.237  0.2896 -1.5957  0.4966
12655TIP3    H259457   0.794   0.699   4.097 -0.5220 -1.1451  0.1131
12656TIP3   OH259458   2.537   5.172   0.325  0.0892  0.4824 -1.0540
12656TIP3    H159459   2.479   5.175   0.249  0.6272  1.8348 -1.4421
12656TIP3    H259460   2.478   5.178   0.400 -0.4165 -0.4861 -1.3538
12657TIP3   OH259461   0.203   0.334  11.965 -0.3752 -0.0879  0.3115
12657TIP3    H159462   0.184   0.410  12.020 -0.9716  0.4421 -0.5957
12657TIP3    H259463   0.252   0.275  12.022 -1.0660  0.3916  1.4486
12658TIP3   OH259464   4.482   1.676   1.490  0.2995  0.6674  0.2046
12658TIP3    H159465   4.411   1.657   1.429  0.5494  1.3137 -0.3039
12658TIP3    H259466   4.558   1.690   1.433  1.1145 -1.0945  0.7681
12659TIP3   OH259467   0.468   3.865  14.405 -0.7640  0.0330  0.0060
12659TIP3    H159468   0.461   3.944  14.351 -1.2953  0.1340  0.2191
12659TIP3    H259469   0.460   3.896  14.495 -1.0767 -0.2733  0.0876
12660TIP3   OH259470   6.559   3.725   0.873 -0.2157  0.6153 -0.2647
12660TIP3    H159471   6.466   3.735   0.890 -0.2491  1.6682 -0.9458
12660TIP3    H259472   6.571   3.633   0.851 -0.8958  0.2271  0.9163
12661TIP3   OH259473   5.263   5.582   5.207  0.6651 -0.0517  0.4721
12661TIP3    H159474   5.230   5.501   5.247 -0.8958  0.0657 -0.4955
12661TIP3    H259475   5.286   5.557   5.117  1.0291  0.3950  0.4347
12662TIP3   OH259476   5.574   6.449   6.047 -0.5387  0.0867 -0.4553
12662TIP3    H159477   5.665   6.460   6.074 -0.5260 -1.4513  0.2810
12662TIP3    H259478   5.577   6.448   5.952 -0.0462  1.8064 -0.4904
12663TIP3   OH259479   4.426   1.115   6.968 -0.0898 -0.1039  0.3050
12663TIP3    H159480   4.337   1.111   7.002  0.1025 -1.2621  0.7328
12663TIP3    H259481   4.472   1.175   7.026  0.2472 -2.0807  2.2327
12664TIP3   OH259482   0.367   4.134  14.267  0.8537  0.4360  0.3419
12664TIP3    H159483   0.359   4.214  14.318  1.7989 -0.8108  2.6219
12664TIP3    H259484   0.279   4.097  14.264  0.8020  0.4722  1.2303
12665TIP3   OH259485   2.810   2.110   5.785 -0.4163 -0.8371 -0.2133
12665TIP3    H159486   2.899   2.135   5.760  0.3471 -2.5355  0.6037
12665TIP3    H259487   2.770   2.191   5.817  0.9307 -0.1016 -0.3190
12666TIP3   OH259488   5.869   2.546   2.655 -0.0342  0.2966  0.5442
12666TIP3    H159489   5.793   2.494   2.631  0.4841 -0.5257  0.6665
12666TIP3    H259490   5.846   2.635   2.628 -0.4814 -0.1668 -0.6941
12667TIP3   OH259491   2.841   6.468   3.378  0.4994 -0.1347  0.0344
12667TIP3    H159492   2.903   6.417   3.326 -1.4003 -1.1519 -1.3774
12667TIP3    H259493   2.771   6.490   3.316 -0.3996  1.2424  1.4726
12668TIP3   OH259494   2.825   4.460   3.408  0.1364  0.3443 -0.1086
12668TIP3    H159495   2.758   4.392   3.395  0.0305  0.3865  0.2107
12668TIP3    H259496   2.821   4.513   3.328 -0.7642  0.8236  0.2457
12669TIP3   OH259497   1.552   1.267   3.606  0.4635 -0.4063  0.1464
12669TIP3    H159498   1.581   1.188   3.560  2.4170 -0.4211  1.2797
12669TIP3    H259499   1.597   1.263   3.690 -3.8552 -1.0170  2.7214
12670TIP3   OH259500   2.362   3.028   2.252 -0.2194 -0.1257 -0.2357
12670TIP3    H159501   2.376   3.063   2.164  0.6294  1.8803  0.6171
12670TIP3    H259502   2.274   3.057   2.275 -0.2743 -0.2712 -0.2633
12671TIP3   OH259503   2.783   2.817  17.130 -0.0377 -0.0221 -0.1150
12671TIP3    H159504   2.700   2.774  17.147  0.4468  0.1959  3.6871
12671TIP3    H259505   2.847   2.746  17.128 -0.1783 -0.1916 -3.0414
12672TIP3   OH259506   4.986   5.395  12.402  0.8551  0.3281 -0.2006
12672TIP3    H159507   4.955   5.313  12.441  0.1989 -0.2358 -1.8084
12672TIP3    H259508   5.080   5.383  12.393  0.7616 -0.2648 -0.4361
12673TIP3   OH259509   5.726   2.012   3.196  0.2215 -0.7398  0.3144
12673TIP3    H159510   5.774   1.995   3.277 -0.5222  0.3749  1.0223
12673TIP3    H259511   5.637   2.032   3.225 -0.6524 -2.5850 -0.9553
12674TIP3   OH259512   2.504   5.979  13.034 -0.0305  0.5050  0.2474
12674TIP3    H159513   2.458   6.013  13.111 -0.7713 -1.5626  0.8071
12674TIP3    H259514   2.537   5.893  13.062  0.8717  0.2932 -1.3349
12675TIP3   OH259515   4.436   2.634  13.564 -0.4409  0.6091  0.0092
12675TIP3    H159516   4.407   2.695  13.632  0.0368  0.0466  0.7390
12675TIP3    H259517   4.531   2.632  13.574 -0.4240  0.0131 -0.2376
12676TIP3   OH259518   6.740   2.963   0.132  0.1630 -0.4248  0.1593
12676TIP3    H159519   6.830   2.993   0.137  0.3923 -0.8334 -1.2419
12676TIP3    H259520   6.699   3.020   0.067 -1.3770  1.5777  2.6749
12677TIP3   OH259521   5.565   4.532   5.226 -0.0803  0.2511  0.1008
12677TIP3    H159522   5.542   4.600   5.290 -1.7349  0.2071 -0.4169
12677TIP3    H259523   5.630   4.478   5.272  1.1202  2.0205  0.6051
12678TIP3   OH259524   5.152   6.206   4.255  0.0413 -0.3153  0.2022
12678TIP3    H159525   5.114   6.272   4.197  0.3623 -0.9038 -0.6879
12678TIP3    H259526   5.243   6.197   4.227 -0.3904 -2.2705 -0.7734
12679TIP3   OH259527   3.836   3.375   0.173  0.2498 -0.4285  0.2705
12679TIP3    H159528   3.779   3.375   0.096  2.1935 -0.5714 -1.2491
12679TIP3    H259529   3.919   3.412   0.142  0.6714  0.8612  2.6713
12680TIP3   OH259530   1.152   3.790  11.890 -0.2941  0.2248 -0.0750
12680TIP3    H159531   1.102   3.826  11.817 -0.0325  0.6337 -0.0575
12680TIP3    H259532   1.164   3.698  11.869  1.2531  0.6904 -1.3815
12681TIP3   OH259533   4.479   3.701   5.043  0.4011  0.1914  0.0945
12681TIP3    H159534   4.394   3.666   5.070 -0.6785  2.0934 -0.6600
12681TIP3    H259535   4.469   3.796   5.047  1.2142  0.5975 -3.6612
12682TIP3   OH259536   4.311   1.997  16.106  0.2899  0.4060 -0.1555
12682TIP3    H159537   4.246   1.981  16.038  1.0502  0.1542 -0.8519
12682TIP3    H259538   4.356   1.914  16.117  1.7465  1.0223 -1.0767
12683TIP3   OH259539   5.733   4.361   0.237  0.4975 -0.3109 -0.1852
12683TIP3    H159540   5.827   4.373   0.226  0.8726 -2.1070  0.6683
12683TIP3    H259541   5.725   4.304   0.314 -1.1966 -1.3210 -1.0505
12684TIP3   OH259542   0.523   1.152  16.092  0.0500  0.3947  0.3478
12684TIP3    H159543   0.601   1.207  16.080 -0.0313  0.2439 -1.0719
12684TIP3    H259544   0.451   1.214  16.102  0.1681  0.5391  0.3053
12685TIP3   OH259545   2.257   5.437  15.850  0.3241  0.0757 -0.2808
12685TIP3    H159546   2.337   5.451  15.800 -0.0652 -0.0115 -0.9399
12685TIP3    H259547   2.287   5.423  15.940  0.9536  1.3760 -0.2719
12686TIP3   OH259548   4.100   2.729  11.994  0.3736  0.1294  0.0635
12686TIP3    H159549   4.148   2.769  12.066 -1.2083 -1.2183  1.9825
12686TIP3    H259550   4.132   2.639  11.990  0.3635  0.1573 -0.8462
12687TIP3   OH259551   2.440   3.414  10.920  0.3234  0.2945 -0.6104
12687TIP3    H159552   2.515   3.357  10.937  1.2693  1.7031  0.1351
12687TIP3    H259553   2.381   3.399  10.994  0.5383  0.2226 -0.4543
12688TIP3   OH259554   1.606   4.361  15.913 -0.3692  0.8546 -0.3448
12688TIP3    H159555   1.615   4.401  15.999  0.9590  1.5408 -0.7703
12688TIP3    H259556   1.688   4.382  15.868 -0.1938 -1.1816 -1.0873
12689TIP3   OH259557   4.722   3.353  16.515 -0.6181  0.8823  0.5053
12689TIP3    H159558   4.710   3.292  16.587  1.0000  0.0028  0.1000
12689TIP3    H259559   4.801   3.402  16.538  0.9182 -0.5354 -1.3207
12690TIP3   OH259560   4.480   4.800  13.053  0.2972 -0.4597  1.1440
12690TIP3    H159561   4.543   4.769  12.987 -1.8834 -0.2478 -1.1780
12690TIP3    H259562   4.476   4.894  13.040 -1.5549 -0.6358  0.1960
12691TIP3   OH259563   6.808   6.355   5.302  0.5861  0.1468 -0.1751
12691TIP3    H159564   6.875   6.357   5.233  1.3101 -0.3385  0.4905
12691TIP3    H259565   6.726   6.368   5.256  1.0459 -0.2743 -1.1562
12692TIP3   OH259566   4.215   5.617   4.766  0.4621 -0.2817  0.0266
12692TIP3    H159567   4.138   5.674   4.760  1.7254  1.4893 -0.0554
12692TIP3    H259568   4.260   5.646   4.846  1.6769 -0.4416 -0.5748
12693TIP3   OH259569   3.848   3.253  15.707  0.4726 -0.4937  0.0850
12693TIP3    H159570   3.901   3.327  15.736  1.1644  0.5787 -3.4494
12693TIP3    H259571   3.758   3.286  15.712  0.5749 -0.3281  0.9165
12694TIP3   OH259572   6.204   4.251   1.261  0.4529 -0.5049  0.4637
12694TIP3    H159573   6.285   4.210   1.230 -0.9651 -1.2055 -2.7373
12694TIP3    H259574   6.145   4.178   1.280 -0.9422 -0.1457 -1.9813
12695TIP3   OH259575   6.033   1.132  13.387  0.4089  0.4823  0.4226
12695TIP3    H159576   6.032   1.070  13.460 -2.1437  1.1364  1.0234
12695TIP3    H259577   6.013   1.216  13.427 -1.6072  0.7652 -1.0601
12696TIP3   OH259578   3.954   5.527  15.307 -0.4354 -0.4751 -0.5469
12696TIP3    H159579   3.891   5.553  15.374  0.1929 -0.4332  0.0250
12696TIP3    H259580   3.901   5.520  15.227 -0.9167  0.8931 -0.3721
12697TIP3   OH259581   5.147   1.667  16.898  0.3473 -0.0414  0.0286
12697TIP3    H159582   5.241   1.685  16.904  0.4820 -0.7876  0.2391
12697TIP3    H259583   5.137   1.579  16.934 -0.1721 -0.7409 -1.7276
12698TIP3   OH259584   6.256   1.505   1.469  0.8417  0.0267  0.2095
12698TIP3    H159585   6.169   1.531   1.499 -0.7229 -1.1766 -2.8135
12698TIP3    H259586   6.293   1.585   1.433 -0.3567 -0.0331 -1.2548
12699TIP3   OH259587   4.886   6.428   3.430  0.0928  0.0518 -0.2045
12699TIP3    H159588   4.803   6.471   3.408 -0.1410  0.4152  1.2804
12699TIP3    H259589   4.953   6.480   3.386 -0.4675 -0.3892 -1.6259
12700TIP3   OH259590   0.002   1.815   0.244  0.1548 -0.5993  0.0800
12700TIP3    H159591   0.049   1.788   0.165 -1.2996 -1.7997 -0.4236
12700TIP3    H259592   0.068   1.810   0.313  1.2331 -0.4025 -0.8954
12701TIP3   OH259593   4.698   1.710  15.909  0.2588 -0.0687 -0.3449
12701TIP3    H159594   4.769   1.769  15.933 -0.5658  0.4663  0.8680
12701TIP3    H259595   4.693   1.717  15.814  1.2309  0.5627 -0.3680
12702TIP3   OH259596   4.974   4.223  11.251 -0.6547 -0.6936  0.3801
12702TIP3    H159597   4.886   4.204  11.284 -1.4136 -0.5435 -1.4753
12702TIP3    H259598   4.965   4.226  11.156  0.8146  2.1073  0.2366
12703TIP3   OH259599   6.720   1.896   4.499  0.2797  0.4453  0.0589
12703TIP3    H159600   6.704   1.952   4.423 -1.4584 -1.3802 -1.0190
12703TIP3    H259601   6.647   1.834   4.499  0.8513 -0.3467  2.5721
12704TIP3   OH259602   5.591   4.567   1.109  0.1087 -0.6529 -0.8277
12704TIP3    H159603   5.499   4.542   1.123  0.5214 -1.1788  1.3293
12704TIP3    H259604   5.592   4.662   1.115 -0.2584 -0.6681 -0.4811
12705TIP3   OH259605   4.406   3.459   5.510 -0.4395  0.2325 -0.0543
12705TIP3    H159606   4.447   3.482   5.427 -1.1670 -0.2688 -0.5687
12705TIP3    H259607   4.349   3.533   5.530  0.6457  0.9146  0.6449
12706TIP3   OH259608   3.380   3.769  12.895 -0.2028 -0.6995 -0.2590
12706TIP3    H159609   3.369   3.751  12.802  1.7673 -0.9348 -0.4921
12706TIP3    H259610   3.475   3.760  12.910 -0.5902 -1.7762  1.9909
12707TIP3   OH259611   1.453   3.970  15.168  0.2046  0.3165  0.0416
12707TIP3    H159612   1.537   4.004  15.138  0.8362 -1.5892 -0.5353
12707TIP3    H259613   1.440   3.890  15.116 -1.5580  0.1093  0.7219
12708TIP3   OH259614   3.447   2.422   2.205 -0.1931 -0.0729 -0.4408
12708TIP3    H159615   3.524   2.476   2.223 -0.3031  0.9750 -2.7666
12708TIP3    H259616   3.379   2.458   2.261  0.8950 -0.9123  1.5372
12709TIP3   OH259617   1.112   3.854  16.422 -0.0779  0.1561  0.0616
12709TIP3    H159618   1.188   3.904  16.393  0.0235 -0.7661 -1.3498
12709TIP3    H259619   1.037   3.904  16.392  0.0163 -1.2409 -2.8157
12710TIP3   OH259620   3.534   6.139   2.581  0.6342  0.0979  0.0892
12710TIP3    H159621   3.439   6.144   2.580  0.4085 -2.2118  1.3207
12710TIP3    H259622   3.564   6.230   2.581 -1.5502  0.8673 -0.1981
12711TIP3   OH259623   2.508   5.309  10.856  0.5311  0.1456 -0.3314
12711TIP3    H159624   2.569   5.278  10.789 -0.6613  0.9162 -1.8383
12711TIP3    H259625   2.543   5.394  10.883  1.0175 -0.1683  0.0464
12712TIP3   OH259626   5.551   4.219   2.034 -0.4748 -0.2206 -0.5361
12712TIP3    H159627   5.477   4.161   2.052  0.2351 -1.3444 -1.1085
12712TIP3    H259628   5.590   4.236   2.120 -0.5386 -0.8106 -0.3871
12713TIP3   OH259629   2.573   6.202   4.262  0.1779 -0.4294 -0.6906
12713TIP3    H159630   2.567   6.208   4.167 -1.0891  0.5569 -0.5652
12713TIP3    H259631   2.667   6.194   4.280  0.7813  2.7761 -1.8514
12714TIP3   OH259632   4.275   4.155  14.258  0.7425  0.1850  0.1607
12714TIP3    H159633   4.266   4.150  14.163 -1.6665  1.9915  0.1828
12714TIP3    H259634   4.312   4.070  14.284  3.0645  0.2392 -2.4618
12715TIP3   OH259635   3.137   2.423  13.203 -0.3361 -0.3166  0.2938
12715TIP3    H159636   3.202   2.368  13.158 -1.1410  0.3021 -1.6988
12715TIP3    H259637   3.158   2.412  13.296  2.1754 -0.6902 -0.2410
12716TIP3   OH259638   3.288   5.118  14.736  0.1705 -0.7851  0.1576
12716TIP3    H159639   3.332   5.051  14.683  2.1882  0.3124  0.3370
12716TIP3    H259640   3.237   5.068  14.799 -0.0000 -2.1311 -0.9868
12717TIP3   OH259641   6.475   3.276  15.711  0.2705 -0.4526 -0.0513
12717TIP3    H159642   6.385   3.274  15.679 -0.1240  0.8659  0.9075
12717TIP3    H259643   6.528   3.276  15.631 -0.6072 -0.1709 -0.6554
12718TIP3   OH259644   5.969   1.967  12.986 -0.1559 -0.1693 -0.1991
12718TIP3    H159645   5.973   1.876  12.959  1.8009 -0.4322  0.7479
12718TIP3    H259646   6.036   1.974  13.055 -1.8307  1.4534  1.3687
12719TIP3   OH259647   4.796   2.094  12.680  0.3380 -0.0046 -0.2529
12719TIP3    H159648   4.822   2.138  12.761 -0.2211  1.2553 -0.7324
12719TIP3    H259649   4.714   2.049  12.701  0.9229 -0.8509  0.2467
12720TIP3   OH259650   3.558   5.150   0.698 -0.5815 -0.9028  0.3074
12720TIP3    H159651   3.488   5.176   0.638  0.4106  0.4912 -0.2991
12720TIP3    H259652   3.609   5.230   0.711 -0.5476 -1.2479  2.7375
12721TIP3   OH259653   3.807   5.085   1.021  0.1449 -1.1248  0.0185
12721TIP3    H159654   3.810   5.181   1.019  1.4111 -1.1564 -0.0023
12721TIP3    H259655   3.713   5.065   1.027 -0.0781  0.1401  1.5494
12722TIP3   OH259656   5.897   0.280  12.429  0.6106 -0.5604 -0.4846
12722TIP3    H159657   5.956   0.250  12.499 -1.1420  1.0448  1.8756
12722TIP3    H259658   5.915   0.374  12.422 -1.3300 -0.0883  0.0771
12723TIP3   OH259659   2.538   5.653   4.894 -0.1026  0.1360  0.2434
12723TIP3    H159660   2.512   5.681   4.982 -1.0298  1.1974 -0.3346
12723TIP3    H259661   2.491   5.713   4.836 -0.8222 -1.5952 -1.0289
12724TIP3   OH259662   3.670   3.152   3.849 -0.1261  0.1736 -0.3930
12724TIP3    H159663   3.629   3.075   3.886  0.3666 -0.0409 -0.2876
12724TIP3    H259664   3.741   3.118   3.794 -0.9469  0.4735 -1.6737
12725TIP3   OH259665   4.606   3.565  15.330  0.4667  0.3396 -0.1347
12725TIP3    H159666   4.696   3.532  15.333  0.4298  0.0377 -1.5579
12725TIP3    H259667   4.554   3.489  15.302 -0.3349  0.3328  1.3049
12726TIP3   OH259668   2.892   3.897   3.599 -0.1296 -0.3699  0.4833
12726TIP3    H159669   2.912   3.940   3.516 -1.7756 -0.8799 -0.2008
12726TIP3    H259670   2.977   3.862   3.628  0.7059  0.9073 -0.3188
12727TIP3   OH259671   6.495   6.384   1.492 -0.5062 -0.1036 -0.0708
12727TIP3    H159672   6.437   6.391   1.568 -1.1858 -0.7694 -0.5155
12727TIP3    H259673   6.453   6.320   1.435  0.4428 -0.2656 -0.6143
12728TIP3   OH259674   5.597   3.410  12.107 -0.3429 -0.7247  0.1687
12728TIP3    H159675   5.635   3.324  12.093 -1.4859 -0.9657 -1.9844
12728TIP3    H259676   5.667   3.462  12.146  0.2252 -2.7173  1.9389
12729TIP3   OH259677   6.046   2.141  12.143 -0.4156 -0.2568 -0.1912
12729TIP3    H159678   6.114   2.087  12.184 -1.2230 -0.8047  0.4612
12729TIP3    H259679   5.985   2.077  12.106  0.1443  0.2213 -2.0422
12730TIP3   OH259680   5.190   3.718   1.536  0.1089  0.9530  0.6864
12730TIP3    H159681   5.212   3.736   1.445  1.2935  3.3428  1.3612
12730TIP3    H259682   5.095   3.720   1.539 -0.0346 -1.0354 -0.7925
12731TIP3   OH259683   5.505   5.083   5.895  0.2116 -0.0045  0.3063
12731TIP3    H159684   5.595   5.054   5.882 -0.4148 -1.6672 -0.6289
12731TIP3    H259685   5.473   5.028   5.966 -0.6191 -0.7778 -0.6398
12732TIP3   OH259686   3.331   2.266   5.097 -0.0928  0.2389  0.5773
12732TIP3    H159687   3.379   2.303   5.023 -1.9155  3.0873  0.6341
12732TIP3    H259688   3.391   2.273   5.171 -0.1338  2.7961  0.4509
12733TIP3   OH259689   3.208   2.971  11.822 -0.5580  0.0081  0.5418
12733TIP3    H159690   3.285   2.921  11.796 -1.2817 -0.3559 -1.0054
12733TIP3    H259691   3.210   2.970  11.918  0.2987 -1.6450  0.5382
12734TIP3   OH259692   0.611   3.418  14.355 -0.9771  0.2178  0.5431
12734TIP3    H159693   0.527   3.376  14.333 -0.9194  0.8387 -1.0122
12734TIP3    H259694   0.595   3.461  14.439 -2.2879  0.4819  0.1882
12735TIP3   OH259695   4.593   4.216   5.509  0.5341  0.0476  0.0429
12735TIP3    H159696   4.654   4.228   5.582  0.3645 -0.7484  0.3341
12735TIP3    H259697   4.628   4.141   5.461 -0.3292 -0.5829  0.3584
12736TIP3   OH259698   4.934   4.027   4.498  0.0015 -0.5936  0.0484
12736TIP3    H159699   5.025   3.998   4.488  0.1229 -0.4590  0.7398
12736TIP3    H259700   4.931   4.070   4.583 -0.4424  0.4415 -0.4692
12737TIP3   OH259701   3.789   0.306  14.799 -0.0345 -0.5138 -0.5601
12737TIP3    H159702   3.741   0.236  14.755  1.3574 -2.1729  0.4654
12737TIP3    H259703   3.832   0.264  14.873 -0.6879  1.8116  1.2857
12738TIP3   OH259704   0.368   3.290  14.285 -0.2213 -0.2331 -0.0532
12738TIP3    H159705   0.313   3.230  14.334  0.2642  0.7106  1.7240
12738TIP3    H259706   0.307   3.356  14.251 -0.4145 -0.2081  0.3406
12739TIP3   OH259707   2.498   0.611  15.553 -0.5437  0.2774 -0.2255
12739TIP3    H159708   2.523   0.610  15.646 -1.0968 -0.1466 -0.0738
12739TIP3    H259709   2.564   0.666  15.511 -0.1514  0.2828  0.3826
12740TIP3   OH259710   3.114   5.008   4.554 -0.5042 -0.5391 -0.2601
12740TIP3    H159711   3.164   5.042   4.480  0.0672 -2.1948 -0.6768
12740TIP3    H259712   3.177   5.002   4.626 -0.8683  0.3241  0.1372
12741TIP3   OH259713   4.843   0.514  14.013  0.2605  0.2133 -0.0775
12741TIP3    H159714   4.901   0.552  14.080  1.9059  0.8607 -1.7659
12741TIP3    H259715   4.880   0.427  13.997 -1.6570 -1.0090  1.5709
12742TIP3   OH259716   1.985   6.793  11.093 -0.1027  0.0677  0.4182
12742TIP3    H159717   2.047   6.720  11.092  0.2929  0.3929  0.7903
12742TIP3    H259718   1.950   6.796  11.004 -2.3071 -2.4274  1.0821
12743TIP3   OH259719   2.259   4.991  11.081 -0.4253 -0.2480  0.1204
12743TIP3    H159720   2.258   5.077  11.122  1.3816  0.6092 -1.4653
12743TIP3    H259721   2.190   4.995  11.015 -1.4019 -0.6081  1.0967
12744TIP3   OH259722   2.694   4.938   0.364 -0.1694 -0.2077  0.1743
12744TIP3    H159723   2.653   5.025   0.364 -0.8183 -0.5084  0.0910
12744TIP3    H259724   2.728   4.928   0.275 -2.1195 -0.9655 -0.5200
12745TIP3   OH259725   6.644   6.329  13.170 -0.1628 -0.1697 -0.5919
12745TIP3    H159726   6.597   6.296  13.247 -0.5173  0.3360 -0.5861
12745TIP3    H259727   6.639   6.425  13.178  0.9081 -0.1016 -0.5641
12746TIP3   OH259728   0.112   4.654  10.971  0.6358 -0.1984 -0.6875
12746TIP3    H159729   0.030   4.644  10.922 -0.9707  0.2293  1.7420
12746TIP3    H259730   0.152   4.568  10.968 -0.6337 -0.8105 -0.7311
12747TIP3   OH259731   5.573   2.720  17.086  0.1693 -0.4709 -0.4901
12747TIP3    H159732   5.530   2.634  17.091  0.0338 -0.3988 -0.4273
12747TIP3    H259733   5.511   2.780  17.126 -0.0005 -0.2408 -1.0933
12748TIP3   OH259734   5.782   1.228   5.361 -0.0749 -0.2888  0.1201
12748TIP3    H159735   5.861   1.202   5.315 -1.1929 -0.7485 -1.6355
12748TIP3    H259736   5.729   1.148   5.365 -1.3373  0.4747 -0.6381
12749TIP3   OH259737   4.089   0.562   2.327 -0.1124  0.4076  0.8683
12749TIP3    H159738   4.085   0.614   2.407  0.6148  0.8099  0.6554
12749TIP3    H259739   4.000   0.565   2.292 -0.4273  0.2563  1.6381
12750TIP3   OH259740   6.342   0.779  11.259 -0.3129  0.1857  0.0539
12750TIP3    H159741   6.378   0.806  11.344  0.0590 -0.2993  0.0481
12750TIP3    H259742   6.301   0.859  11.226  0.8894  0.8059 -0.0147
12751TIP3   OH259743   3.448   2.773  12.691 -0.2647 -0.2288 -0.3923
12751TIP3    H159744   3.488   2.855  12.660  0.3357 -0.2871  0.2009
12751TIP3    H259745   3.457   2.713  12.617 -1.1991  0.3869 -1.0271
12752TIP3   OH259746   5.509   4.121   1.726 -0.0440 -0.0000  0.0570
12752TIP3    H159747   5.509   4.174   1.806 -1.6005  0.6884 -0.3512
12752TIP3    H259748   5.576   4.055   1.741  0.1556  0.5167  1.6566
12753TIP3   OH259749   5.382   5.928   1.581 -0.2257  0.2796 -0.7434
12753TIP3    H159750   5.391   5.850   1.637 -1.2690  0.3828 -0.4195
12753TIP3    H259751   5.381   5.893   1.492  0.2997  0.0174 -0.6528
12754TIP3   OH259752   0.165   6.213   0.915 -0.0380  0.0353  0.2296
12754TIP3    H159753   0.096   6.219   0.981  0.2736  0.4252  0.5275
12754TIP3    H259754   0.246   6.229   0.964  0.2542 -0.2850 -0.1377
12755TIP3   OH259755   3.020   3.243  15.014 -0.3141 -0.5847 -0.2079
12755TIP3    H159756   2.986   3.330  15.034 -0.5460 -1.2285  2.5737
12755TIP3    H259757   3.110   3.245  15.045 -0.6290 -1.6149  0.8348
12756TIP3   OH259758   3.656   6.077   5.674  0.1628 -0.7542  0.0745
12756TIP3    H159759   3.736   6.068   5.726 -0.2564  0.9086  1.0781
12756TIP3    H259760   3.687   6.107   5.588  0.5821  1.7474  1.0041
12757TIP3   OH259761   2.128   6.304  17.138 -0.0969 -0.0090  0.7718
12757TIP3    H159762   2.089   6.334  17.056  2.5442  1.4121 -0.0801
12757TIP3    H259763   2.055   6.264  17.186 -2.1050  0.6996 -1.4868
12758TIP3   OH259764   1.137   1.292   0.865  0.3072  0.1380 -0.2593
12758TIP3    H159765   1.147   1.387   0.863 -1.0912  0.2957 -0.0259
12758TIP3    H259766   1.187   1.264   0.942 -0.1672  0.7923  0.2927
12759TIP3   OH259767   0.078   3.278  14.080 -0.4192  0.4002  0.0854
12759TIP3    H159768   0.134   3.237  14.013 -0.4596  0.1597  0.1976
12759TIP3    H259769   0.016   3.330  14.030 -1.0804 -0.5657 -0.1177
12760TIP3   OH259770   4.135   6.468  15.570 -0.1745  0.0299 -0.6251
12760TIP3    H159771   4.051   6.514  15.563  0.1928  1.1719  1.6235
12760TIP3    H259772   4.171   6.496  15.654  0.7623 -3.3096  0.2622
12761TIP3   OH259773   1.428   1.732   3.301  0.3598 -0.0584  0.1160
12761TIP3    H159774   1.427   1.781   3.383 -0.7378 -0.7049  0.5030
12761TIP3    H259775   1.438   1.640   3.327 -0.0354 -0.2775 -0.4671
12762TIP3   OH259776   0.969   4.557   6.663  0.5843  0.1748  0.2488
12762TIP3    H159777   0.937   4.648   6.666  3.6681  1.5019 -1.5492
12762TIP3    H259778   0.923   4.518   6.589 -0.8547  0.1489  1.1082
12763TIP3   OH259779   3.714   1.296  14.121  0.0836 -0.0788 -0.6225
12763TIP3    H159780   3.773   1.368  14.097  0.0190 -0.3282 -1.5395
12763TIP3    H259781   3.632   1.316  14.077 -0.1939 -0.2837 -0.2028
12764TIP3   OH259782   3.646   5.044  14.620 -0.2974 -0.1264  0.4635
12764TIP3    H159783   3.721   4.996  14.585 -1.5202 -1.0975 -0.9695
12764TIP3    H259784   3.592   4.976  14.660 -0.1261  0.6517  2.0907
12765TIP3   OH259785   2.191   2.260  13.732 -0.6090  0.6684 -0.6680
12765TIP3    H159786   2.147   2.197  13.675 -2.5336  1.4084 -0.0600
12765TIP3    H259787   2.211   2.335  13.676  1.6902 -0.3935 -1.3938
12766TIP3   OH259788   2.097   2.969   0.565 -0.3858  0.2418  0.2224
12766TIP3    H159789   2.069   3.031   0.497 -0.5877 -0.1737 -0.0768
12766TIP3    H259790   2.180   2.935   0.534 -2.2665 -2.9320 -1.8583
12767TIP3   OH259791   1.241   2.430   3.769 -0.1897 -0.8450 -0.1266
12767TIP3    H159792   1.292   2.427   3.850 -1.2697  0.6513  0.6656
12767TIP3    H259793   1.287   2.371   3.710  1.8368 -0.3836  0.8889
12768TIP3   OH259794   3.241   5.288  14.196  0.1950 -0.3399  0.1319
12768TIP3    H159795   3.234   5.247  14.282 -0.9465  0.4129  0.4227
12768TIP3    H259796   3.190   5.232  14.138  1.6545 -1.3094 -0.2552
12769TIP3   OH259797   0.342   5.458   1.917 -0.4284  0.0051 -0.1086
12769TIP3    H159798   0.385   5.377   1.889 -0.6993  0.4700 -2.0333
12769TIP3    H259799   0.402   5.528   1.890  0.5940  0.4672  3.0056
12770TIP3   OH259800   3.382   4.355  16.901 -0.3995  0.5191 -0.4084
12770TIP3    H159801   3.302   4.319  16.862 -0.9315  0.8824  0.3292
12770TIP3    H259802   3.359   4.370  16.993  0.6602  0.2040 -0.0800
12771TIP3   OH259803   0.213   6.204  16.953  0.1525 -0.0752  0.0966
12771TIP3    H159804   0.191   6.155  17.032  0.9378 -0.8599 -0.1540
12771TIP3    H259805   0.165   6.160  16.883 -1.3551  1.2381  0.2486
12772TIP3   OH259806   3.227   3.702  14.336 -0.4793  0.5350  0.2456
12772TIP3    H159807   3.217   3.793  14.364  0.8388  0.1396  2.2772
12772TIP3    H259808   3.139   3.665  14.344 -0.8452  1.4055  0.3354
12773TIP3   OH259809   1.566   1.898  17.049  0.0589  0.6371  0.6756
12773TIP3    H159810   1.518   1.838  17.106 -0.1531  0.2247  0.0685
12773TIP3    H259811   1.658   1.878  17.065 -0.0127  0.1500  0.4745
12774TIP3   OH259812   4.848   3.297   0.754  0.3176 -0.2868  0.2329
12774TIP3    H159813   4.793   3.228   0.790 -0.3294 -0.4385 -1.0089
12774TIP3    H259814   4.810   3.379   0.787 -0.6255 -0.3945 -0.5328
12775TIP3   OH259815   3.071   5.221   5.275  1.0108  0.7280  0.3644
12775TIP3    H159816   3.120   5.152   5.320  1.1829  0.7952  0.2812
12775TIP3    H259817   3.133   5.256   5.211  1.0419  1.2181  0.6659
12776TIP3   OH259818   1.919   2.957  12.045 -0.5646 -0.0557 -0.7100
12776TIP3    H159819   1.888   2.961  12.135 -0.9936 -1.6412 -0.7591
12776TIP3    H259820   1.964   3.041  12.031  0.0228 -0.0126  1.1497
12777TIP3   OH259821   2.735   4.909  15.880 -1.1482  0.0667  0.1137
12777TIP3    H159822   2.798   4.837  15.879 -0.7443  0.4118  0.7453
12777TIP3    H259823   2.655   4.871  15.916 -1.1929 -0.2719 -0.3307
12778TIP3   OH259824   3.485   5.584   5.460 -0.3872 -0.7428 -0.1339
12778TIP3    H159825   3.481   5.670   5.502 -0.5986 -0.2715 -1.0894
12778TIP3    H259826   3.449   5.524   5.525  0.7743 -0.2873  0.9715
12779TIP3   OH259827   4.264   1.829  11.406  0.3730 -0.2568  0.4253
12779TIP3    H159828   4.170   1.837  11.420 -0.0161  0.3015 -1.9868
12779TIP3    H259829   4.288   1.746  11.448 -0.7910  0.4294  2.6251
12780TIP3   OH259830   0.138   6.255   3.508 -0.0670 -0.3821 -0.5275
12780TIP3    H159831   0.091   6.228   3.429 -0.4814  3.1950 -1.6817
12780TIP3    H259832   0.225   6.219   3.499 -0.4241 -0.8973 -2.1191
12781TIP3   OH259833   4.926   4.625  15.574 -0.1418  1.0429  0.6023
12781TIP3    H159834   4.998   4.625  15.511  0.1496 -0.5092  0.9092
12781TIP3    H259835   4.964   4.663  15.653  1.0363 -1.7344  1.4686
12782TIP3   OH259836   5.030   2.140   5.332  0.9998  0.4467  0.5518
12782TIP3    H159837   5.029   2.234   5.311  2.5747  0.6214  1.0587
12782TIP3    H259838   5.059   2.137   5.423  0.2340 -0.5191  0.7766
12783TIP3   OH259839   2.260   2.551   2.619  0.4839  0.0360 -0.4565
12783TIP3    H159840   2.221   2.472   2.584 -0.8224  1.4517 -2.4407
12783TIP3    H259841   2.340   2.522   2.663 -1.5278 -2.7000  1.6843
12784TIP3   OH259842   1.194   5.715   2.029  0.1190 -0.3447  0.5106
12784TIP3    H159843   1.289   5.709   2.039  0.1484 -0.5354  0.0984
12784TIP3    H259844   1.164   5.624   2.025  0.1623 -0.3161 -1.6883
12785TIP3   OH259845   4.087   4.859   3.641  0.1561 -0.5488 -0.1263
12785TIP3    H159846   4.149   4.932   3.645  0.9479 -1.2462  0.6884
12785TIP3    H259847   4.035   4.868   3.722 -0.2019 -0.4971 -0.3595
12786TIP3   OH259848   3.976   5.431   1.963  0.2224 -0.4934  0.5046
12786TIP3    H159849   3.979   5.401   2.054 -0.9058 -2.8701 -0.1623
12786TIP3    H259850   3.910   5.375   1.922  0.3457  0.8645 -1.6722
12787TIP3   OH259851   5.456   2.956   4.549  0.4397  0.3448  0.3562
12787TIP3    H159852   5.501   2.953   4.464  0.9064  2.7810  0.4406
12787TIP3    H259853   5.510   3.013   4.603 -0.5167 -0.1566  1.9088
12788TIP3   OH259854   4.648   1.600   0.624 -0.2585  0.3001  1.0644
12788TIP3    H159855   4.576   1.631   0.680 -0.1876  0.1297  1.2499
12788TIP3    H259856   4.609   1.530   0.572  0.3611 -1.4750  2.8654
12789TIP3   OH259857   2.772   4.603   5.481 -0.8201 -0.3161 -0.1938
12789TIP3    H159858   2.763   4.519   5.436 -0.8165 -0.5677  0.2748
12789TIP3    H259859   2.745   4.586   5.571  1.0073 -0.2678  0.3899
12790TIP3   OH259860   2.197   5.532  12.976 -0.1185  0.5551 -0.7574
12790TIP3    H159861   2.276   5.583  12.959 -0.6617  1.2211 -1.3588
12790TIP3    H259862   2.168   5.503  12.890 -0.3041 -0.0230 -0.5013
12791TIP3   OH259863   0.779   2.645   3.926  0.0643  0.0484  0.2820
12791TIP3    H159864   0.777   2.570   3.867 -1.4177  1.1587 -1.1522
12791TIP3    H259865   0.872   2.660   3.942  0.4141 -2.0956  0.6804
12792TIP3   OH259866   4.374   2.430  14.641  0.5894 -0.1546 -0.0136
12792TIP3    H159867   4.410   2.432  14.729  0.1174  0.9192  0.1679
12792TIP3    H259868   4.359   2.338  14.623  0.3354 -0.3557  1.1728
12793TIP3   OH259869   5.181   5.881  13.542  0.1939  0.1176 -0.2247
12793TIP3    H159870   5.126   5.823  13.594 -1.7229  0.6799 -1.5303
12793TIP3    H259871   5.186   5.962  13.593 -0.4062  0.1392 -0.1913
12794TIP3   OH259872   6.632   6.158   5.012 -0.4584  0.0835  0.6166
12794TIP3    H159873   6.616   6.194   5.100 -0.9270 -2.4006  1.6371
12794TIP3    H259874   6.546   6.132   4.980 -0.4644  2.0703 -1.1782
12795TIP3   OH259875   4.886   6.243  11.529 -0.2136 -0.0395  0.2879
12795TIP3    H159876   4.832   6.179  11.481  1.5401 -2.2070  1.0746
12795TIP3    H259877   4.969   6.199  11.544  0.2976  1.5878  2.9170
12796TIP3   OH259878   3.688   4.810   0.627 -0.3938 -0.3225  0.3411
12796TIP3    H159879   3.670   4.726   0.670 -2.5777  0.7498  1.6950
12796TIP3    H259880   3.625   4.815   0.556 -0.0983  0.0719  0.1000
12797TIP3   OH259881   2.350   2.624   1.984  0.3276 -0.4076  0.2961
12797TIP3    H159882   2.281   2.637   2.049  0.1335 -1.3404  0.2898
12797TIP3    H259883   2.379   2.534   1.997 -0.6175 -1.0692 -1.7419
12798TIP3   OH259884   1.574   2.006   3.681 -0.7042  0.3393 -0.1549
12798TIP3    H159885   1.625   2.073   3.636 -0.6135  1.1299  1.1001
12798TIP3    H259886   1.542   1.949   3.610 -0.5407  1.5250 -1.2145
12799TIP3   OH259887   5.412   0.194   3.259 -0.3592 -0.0580 -0.2253
12799TIP3    H159888   5.374   0.197   3.171 -0.9150 -0.2100  0.0012
12799TIP3    H259889   5.421   0.100   3.278  1.1520 -0.0250 -0.6944
12800TIP3   OH259890   0.223   3.307   4.890  0.2023  0.0953 -0.0051
12800TIP3    H159891   0.302   3.350   4.923  1.0156 -1.6707  0.4434
12800TIP3    H259892   0.165   3.301   4.966 -0.5747  1.7326 -0.4176
12801TIP3   OH259893   5.375   2.226  14.587  0.5099  0.3918 -0.0462
12801TIP3    H159894   5.361   2.238  14.681 -1.8829  0.8033 -0.3986
12801TIP3    H259895   5.448   2.164  14.582 -1.2255 -2.0439  2.1553
12802TIP3   OH259896   3.957   1.268   4.094  0.1764  0.4571  0.0111
12802TIP3    H159897   3.877   1.217   4.079  1.5561 -1.9488  0.2965
12802TIP3    H259898   4.008   1.256   4.014  1.4404 -0.4947  0.9123
12803TIP3   OH259899   4.689   1.807   4.559  0.1994  0.0662 -0.1751
12803TIP3    H159900   4.676   1.894   4.596  1.6434  0.5524 -0.7253
12803TIP3    H259901   4.603   1.765   4.564 -0.2815  1.1422  1.0426
12804TIP3   OH259902   6.603   1.569  11.961 -0.2867 -0.2526 -1.1709
12804TIP3    H159903   6.527   1.514  11.942 -0.8746 -0.1667  0.7313
12804TIP3    H259904   6.567   1.657  11.971 -0.3958 -0.5747  2.1236
12805TIP3   OH259905   5.403   0.092   2.110  0.1640 -0.1157 -0.2786
12805TIP3    H159906   5.375   0.127   2.025  2.1883 -0.8624 -1.3188
12805TIP3    H259907   5.437   0.005   2.090 -0.3501 -0.7641  1.5027
12806TIP3   OH259908   3.262   2.048   4.528  0.3113  0.9037 -0.5389
12806TIP3    H159909   3.308   2.021   4.608 -0.5908 -0.0038 -0.3078
12806TIP3    H259910   3.226   2.134   4.550  1.3870  1.3725 -0.5279
12807TIP3   OH259911   2.351   2.550   3.695 -0.4050 -0.0207 -0.3656
12807TIP3    H159912   2.407   2.478   3.664 -1.3691 -0.7766 -0.3819
12807TIP3    H259913   2.265   2.532   3.657 -1.4893 -0.6042  2.1388
12808TIP3   OH259914   3.760   6.656   2.530 -0.7510  0.0111  0.0233
12808TIP3    H159915   3.783   6.672   2.621  0.5026 -0.4609 -0.1892
12808TIP3    H259916   3.739   6.742   2.494 -4.5848 -0.0804  1.5505
12809TIP3   OH259917   2.222   3.863  11.764 -0.1345 -0.3677  0.1138
12809TIP3    H159918   2.134   3.825  11.770 -0.1141 -0.3902  0.2968
12809TIP3    H259919   2.215   3.930  11.696 -0.4422  0.0187  0.5101
12810TIP3   OH259920   4.323   0.899  11.379  0.1627 -0.5407 -0.4830
12810TIP3    H159921   4.260   0.836  11.343 -1.0270 -1.8551  3.3559
12810TIP3    H259922   4.359   0.855  11.456  1.2318  2.5003  0.9172
12811TIP3   OH259923   5.638   2.253  11.892 -0.3973 -0.1414  0.8348
12811TIP3    H159924   5.587   2.218  11.965  0.7282  0.0619  1.7431
12811TIP3    H259925   5.729   2.236  11.915  0.0512  1.1286  0.1129
12812TIP3   OH259926   1.468   2.848  12.639 -0.2322  0.2371 -1.0549
12812TIP3    H159927   1.433   2.934  12.614  0.6320  0.8931 -0.1037
12812TIP3    H259928   1.562   2.861  12.645  0.1282 -1.2586 -2.6454
12813TIP3   OH259929   3.435   1.057   4.180 -0.5531 -0.4969  0.2091
12813TIP3    H159930   3.458   1.147   4.205 -0.1284 -0.7109  0.6093
12813TIP3    H259931   3.377   1.026   4.249 -0.8456 -0.4688 -0.0233
12814TIP3   OH259932   4.080   2.911   1.665 -0.4566 -0.3435 -0.0827
12814TIP3    H159933   4.010   2.975   1.649 -0.8333 -0.8508 -0.5175
12814TIP3    H259934   4.129   2.909   1.582 -0.0455 -0.1429  0.1513
12815TIP3   OH259935   2.540   2.866  15.958  0.0434  0.0658  0.5089
12815TIP3    H159936   2.513   2.781  15.993  1.1217 -0.6080 -0.2273
12815TIP3    H259937   2.617   2.890  16.008  0.9886 -0.4153 -0.6597
12816TIP3   OH259938   1.684   2.022   1.071 -0.3399  0.6593  0.2250
12816TIP3    H159939   1.677   1.994   1.162 -1.7481 -1.5925 -0.4694
12816TIP3    H259940   1.597   2.003   1.034  0.3061  1.1675 -1.6546
12817TIP3   OH259941   0.447   2.469  15.232  0.1395  0.0794  0.5714
12817TIP3    H159942   0.541   2.486  15.229  0.3419 -0.7634 -3.5671
12817TIP3    H259943   0.407   2.543  15.186 -0.7904 -1.2234 -0.8283
12818TIP3   OH259944   4.300   0.019   0.426  0.1139  0.3988  0.1165
12818TIP3    H159945   4.251  -0.045   0.477 -0.9186 -0.5824 -1.9967
12818TIP3    H259946   4.387  -0.020   0.415 -0.4108 -0.5219 -0.8923
12819TIP3   OH259947   2.235   5.785   0.363  0.0808 -0.3814 -0.4987
12819TIP3    H159948   2.159   5.843   0.355  0.2509  0.0916  0.9960
12819TIP3    H259949   2.297   5.834   0.416 -0.1897 -2.2877  1.7588
12820TIP3   OH259950   0.143   6.577   6.091  0.0217 -0.0410 -0.0884
12820TIP3    H159951   0.221   6.520   6.092  0.5595  0.6801 -0.2492
12820TIP3    H259952   0.171   6.656   6.137 -0.6652  0.1729 -0.0308
12821TIP3   OH259953   0.887   2.240  10.193  0.2488 -0.4610  0.1402
12821TIP3    H159954   0.943   2.184  10.138 -1.2796 -2.8698  0.8870
12821TIP3    H259955   0.934   2.246  10.276  1.4371  1.2549 -0.5839
12822TIP3   OH259956   3.703   5.326  17.092 -0.0600 -0.1393  0.0040
12822TIP3    H159957   3.610   5.313  17.110 -0.7496  0.1539 -2.9333
12822TIP3    H259958   3.727   5.400  17.147 -2.3404  1.6300 -1.2047
12823TIP3   OH259959   5.918   5.298  14.433 -0.2049 -0.5978 -0.2249
12823TIP3    H159960   5.826   5.294  14.407 -0.4218 -0.7763  0.5385
12823TIP3    H259961   5.954   5.214  14.405 -0.8346 -1.4851  1.4339
12824TIP3   OH259962   5.116   0.186   6.046  0.1722 -0.4590 -0.3098
12824TIP3    H159963   5.106   0.255   6.112  0.7693 -1.5791  1.0059
12824TIP3    H259964   5.026   0.155   6.029  0.1236 -1.3523  1.3479
12825TIP3   OH259965   2.642   5.446  12.501  0.6302 -0.1802  0.4841
12825TIP3    H159966   2.558   5.406  12.475  0.7830 -0.6601  0.7251
12825TIP3    H259967   2.667   5.499  12.425  0.3657 -0.4512  0.2009
12826TIP3   OH259968   2.358   0.243   0.160  0.1068 -0.7703 -0.4653
12826TIP3    H159969   2.336   0.170   0.218  0.7007 -1.6872 -1.3546
12826TIP3    H259970   2.419   0.205   0.096 -1.4824 -0.1618 -2.4666
12827TIP3   OH259971   3.052   5.869   6.105  0.1435 -0.4123  0.3244
12827TIP3    H159972   3.036   5.935   6.037 -0.7348 -0.9702 -0.0386
12827TIP3    H259973   3.035   5.915   6.187  0.2017 -0.0044  0.1121
12828TIP3   OH259974   5.228   5.788   2.160  0.3528  0.2354  0.1403
12828TIP3    H159975   5.166   5.721   2.188  1.2659 -1.6695 -2.0192
12828TIP3    H259976   5.221   5.857   2.226 -4.0559  0.1888  0.0176
12829TIP3   OH259977   1.803   3.113  13.835 -0.1256  0.1305 -0.5276
12829TIP3    H159978   1.786   3.053  13.907 -1.6592 -0.7530 -1.5677
12829TIP3    H259979   1.770   3.198  13.865 -0.6177 -0.1978 -0.1497
12830TIP3   OH259980   1.649   5.136   0.479  0.9082 -0.3601  0.4178
12830TIP3    H159981   1.609   5.075   0.541  1.5052 -0.7492  0.4246
12830TIP3    H259982   1.721   5.087   0.439  1.0261  0.1458 -0.0096
12831TIP3   OH259983   6.569   5.562  13.220  0.4246  0.1647  0.3839
12831TIP3    H159984   6.628   5.486  13.224  0.2489 -0.0424 -0.5757
12831TIP3    H259985   6.530   5.568  13.307  1.1491 -0.2775  0.7432
12832TIP3   OH259986   3.017   3.360   4.675 -0.0299  0.0371 -0.2980
12832TIP3    H159987   3.086   3.300   4.701  1.7765  1.1461 -2.1632
12832TIP3    H259988   2.981   3.322   4.594 -0.0941  0.5461 -0.5149
12833TIP3   OH259989   1.790   4.493  15.753 -0.6476 -0.0977  0.1230
12833TIP3    H159990   1.725   4.563  15.743 -1.8895 -1.1510  0.4694
12833TIP3    H259991   1.874   4.538  15.756 -1.4884  1.5105  1.6048
12834TIP3   OH259992   1.742   4.092   4.630 -0.2646  0.2173 -0.4335
12834TIP3    H159993   1.790   4.174   4.646 -1.6806  0.9680  0.1662
12834TIP3    H259994   1.738   4.085   4.535  1.9456 -0.4598 -0.5475
12835TIP3   OH259995   4.204   5.744  14.753 -0.1002  0.0036 -0.7587
12835TIP3    H159996   4.214   5.837  14.734  0.8052 -0.1200 -0.9200
12835TIP3    H259997   4.109   5.730  14.755 -0.2445  0.7466 -1.6328
12836TIP3   OH259998   3.560   3.678  14.836 -0.2026  0.2121 -0.1084
12836TIP3    H159999   3.626   3.646  14.775  0.6687  2.6835 -0.5892
12836TIP3    H260000   3.575   3.628  14.916  0.9011 -0.6822 -0.8368
12837TIP3   OH260001   2.741   1.902   6.152 -0.4092  0.0360 -0.9324
12837TIP3    H160002   2.795   1.975   6.185 -1.5396  0.5524 -0.1772
12837TIP3    H260003   2.799   1.826   6.157 -0.5956 -0.0627  2.8705
12838TIP3   OH260004   1.182   0.483  15.786 -0.0502  0.1493 -0.5552
12838TIP3    H160005   1.190   0.398  15.829  0.3418  0.5824  0.2628
12838TIP3    H260006   1.150   0.463  15.698 -0.4734 -0.7945 -0.2008
12839TIP3   OH260007   0.882   2.808  11.089  0.4091 -0.7095  0.1133
12839TIP3    H160008   0.838   2.725  11.105 -0.0620 -0.2203  1.6035
12839TIP3    H260009   0.861   2.861  11.166  0.3695  0.9333 -0.9723
12840TIP3   OH260010   0.943   5.615   3.730  0.6691  0.0265  0.6727
12840TIP3    H160011   0.912   5.631   3.641 -1.0646  1.5032  1.4770
12840TIP3    H260012   1.033   5.584   3.719  0.5839  0.4178 -1.5751
12841TIP3   OH260013   3.003   0.598   4.149 -0.5474  0.6035  0.3311
12841TIP3    H160014   2.950   0.519   4.155 -0.9746  0.9326  0.9532
12841TIP3    H260015   2.990   0.629   4.059 -1.4352  0.7028  0.4879
12842TIP3   OH260016   4.856   6.506  13.183  0.1246  0.2478 -0.2968
12842TIP3    H160017   4.909   6.504  13.263  0.4490 -0.4110 -0.5181
12842TIP3    H260018   4.771   6.471  13.211  0.9970 -2.5096 -0.7343
12843TIP3   OH260019   1.460   3.584  13.816 -0.1929  0.3529 -0.1817
12843TIP3    H160020   1.385   3.544  13.773 -1.6522  3.0035 -0.2842
12843TIP3    H260021   1.516   3.613  13.744  0.3792 -0.5553 -0.1217
12844TIP3   OH260022   4.216   5.507   4.502  0.3483  0.6055 -0.0458
12844TIP3    H160023   4.190   5.497   4.594  1.0049  0.9851  0.1937
12844TIP3    H260024   4.306   5.475   4.499  0.3784  0.7295 -0.5252
12845TIP3   OH260025   5.671   2.530  14.356  0.6927 -0.2003  0.1977
12845TIP3    H160026   5.623   2.452  14.327 -0.3696  0.3515  0.4482
12845TIP3    H260027   5.763   2.508  14.339  0.3601 -1.2271 -0.4001
12846TIP3   OH260028   0.010   2.559  10.635  0.3701  0.3567  0.3975
12846TIP3    H160029   0.073   2.582  10.703  1.9795  0.3868 -1.0421
12846TIP3    H260030   0.063   2.540  10.558 -1.3367 -0.6263 -0.6085
12847TIP3   OH260031   0.976   5.189   2.217  0.1942 -0.5649  0.1872
12847TIP3    H160032   0.966   5.282   2.239 -0.3666 -0.4355 -0.5688
12847TIP3    H260033   0.982   5.187   2.122  1.8376 -1.1793  0.2787
12848TIP3   OH260034   2.990   5.338  12.516 -0.5590  0.4122  0.2243
12848TIP3    H160035   3.065   5.292  12.554  0.5219  1.9302 -0.0006
12848TIP3    H260036   2.916   5.310  12.569 -0.3406 -2.9745 -0.9722
12849TIP3   OH260037   6.222   5.719   0.667 -0.0234 -0.1046  0.5121
12849TIP3    H160038   6.269   5.679   0.594  1.0899 -0.3029  1.3116
12849TIP3    H260039   6.240   5.813   0.659  2.7779 -0.3805  2.2787
12850TIP3   OH260040   1.636   2.544   6.170  0.1315 -0.3410  0.4846
12850TIP3    H160041   1.722   2.551   6.211 -0.2317  0.2951  1.1735
12850TIP3    H260042   1.625   2.451   6.152  0.3934 -0.6063  1.6334
12851TIP3   OH260043   4.821   5.920  10.734  0.9060  0.6450  0.2261
12851TIP3    H160044   4.748   5.936  10.794 -1.3048 -0.3882 -2.0329
12851TIP3    H260045   4.789   5.949  10.649  3.0211 -0.2127 -0.9370
12852TIP3   OH260046   6.484   3.582  16.023 -0.1299  0.5740  0.1853
12852TIP3    H160047   6.491   3.542  16.109  2.2654  1.6411  0.5726
12852TIP3    H260048   6.391   3.594  16.009 -0.5576  0.7037  2.7847
12853TIP3   OH260049   0.959   6.014   3.990  0.5742  0.3082 -0.1577
12853TIP3    H160050   0.883   6.067   4.013  0.4751  0.1479 -0.1127
12853TIP3    H260051   0.930   5.962   3.915 -0.2991 -1.7979  1.5245
12854TIP3   OH260052   0.317   2.341   3.316 -0.2120  0.1949 -0.3190
12854TIP3    H160053   0.275   2.413   3.270  1.0538  0.8638 -0.4806
12854TIP3    H260054   0.376   2.302   3.251 -0.9114 -1.0395 -0.2522
12855TIP3   OH260055   5.451   4.165   3.432 -0.2144  0.1545 -0.1664
12855TIP3    H160056   5.379   4.221   3.459 -0.5900  0.8666 -2.4311
12855TIP3    H260057   5.489   4.209   3.355  0.6032 -1.7917 -0.9590
12856TIP3   OH260058   0.605   6.159   5.434 -0.4753  0.4262 -0.1924
12856TIP3    H160059   0.612   6.174   5.528 -1.0592  1.5381 -0.3133
12856TIP3    H260060   0.660   6.227   5.394 -0.5630  0.2239 -0.6714
12857TIP3   OH260061   0.992   6.430  13.484 -0.5895  0.4269 -0.0637
12857TIP3    H160062   1.010   6.429  13.578  0.3876  0.1978 -0.2402
12857TIP3    H260063   0.919   6.370  13.473 -2.1746  2.0893  0.8088
12858TIP3   OH260064   0.310   2.728  11.858  0.2639  0.0733  0.1662
12858TIP3    H160065   0.322   2.815  11.818 -0.6950  0.2597  0.2605
12858TIP3    H260066   0.283   2.747  11.948  1.7826 -0.3442  0.7341
12859TIP3   OH260067   6.749   2.836   0.762 -0.0271  0.2285  0.0823
12859TIP3    H160068   6.753   2.788   0.680 -1.6259  0.0778  0.0527
12859TIP3    H260069   6.697   2.914   0.742 -1.8676 -0.6122  1.2755
12860TIP3   OH260070   5.651   1.340   3.703 -0.1911 -0.2110 -0.2928
12860TIP3    H160071   5.743   1.350   3.725  0.0762 -0.4550 -1.2646
12860TIP3    H260072   5.647   1.261   3.648 -0.6853  0.8097 -1.7956
12861TIP3   OH260073   3.090   2.098   5.160  0.4206 -0.4186 -0.0080
12861TIP3    H160074   3.174   2.129   5.127  0.4039  0.1525  0.4735
12861TIP3    H260075   3.112   2.049   5.239  0.2620  0.1827  0.4158
12862TIP3   OH260076   5.469   4.820  13.874 -0.4135 -0.5797  0.2643
12862TIP3    H160077   5.463   4.894  13.813 -1.1012 -0.2354  0.7361
12862TIP3    H260078   5.515   4.752  13.825  1.4383  0.6042  0.2589
12863TIP3   OH260079   5.811   1.979  14.147 -0.1286  0.4019  0.1473
12863TIP3    H160080   5.821   1.929  14.228 -3.0285 -1.1370 -0.3051
12863TIP3    H260081   5.862   1.930  14.082 -1.2435 -0.8560  0.1729
12864TIP3   OH260082   2.270   0.425  16.285  0.4877 -0.2841  0.1583
12864TIP3    H160083   2.298   0.349  16.335  0.6810  0.1674  0.7514
12864TIP3    H260084   2.192   0.457  16.331  1.4013  0.8879  0.9589
12865TIP3   OH260085   3.280   0.748  13.665 -0.7621 -0.0327 -0.3443
12865TIP3    H160086   3.244   0.830  13.633 -0.6816 -0.9514 -3.0351
12865TIP3    H260087   3.206   0.703  13.706 -1.0057  0.9704  0.3410
12866TIP3   OH260088   5.139   6.602  11.175  0.1367  0.1728 -0.1109
12866TIP3    H160089   5.099   6.627  11.091 -1.2492  1.1638  0.7891
12866TIP3    H260090   5.095   6.520  11.199 -0.3971  0.5481  0.2252
12867TIP3   OH260091   3.197   4.676  14.023 -0.6398  0.2775  0.1771
12867TIP3    H160092   3.271   4.705  14.075  1.1267 -0.9468 -1.5020
12867TIP3    H260093   3.120   4.705  14.072  0.8836 -0.0769  2.9856
12868TIP3   OH260094   6.079   0.437   5.577 -0.4848  0.5188 -0.0689
12868TIP3    H160095   6.028   0.515   5.558 -0.4022  0.8022  0.8570
12868TIP3    H260096   6.101   0.444   5.670  0.5005 -0.0319 -0.2482
12869TIP3   OH260097   1.835   1.455  12.006  0.0941 -0.1494 -0.5362
12869TIP3    H160098   1.813   1.369  11.971  1.4701 -0.5350 -0.4695
12869TIP3    H260099   1.926   1.469  11.983  0.7423  0.0749  1.8784
12870TIP3   OH260100   5.029   5.028   1.479  0.0194 -0.0553  0.3343
12870TIP3    H160101   4.957   5.035   1.417 -0.3979 -1.2138  0.6663
12870TIP3    H260102   5.080   4.954   1.448  0.7172  0.3529  0.4746
12871TIP3   OH260103   2.570   3.696  11.228  0.3305 -0.0892 -0.6624
12871TIP3    H160104   2.658   3.676  11.195  1.6433  2.8760  0.7381
12871TIP3    H260105   2.535   3.760  11.167  0.9330  1.9460  1.0142
12872TIP3   OH260106   2.287   2.441   4.837  0.2621 -0.0340 -0.5031
12872TIP3    H160107   2.371   2.442   4.791  0.2099  2.4573 -0.6849
12872TIP3    H260108   2.235   2.373   4.792  1.8563 -1.0220 -0.9240
12873TIP3   OH260109   2.637   4.813   5.339  0.2456 -0.0091 -0.2602
12873TIP3    H160110   2.638   4.725   5.376  2.0048 -0.2958 -0.8520
12873TIP3    H260111   2.596   4.802   5.253 -0.1265 -0.1295 -0.0678
12874TIP3   OH260112   0.296   2.355   4.030 -0.5615 -0.0665  0.8073
12874TIP3    H160113   0.376   2.330   3.984 -1.1642 -0.1529 -0.2171
12874TIP3    H260114   0.235   2.284   4.012 -1.1550  0.4299  0.8425
12875TIP3   OH260115   0.292   5.546   0.887 -0.0343  0.1443 -0.6929
12875TIP3    H160116   0.228   5.513   0.951 -0.1028 -0.1107 -0.8919
12875TIP3    H260117   0.240   5.568   0.810 -0.0746  1.3006 -0.3568
12876TIP3   OH260118   2.586   3.359  11.849  0.2558 -0.1734  0.0475
12876TIP3    H160119   2.581   3.444  11.892  0.9550 -0.6957  1.2114
12876TIP3    H260120   2.662   3.365  11.791 -0.9639  0.6924 -1.5743
12877TIP3   OH260121   5.214   3.594   4.692  0.0970 -0.0814 -0.4273
12877TIP3    H160122   5.253   3.666   4.642 -1.6333  0.7482 -0.6598
12877TIP3    H260123   5.241   3.611   4.782  0.4061  0.3800 -0.6042
12878TIP3   OH260124   2.603   0.873   2.239  0.0140 -0.8138  0.5356
12878TIP3    H160125   2.606   0.848   2.332  0.3976 -1.4291  0.3667
12878TIP3    H260126   2.535   0.940   2.234 -2.6697 -3.3167  0.6867
12879TIP3   OH260127   3.312   2.786  13.285 -0.1584  0.4496  0.1931
12879TIP3    H160128   3.394   2.737  13.285  0.0229  0.6996 -1.6400
12879TIP3    H260129   3.270   2.763  13.203 -1.6386  0.8313  0.8148
12880TIP3   OH260130   4.937   5.504   5.503 -0.1034  0.1372  0.6774
12880TIP3    H160131   4.955   5.570   5.436  0.5189 -0.1757  0.5260
12880TIP3    H260132   4.853   5.531   5.541  0.1176  0.9947  0.5968
12881TIP3   OH260133   0.473   2.949   3.543  0.3643  0.2889 -0.0775
12881TIP3    H160134   0.413   3.022   3.557  0.2774  0.0639  0.8202
12881TIP3    H260135   0.558   2.980   3.575  0.5742  0.3693 -0.7054
12882TIP3   OH260136   5.552   1.126  12.756  0.2474 -0.3707  0.0471
12882TIP3    H160137   5.487   1.161  12.695 -0.0031 -0.8248  0.0486
12882TIP3    H260138   5.620   1.193  12.759 -0.4446  0.3263  0.4222
12883TIP3   OH260139   1.298   5.420  14.926  0.3019  0.4308 -0.2704
12883TIP3    H160140   1.240   5.344  14.926  2.4980 -1.3498 -0.6453
12883TIP3    H260141   1.272   5.469  14.848 -0.1824 -0.7433 -0.8761
12884TIP3   OH260142   1.254   1.068  14.199 -0.0597  0.5212  0.2551
12884TIP3    H160143   1.334   1.120  14.188  0.7427 -0.3437  1.6318
12884TIP3    H260144   1.221   1.093  14.285 -0.2164 -0.4867  0.5026
12885TIP3   OH260145   1.138   6.072   2.982 -0.6393  0.0663  0.0826
12885TIP3    H160146   1.101   6.155   2.950  0.2602  0.4694  0.0585
12885TIP3    H260147   1.180   6.033   2.905 -2.0049 -0.9622 -0.1698
12886TIP3   OH260148   6.476   4.919  14.230 -0.1298 -0.6448 -0.2231
12886TIP3    H160149   6.544   4.853  14.225  1.7677  1.1506  0.4768
12886TIP3    H260150   6.469   4.953  14.140 -0.4796 -1.1567 -0.3959
12887TIP3   OH260151   3.745   3.841  13.904 -0.2306  0.3967 -0.3148
12887TIP3    H160152   3.696   3.774  13.856  0.2196  0.5119 -0.9457
12887TIP3    H260153   3.777   3.795  13.982  2.0610 -0.8335 -1.8622
12888TIP3   OH260154   2.648   5.815  10.381  0.2036 -0.0514  0.4707
12888TIP3    H160155   2.622   5.731  10.343  1.0204  0.0655 -0.3765
12888TIP3    H260156   2.638   5.802  10.475 -1.2299 -0.5664  0.2745
12889TIP3   OH260157   2.016   0.347   2.117 -0.3526  0.7036 -0.2647
12889TIP3    H160158   2.037   0.435   2.150  1.3645  0.6441 -1.0798
12889TIP3    H260159   2.004   0.359   2.022  1.6164 -0.1463 -0.6845
12890TIP3   OH260160   1.179   6.643   3.958 -0.1378  0.3821 -0.0963
12890TIP3    H160161   1.234   6.713   3.922  0.0782 -0.1676 -0.8798
12890TIP3    H260162   1.096   6.651   3.911 -1.6684  2.6865  2.7224
12891TIP3   OH260163   3.058   0.920  10.766  0.7416  0.3546  0.4549
12891TIP3    H160164   3.073   1.014  10.775  1.2306  0.2381  0.8553
12891TIP3    H260165   2.966   0.914  10.738  0.9426  0.9823 -0.3948
12892TIP3   OH260166   1.520   4.871   1.400  0.3787 -0.3560 -0.0478
12892TIP3    H160167   1.577   4.797   1.379 -0.5767 -1.3047  0.5905
12892TIP3    H260168   1.567   4.919   1.468  1.8915  0.7674 -1.7866
12893TIP3   OH260169   5.715   4.922   0.176 -0.6213 -0.3674 -0.4010
12893TIP3    H160170   5.729   4.827   0.177  1.1595 -0.1604 -1.1160
12893TIP3    H260171   5.769   4.955   0.249 -0.7260  0.1562 -0.5527
12894TIP3   OH260172   5.095   4.717   0.216 -0.0113  0.0606  0.0590
12894TIP3    H160173   5.190   4.731   0.221 -0.0866  0.2303  1.1055
12894TIP3    H260174   5.084   4.654   0.144  0.8947 -0.0267 -0.0155
12895TIP3   OH260175   6.509   1.234  12.560  0.2715 -0.4104  0.1715
12895TIP3    H160176   6.589   1.278  12.588 -0.2712  0.6111  0.1742
12895TIP3    H260177   6.440   1.298  12.574 -0.3412 -0.6886 -1.3447
12896TIP3   OH260178   4.631   5.981  11.130 -0.4723 -0.3648  0.1475
12896TIP3    H160179   4.548   5.985  11.178 -1.1642  1.3874 -1.0772
12896TIP3    H260180   4.632   5.893  11.093 -1.2807 -0.7641  1.0150
12897TIP3   OH260181   6.299   4.402  16.677 -0.3026 -0.3353 -0.0695
12897TIP3    H160182   6.235   4.331  16.676 -0.0554 -0.5564 -0.8382
12897TIP3    H260183   6.251   4.477  16.714 -0.5648 -0.8908  0.7480
12898TIP3   OH260184   4.313   2.349  13.613  0.2463  0.0685  0.4099
12898TIP3    H160185   4.376   2.417  13.591  0.4530 -0.0013  0.7934
12898TIP3    H260186   4.231   2.396  13.628  0.3373  0.2087  0.4672
12899TIP3   OH260187   4.429   4.376  12.218  0.3882 -0.3497 -0.1669
12899TIP3    H160188   4.482   4.303  12.185 -0.2372 -0.7597 -0.2886
12899TIP3    H260189   4.423   4.361  12.312  1.7450  0.5391  0.0886
12900TIP3   OH260190   1.157   1.654  12.425 -0.1706  0.1471  0.6159
12900TIP3    H160191   1.114   1.716  12.485 -0.9381 -1.2590  1.5676
12900TIP3    H260192   1.250   1.678  12.429 -0.4877  1.4634  0.6808
12901TIP3   OH260193   4.362   6.203   4.299  0.4362  0.5940 -0.3743
12901TIP3    H160194   4.330   6.114   4.284 -0.6410  1.2156 -2.1847
12901TIP3    H260195   4.449   6.192   4.336  1.4763 -1.2769 -3.0764
12902TIP3   OH260196   3.071   4.298   5.900  1.1073  0.1855  0.5265
12902TIP3    H160197   3.089   4.310   5.993  0.1474 -2.3199  1.1220
12902TIP3    H260198   3.007   4.227   5.897 -0.4758  1.5762 -1.9673
12903TIP3   OH260199   5.559   5.579   0.732 -0.5489 -0.5860  0.0697
12903TIP3    H160200   5.637   5.561   0.679  0.3583  0.5584  0.9436
12903TIP3    H260201   5.549   5.674   0.729 -0.6762 -0.5207  1.6305
12904TIP3   OH260202   3.990   1.493  16.789 -0.0595 -0.4157 -0.1582
12904TIP3    H160203   3.929   1.467  16.720 -0.7199 -1.8693  0.9077
12904TIP3    H260204   3.957   1.578  16.819  0.0269  0.0601 -1.3783
12905TIP3   OH260205   1.369   3.176   3.304  0.0176 -0.6431  0.3005
12905TIP3    H160206   1.385   3.224   3.222  2.2364  0.1185  1.1247
12905TIP3    H260207   1.284   3.209   3.334  0.0643  0.4831 -0.7161
12906TIP3   OH260208   3.838   5.086  17.100 -0.2859  0.8157 -0.4373
12906TIP3    H160209   3.792   5.169  17.088  0.3497  1.2257 -0.0752
12906TIP3    H260210   3.860   5.084  17.193  0.0366  0.4098 -0.5208
12907TIP3   OH260211   3.233   6.002   4.988  0.0330  0.4296 -0.4794
12907TIP3    H160212   3.278   6.027   5.069 -0.5975 -2.4991  0.9158
12907TIP3    H260213   3.304   5.979   4.928  0.4807  0.3460  0.0695
12908TIP3   OH260214   2.036   2.989  12.949  0.9332 -0.3161  0.6051
12908TIP3    H160215   2.033   2.959  13.040 -2.4446  0.0072  0.7182
12908TIP3    H260216   2.015   2.912  12.897 -1.8721  0.4136  0.5063
12909TIP3   OH260217   0.202   4.553  14.347  0.3924 -0.0800  0.0447
12909TIP3    H160218   0.247   4.626  14.306 -1.7143 -0.0724 -2.5462
12909TIP3    H260219   0.172   4.499  14.274 -0.6029 -1.9863  1.7529
12910TIP3   OH260220   1.062   0.825  12.430 -0.1861  0.0448  0.2053
12910TIP3    H160221   1.104   0.792  12.510 -2.5023  1.3240  2.0798
12910TIP3    H260222   1.113   0.786  12.359  1.6951 -1.5604  2.2655
12911TIP3   OH260223   5.500   2.599  11.620 -0.2102  0.6826  0.0686
12911TIP3    H160224   5.523   2.686  11.586  0.2302  0.7549  0.5387
12911TIP3    H260225   5.464   2.553  11.544  1.9131  0.3973 -0.8357
12912TIP3   OH260226   1.503   3.623   2.884  0.1109 -0.5162  0.0572
12912TIP3    H160227   1.470   3.597   2.969  0.3785  1.2634  0.7415
12912TIP3    H260228   1.504   3.542   2.833  0.8744 -1.8289  2.0289
12913TIP3   OH260229   3.572   6.050  11.058 -0.1249  0.2450  0.0152
12913TIP3    H160230   3.566   5.975  11.000  1.8687  1.0130 -1.2949
12913TIP3    H260231   3.487   6.093  11.052 -0.4658 -0.5491 -1.1457
12914TIP3   OH260232   1.763   3.666  12.035  0.4038 -0.3293  0.0345
12914TIP3    H160233   1.703   3.645  12.107 -1.0806  1.7431 -0.5278
12914TIP3    H260234   1.723   3.741  11.991  2.9454  0.5351 -0.9655
12915TIP3   OH260235   1.856   2.371  10.965 -0.0260  0.4245 -0.1836
12915TIP3    H160236   1.802   2.441  10.929 -0.6958  0.4128  0.7528
12915TIP3    H260237   1.843   2.377  11.060  1.9583  0.6985  0.1185
12916TIP3   OH260238   0.778   0.965   5.297  0.1242  0.8146  0.1268
12916TIP3    H160239   0.684   0.973   5.281  0.3641  1.0190 -1.2661
12916TIP3    H260240   0.785   0.954   5.392 -1.4233 -1.0482  0.0789
12917TIP3   OH260241   6.812   5.932  11.345 -0.0254  0.2146 -0.0906
12917TIP3    H160242   6.743   5.985  11.304  1.3415  1.4625 -0.8579
12917TIP3    H260243   6.768   5.889  11.419 -1.8152  0.3236 -1.0289
12918TIP3   OH260244   2.283   1.383  16.185  0.1435 -0.2496  0.4959
12918TIP3    H160245   2.347   1.340  16.242  0.9234 -1.0334 -0.9157
12918TIP3    H260246   2.330   1.457  16.147 -0.0060 -0.3802  0.0401
12919TIP3   OH260247   1.454   5.376  15.333  0.5101 -0.2605 -0.1842
12919TIP3    H160248   1.455   5.396  15.427  0.5760 -0.0639 -0.2272
12919TIP3    H260249   1.536   5.328  15.318  1.0478  0.6852 -0.3526
12920TIP3   OH260250   5.312   1.837  13.001 -0.1036  0.1981 -0.0217
12920TIP3    H160251   5.334   1.863  13.090 -0.1998  1.5664 -0.3713
12920TIP3    H260252   5.314   1.919  12.951  1.9852 -0.7978 -1.7214
12921TIP3   OH260253   6.207   5.721  10.559 -0.0770  0.0695  0.3041
12921TIP3    H160254   6.185   5.647  10.503  1.0798  0.4378 -0.6837
12921TIP3    H260255   6.165   5.796  10.518  0.0324  0.2053  0.4363
12922TIP3   OH260256   2.040   2.871  13.824  0.8070  0.1109 -0.5485
12922TIP3    H160257   2.038   2.951  13.771  0.7630  0.2252 -0.3753
12922TIP3    H260258   1.959   2.825  13.801  0.3227  0.6176  0.1202
12923TIP3   OH260259   5.502   6.343  13.950 -0.1013  0.1243  0.5751
12923TIP3    H160260   5.542   6.415  13.998 -0.1995 -0.1609  1.0894
12923TIP3    H260261   5.436   6.385  13.894  0.1775  0.4799  0.5121
12924TIP3   OH260262   5.900   4.765  14.852  0.2470  0.7643 -0.3760
12924TIP3    H160263   5.879   4.676  14.880  1.0652  0.1033 -1.7588
12924TIP3    H260264   5.849   4.821  14.911 -1.3492 -0.6427 -0.3372
12925TIP3   OH260265   4.520   1.678   0.272 -0.0182 -0.0408 -0.2864
12925TIP3    H160266   4.593   1.652   0.328 -0.8091  1.3830  1.5016
12925TIP3    H260267   4.502   1.602   0.218  1.9000 -0.8806  0.1956
12926TIP3   OH260268   5.263   4.454  11.531 -0.3980  0.2349  0.3910
12926TIP3    H160269   5.215   4.376  11.506  1.7417 -0.6097 -1.4349
12926TIP3    H260270   5.334   4.422  11.587 -1.5551  1.3754  2.6300
12927TIP3   OH260271   0.718   3.681  14.537 -0.2554  0.1008 -0.1652
12927TIP3    H160272   0.771   3.760  14.529 -0.5585  0.5082  1.4132
12927TIP3    H260273   0.645   3.695  14.477 -0.3249  1.0427  0.1228
12928TIP3   OH260274   0.755   1.495  16.955  0.0815  0.0834  0.2241
12928TIP3    H160275   0.809   1.568  16.924  0.1601 -0.6787 -1.6113
12928TIP3    H260276   0.798   1.417  16.919 -1.3033 -0.6760  0.1468
12929TIP3   OH260277   5.687   6.338   3.388  0.1545 -0.5115  0.0808
12929TIP3    H160278   5.598   6.372   3.387  0.2869 -0.1358  0.7484
12929TIP3    H260279   5.743   6.412   3.365  0.4579 -0.2037  1.7367
12930TIP3   OH260280   4.670   6.524   4.934  0.0466  0.0829  0.0293
12930TIP3    H160281   4.761   6.544   4.913  0.1611  0.1644  0.5774
12930TIP3    H260282   4.620   6.558   4.860  0.2982  1.8358  0.6121
12931TIP3   OH260283   4.816   3.664   5.683  0.3626 -0.4926 -0.3800
12931TIP3    H160284   4.740   3.628   5.638  0.3714 -1.9042  0.6795
12931TIP3    H260285   4.845   3.595   5.742  1.1975  0.7920  0.7870
12932TIP3   OH260286   1.620   2.832   5.781 -0.2500  0.3908  0.3184
12932TIP3    H160287   1.660   2.825   5.868 -0.1095  0.3614  0.2520
12932TIP3    H260288   1.687   2.798   5.722 -0.9550 -1.1519  0.3480
12933TIP3   OH260289   3.459   2.087  11.459  0.1534  0.1696 -0.0176
12933TIP3    H160290   3.442   2.180  11.476  2.2936  0.5693  0.2122
12933TIP3    H260291   3.522   2.088  11.387 -1.3914 -1.2079 -1.4648
12934TIP3   OH260292   1.301   2.159   1.946 -0.2461 -0.0670 -0.2495
12934TIP3    H160293   1.225   2.212   1.921  1.0878  1.3267 -1.5876
12934TIP3    H260294   1.334   2.201   2.026  0.4152  0.7441 -0.9335
12935TIP3   OH260295   2.460   6.123  15.244  0.0191 -0.1517  0.3284
12935TIP3    H160296   2.404   6.196  15.269  0.8736  0.7914 -0.4123
12935TIP3    H260297   2.477   6.077  15.326  0.7446  1.4029  1.1017
12936TIP3   OH260298   2.606   4.281   4.771  0.2613  0.6063 -0.6875
12936TIP3    H160299   2.639   4.214   4.711  0.0614  0.0819 -0.2244
12936TIP3    H260300   2.676   4.347   4.774 -0.4803  1.5743 -2.9089
12937TIP3   OH260301   5.291   4.172   3.085 -0.1439  0.3591 -0.4777
12937TIP3    H160302   5.366   4.217   3.047  0.6100  1.1110  1.7544
12937TIP3    H260303   5.229   4.242   3.105  0.2674  0.2308  1.3475
12938TIP3   OH260304   5.943   1.034   4.884  0.1245  0.1851 -0.5923
12938TIP3    H160305   6.035   1.008   4.881 -0.1443 -1.1739  1.2650
12938TIP3    H260306   5.896   0.963   4.839 -0.1607  0.0249 -0.0491
12939TIP3   OH260307   1.784   2.056   0.137  0.5457  0.2502  0.4336
12939TIP3    H160308   1.720   1.996   0.176  1.8977 -1.9138 -0.4934
12939TIP3    H260309   1.838   2.084   0.211 -1.4158  2.1863  1.2463
12940TIP3   OH260310   5.885   0.766   6.550 -0.3572  0.8066  0.0390
12940TIP3    H160311   5.967   0.718   6.536  0.3038  1.8096  0.3765
12940TIP3    H260312   5.819   0.698   6.557  0.7242 -0.1422  1.7111
12941TIP3   OH260313   6.261   0.961   3.531 -0.0122  0.6056 -0.3194
12941TIP3    H160314   6.311   0.892   3.574 -1.7837 -0.8842 -0.5457
12941TIP3    H260315   6.221   1.010   3.603  0.0548  0.4747 -0.1927
12942TIP3   OH260316   2.556   1.394  11.797 -0.1277 -0.4293 -0.1751
12942TIP3    H160317   2.515   1.395  11.710  1.7546  0.2531 -1.1279
12942TIP3    H260318   2.581   1.303  11.810 -0.1786 -0.4922 -0.4923
12943TIP3   OH260319   3.158   4.803   4.881  0.5201 -0.0074  0.3052
12943TIP3    H160320   3.157   4.899   4.882  0.8391 -0.0018 -0.0281
12943TIP3    H260321   3.194   4.779   4.966  3.2859  0.2152 -0.7037
12944TIP3   OH260322   0.721   6.158  13.181  0.1683 -0.2105 -0.6576
12944TIP3    H160323   0.633   6.121  13.175  0.1844 -0.7845  1.6623
12944TIP3    H260324   0.710   6.239  13.231  0.9767 -0.4343 -0.0968
12945TIP3   OH260325   5.931   1.262   0.045 -0.0027 -0.6559  0.4386
12945TIP3    H160326   5.973   1.206  -0.020 -1.8253 -0.8399 -0.6515
12945TIP3    H260327   5.910   1.202   0.117  0.2518 -0.8678  0.3395
12946TIP3   OH260328   3.225   3.453   5.569  0.1320  0.1719  0.1897
12946TIP3    H160329   3.130   3.443   5.567  0.1716 -2.2630  3.5013
12946TIP3    H260330   3.240   3.545   5.545 -2.8028  0.1349 -2.4495
12947TIP3   OH260331   1.994   1.536   3.134  0.3143  0.4835 -0.5391
12947TIP3    H160332   2.033   1.507   3.052  0.6931  2.7580 -1.2359
12947TIP3    H260333   2.043   1.490   3.202  1.5171  0.2703 -1.5235
12948TIP3   OH260334   1.206   4.988  13.641 -0.0899  0.4742  0.0060
12948TIP3    H160335   1.240   4.979  13.552 -0.2389 -1.9405  0.1216
12948TIP3    H260336   1.163   5.074  13.641 -0.7249  0.2586 -2.4925
12949TIP3   OH260337   4.241   3.505   2.938  0.0329  0.2452  0.6080
12949TIP3    H160338   4.319   3.451   2.946  0.3164  0.5791  0.1615
12949TIP3    H260339   4.242   3.562   3.015  2.7976  3.5353 -1.5689
12950TIP3   OH260340   1.490   1.676   1.535  0.3869 -0.0921 -0.6037
12950TIP3    H160341   1.405   1.632   1.541  0.1921  0.3788  0.3884
12950TIP3    H260342   1.470   1.769   1.546  1.2200 -0.1541  2.4145
12951TIP3   OH260343   4.369   2.974  14.988 -0.1017 -0.2106  0.6245
12951TIP3    H160344   4.390   2.885  15.016 -2.2786  0.0661  3.5636
12951TIP3    H260345   4.309   2.962  14.914 -0.5845 -1.2274  1.1574
12952TIP3   OH260346   4.851   4.759   2.518  0.2098 -0.2455 -0.0418
12952TIP3    H160347   4.813   4.835   2.560  0.0647 -0.8383  0.9311
12952TIP3    H260348   4.911   4.723   2.583  1.2701 -0.2164 -0.9752
12953TIP3   OH260349   4.397   1.403   1.240 -0.2187 -0.0759  0.4358
12953TIP3    H160350   4.487   1.389   1.271  0.2872  1.6508 -0.1512
12953TIP3    H260351   4.406   1.417   1.146 -0.6605  3.1082  0.7593
12954TIP3   OH260352   4.861   3.112   3.983  0.4489 -0.1692  0.4966
12954TIP3    H160353   4.847   3.065   4.065 -0.1658 -0.3464  0.2951
12954TIP3    H260354   4.857   3.205   4.007 -3.2087 -0.1194  0.1721
12955TIP3   OH260355   4.199   0.517   5.280  0.1147 -0.1787 -1.3153
12955TIP3    H160356   4.209   0.424   5.261 -1.1081 -0.5592 -0.2411
12955TIP3    H260357   4.288   0.548   5.298  0.2377 -1.9368  1.6865
12956TIP3   OH260358   5.115   6.745   1.804  0.4703 -0.0096 -0.6246
12956TIP3    H160359   5.032   6.764   1.761  0.6182  0.0257 -0.9003
12956TIP3    H260360   5.150   6.831   1.829  0.4036 -0.0272 -0.4735
12957TIP3   OH260361   1.382   0.822  16.706 -0.3866  0.3175  0.4812
12957TIP3    H160362   1.344   0.859  16.626 -1.8877  0.8244  1.3960
12957TIP3    H260363   1.451   0.884  16.731  0.0684  0.1742 -0.3671
12958TIP3   OH260364   3.785   2.683  11.920 -0.3356  0.5198 -0.0162
12958TIP3    H160365   3.865   2.710  11.874 -0.3854  1.6393  0.5245
12958TIP3    H260366   3.785   2.587  11.915  1.0702  0.5044  0.0370
12959TIP3   OH260367   1.059   3.566   4.707 -0.1635 -0.0824 -0.9709
12959TIP3    H160368   0.994   3.619   4.661 -0.9888 -1.6145 -1.6377
12959TIP3    H260369   1.127   3.549   4.641 -1.1874 -2.0039 -1.6148
12960TIP3   OH260370   2.302   2.173   1.184  0.2941 -0.3661 -0.3107
12960TIP3    H160371   2.240   2.220   1.239  0.6787 -1.4468  1.1055
12960TIP3    H260372   2.368   2.139   1.245  1.2472 -0.8266 -1.5473
12961TIP3   OH260373   2.294   4.144  16.112  0.1427  0.0109 -0.2001
12961TIP3    H160374   2.378   4.132  16.156 -0.0965  1.1787  0.6316
12961TIP3    H260375   2.229   4.110  16.174 -0.0103 -0.8700 -0.8301
12962TIP3   OH260376   0.580   3.960  17.061 -0.1650  0.0289  0.2354
12962TIP3    H160377   0.516   3.890  17.051  1.5485 -1.9457  2.0161
12962TIP3    H260378   0.657   3.929  17.012  1.4463 -0.5882  2.9371
12963TIP3   OH260379   4.796   2.212   3.967  0.2087 -0.0681  0.2069
12963TIP3    H160380   4.802   2.160   3.887  0.2856 -0.7735  0.6659
12963TIP3    H260381   4.881   2.202   4.009  0.9276  1.9906 -0.6261
12964TIP3   OH260382   1.629   1.198   3.154  0.7343 -0.1784 -0.0191
12964TIP3    H160383   1.565   1.140   3.113  1.1468  0.2079 -1.2418
12964TIP3    H260384   1.629   1.172   3.246  0.8955 -2.1268 -0.5189
12965TIP3   OH260385   0.912   5.756   4.640  0.0309 -0.5369 -0.0109
12965TIP3    H160386   0.979   5.764   4.707 -1.2422 -0.4146  1.2788
12965TIP3    H260387   0.959   5.722   4.563  1.4375 -1.0575  1.0457
12966TIP3   OH260388   0.568   4.392   0.464 -0.2000 -0.3372  0.2601
12966TIP3    H160389   0.544   4.318   0.519  0.2756 -3.1957 -3.0537
12966TIP3    H260390   0.663   4.397   0.471 -0.2693  0.2594  0.8109
12967TIP3   OH260391   4.152   1.572   5.106  0.2971  0.1744 -0.3503
12967TIP3    H160392   4.130   1.661   5.081 -3.3332  0.0445  1.6868
12967TIP3    H260393   4.193   1.580   5.192  0.6748 -0.0867 -0.5035
12968TIP3   OH260394   6.248   6.256  16.148  0.5748  0.4989 -0.1746
12968TIP3    H160395   6.318   6.229  16.089  0.9962 -1.6184  1.2138
12968TIP3    H260396   6.216   6.175  16.187 -0.3919  1.7273  1.7426
12969TIP3   OH260397   5.009   4.528  14.119 -0.2159 -0.1005 -0.0613
12969TIP3    H160398   5.079   4.584  14.085  0.1062 -0.5370 -0.1308
12969TIP3    H260399   4.930   4.558  14.073  0.1788 -0.5674 -1.0913
12970TIP3   OH260400   3.851   5.412  16.625 -0.1732  0.6465  0.1126
12970TIP3    H160401   3.833   5.494  16.580 -0.1666  1.9984  2.3917
12970TIP3    H260402   3.770   5.391  16.671 -0.2811 -0.8441 -0.6894
12971TIP3   OH260403   1.366   4.183   4.996 -0.4253 -0.3628  0.1006
12971TIP3    H160404   1.357   4.131   4.916 -1.4213  1.4736 -1.0451
12971TIP3    H260405   1.446   4.150   5.036  1.2587 -0.0228 -2.7030
12972TIP3   OH260406   2.897   0.598  15.165  0.1937 -0.2288 -0.2077
12972TIP3    H160407   2.939   0.524  15.210  0.1837 -0.8512 -1.2031
12972TIP3    H260408   2.954   0.616  15.090  0.5907  1.2628  0.4234
12973TIP3   OH260409   3.426   2.462  17.224 -0.6525  0.3619  0.5314
12973TIP3    H160410   3.437   2.367  17.218  0.3576  0.5067 -0.0800
12973TIP3    H260411   3.414   2.491  17.133  0.7734  0.9999  0.5139
12974TIP3   OH260412   6.726   1.716   3.004 -0.0646  0.1658  0.2742
12974TIP3    H160413   6.660   1.752   3.064 -0.8699  2.4686 -1.7985
12974TIP3    H260414   6.691   1.632   2.977 -1.2789  0.5392  0.6060
12975TIP3   OH260415   3.883   6.731   4.013  0.5194 -0.7188 -0.2920
12975TIP3    H160416   3.832   6.767   4.085 -1.2006  0.8452 -2.1734
12975TIP3    H260417   3.911   6.645   4.044  0.2656  0.0858  2.3758
12976TIP3   OH260418   5.709   0.350  17.089  0.0934 -0.1223  0.2156
12976TIP3    H160419   5.723   0.340  16.995 -1.4108 -0.4263 -0.0034
12976TIP3    H260420   5.791   0.387  17.122  1.2045 -1.4071 -0.9660
12977TIP3   OH260421   3.140   1.247   5.279 -0.2684  0.3360  0.1165
12977TIP3    H160422   3.072   1.272   5.216  0.8866  0.2628 -1.2126
12977TIP3    H260423   3.182   1.171   5.239 -0.0526 -0.2413  1.4064
12978TIP3   OH260424   0.886   6.709  11.365 -0.0487 -0.4226  0.1049
12978TIP3    H160425   0.825   6.680  11.433  0.0521  0.2836  0.5078
12978TIP3    H260426   0.915   6.796  11.394  0.7875 -0.5465 -0.3183
12979TIP3   OH260427   5.693   0.196  13.931  0.0565  0.2013 -0.0363
12979TIP3    H160428   5.714   0.143  14.008 -0.0507 -0.6969 -0.6077
12979TIP3    H260429   5.668   0.132  13.864  0.8223  0.9132 -1.0324
12980TIP3   OH260430   6.801   5.390   3.607 -0.0354  0.4099  0.2120
12980TIP3    H160431   6.730   5.417   3.665 -0.2065 -3.1423  1.9595
12980TIP3    H260432   6.870   5.359   3.666  1.7068  0.8771 -1.4755
12981TIP3   OH260433   6.382   2.754  10.476 -0.0994  0.9323  0.3640
12981TIP3    H160434   6.461   2.791  10.437 -1.1301  1.8553 -0.9685
12981TIP3    H260435   6.330   2.830  10.501 -1.1291  0.3701  0.0060
12982TIP3   OH260436   2.627   6.219  11.258  0.1248 -0.1043 -0.8279
12982TIP3    H160437   2.571   6.166  11.201 -1.3349  0.0028  0.4305
12982TIP3    H260438   2.710   6.172  11.261 -0.7792 -1.7678 -0.5777
12983TIP3   OH260439   6.195   5.101  12.420 -0.0117 -0.3178 -0.3470
12983TIP3    H160440   6.151   5.087  12.504 -1.1774 -0.2676 -0.9335
12983TIP3    H260441   6.171   5.190  12.395  0.2392 -0.3701 -0.7778
12984TIP3   OH260442   6.286   2.954  12.699 -0.1033  0.0555 -1.0212
12984TIP3    H160443   6.202   2.963  12.744 -0.2985  1.5262 -1.5996
12984TIP3    H260444   6.263   2.928  12.610  0.0468  0.4367 -1.1736
12985TIP3   OH260445   6.799   6.138  13.029  0.0983  0.1919  0.5742
12985TIP3    H160446   6.879   6.189  13.018  0.1173  0.1245  0.3884
12985TIP3    H260447   6.749   6.185  13.096  0.8673 -0.4708  1.6304
12986TIP3   OH260448   3.514   3.437   4.762  0.4123  0.2878  0.6838
12986TIP3    H160449   3.507   3.531   4.745 -0.6773  0.0802 -0.1043
12986TIP3    H260450   3.460   3.423   4.840  0.2212  0.2541  0.5464
12987TIP3   OH260451   6.272   3.634  16.969  0.3479 -0.0954  0.9147
12987TIP3    H160452   6.310   3.547  16.977  0.3017 -0.3741 -1.2148
12987TIP3    H260453   6.346   3.693  16.964  0.6462 -0.5448 -2.2815
12988TIP3   OH260454   2.073   0.292   5.114  0.3743 -0.3272 -0.1942
12988TIP3    H160455   2.160   0.325   5.089  0.5631 -0.6299  0.0541
12988TIP3    H260456   2.036   0.361   5.168 -0.2271  0.5473 -1.6556
12989TIP3   OH260457   6.757   0.180  12.727  0.5876  0.2212 -0.3697
12989TIP3    H160458   6.733   0.094  12.761 -0.4177  0.7429  0.3056
12989TIP3    H260459   6.849   0.172  12.702  0.6698 -0.8726  0.2332
12990TIP3   OH260460   3.171   2.971   3.091  0.1164  0.6696 -0.1044
12990TIP3    H160461   3.257   2.938   3.115  0.4393  1.2508 -0.4389
12990TIP3    H260462   3.110   2.926   3.149  0.2472 -2.4039 -2.1387
12991TIP3   OH260463   3.224   5.656  15.065  0.3942 -0.3598 -0.5020
12991TIP3    H160464   3.193   5.599  15.135  2.4292 -0.2850  0.5528
12991TIP3    H260465   3.244   5.597  14.993 -1.8303 -0.4263 -1.1148
12992TIP3   OH260466   4.835   4.896  14.297 -0.1867 -0.1301  0.3405
12992TIP3    H160467   4.874   4.815  14.265 -1.1070 -0.1941 -0.6862
12992TIP3    H260468   4.905   4.961  14.288 -0.1565 -0.3188 -1.1183
12993TIP3   OH260469   0.545   2.505  11.424 -0.3245  0.1980 -0.1775
12993TIP3    H160470   0.519   2.429  11.476  1.0825  0.6830  1.3333
12993TIP3    H260471   0.467   2.560  11.421 -1.2833 -1.1531 -1.0850
12994TIP3   OH260472   6.326   2.263  11.729  0.4629 -0.1475 -0.5639
12994TIP3    H160473   6.328   2.341  11.673  1.3199 -1.0937 -1.9090
12994TIP3    H260474   6.308   2.297  11.816  1.6797  1.6522 -0.9646
12995TIP3   OH260475   0.817   6.238   3.146  0.1934 -0.0186 -0.2373
12995TIP3    H160476   0.836   6.275   3.232 -0.8652 -0.0378  0.0243
12995TIP3    H260477   0.809   6.314   3.088  0.9595 -0.0089 -0.3357
12996TIP3   OH260478   3.477   1.901   2.265 -0.3947  0.6215 -0.0064
12996TIP3    H160479   3.475   1.996   2.257 -2.9388  0.5985 -0.3816
12996TIP3    H260480   3.406   1.880   2.325 -0.8844 -1.1109 -1.1107
12997TIP3   OH260481   2.185   1.055  13.766 -0.5139 -0.0943 -0.6167
12997TIP3    H160482   2.247   1.127  13.754 -1.5720  0.4912 -3.0529
12997TIP3    H260483   2.150   1.038  13.679 -1.2608 -2.7369  0.0963
12998TIP3   OH260484   1.023   4.317  14.026  0.1746  0.1667 -0.5209
12998TIP3    H160485   1.103   4.310  13.974 -0.3455  0.8915 -1.4567
12998TIP3    H260486   0.959   4.356  13.967 -0.8286 -0.2292  0.2670
12999TIP3   OH260487   1.354   6.048  13.017 -0.3764 -0.6001  0.6819
12999TIP3    H160488   1.296   6.082  12.948  1.4973  2.2296  0.3344
12999TIP3    H260489   1.308   6.070  13.098  0.0445  1.5549  0.4108
13000TIP3   OH260490   4.479   4.244   0.585  0.6241  0.0850 -0.0542
13000TIP3    H160491   4.499   4.335   0.605 -2.5263  1.0082 -0.6835
13000TIP3    H260492   4.485   4.239   0.489 -0.2629 -0.0723 -0.1067
13001TIP3   OH260493   3.723   3.306   5.655 -0.4392 -0.2326  0.1134
13001TIP3    H160494   3.722   3.399   5.633  0.8854  0.0262  1.0177
13001TIP3    H260495   3.806   3.273   5.621 -0.1668 -0.7120  1.1945
13002TIP3   OH260496   2.495   2.822  14.205  0.5128 -0.1651 -0.1117
13002TIP3    H160497   2.589   2.826  14.187  0.7314 -1.1722  0.7029
13002TIP3    H260498   2.468   2.914  14.214  1.4860  0.1172 -0.0124
13003TIP3   OH260499   4.180   0.172   1.335 -0.7690 -0.2369 -0.5014
13003TIP3    H160500   4.177   0.125   1.418 -0.4613  0.3906 -0.1249
13003TIP3    H260501   4.213   0.107   1.273  2.7747  0.2389  0.6225
13004TIP3   OH260502   1.150   0.996  15.340  0.0168  0.1353 -0.1207
13004TIP3    H160503   1.123   0.917  15.291 -0.6355  0.9925 -1.1968
13004TIP3    H260504   1.087   1.001  15.412 -0.2981 -0.0255 -0.3743
13005TIP3   OH260505   0.364   6.517   3.994  0.7762 -0.0852  0.3252
13005TIP3    H160506   0.298   6.500   4.062 -0.2900 -1.1777 -0.9414
13005TIP3    H260507   0.413   6.593   4.028 -1.2135  0.8726  1.2495
13006TIP3   OH260508   0.635   4.103  14.559 -0.1305 -0.4368 -0.2030
13006TIP3    H160509   0.580   4.173  14.523 -1.0784  0.0505  2.0530
13006TIP3    H260510   0.630   4.115  14.654  1.7212 -2.0549  0.1512
13007TIP3   OH260511   3.011   4.532  16.021 -0.4391  0.4497 -0.2010
13007TIP3    H160512   3.041   4.612  15.980  0.4467 -0.0543 -0.5780
13007TIP3    H260513   3.084   4.506  16.078  0.2387 -1.2117 -1.7028
13008TIP3   OH260514   3.848   5.627   3.681 -0.1411  0.3773  0.0108
13008TIP3    H160515   3.787   5.553   3.680  0.2963 -0.0168  1.1248
13008TIP3    H260516   3.818   5.683   3.610 -0.4796 -0.8637 -0.8628
13009TIP3   OH260517   3.512   6.737   0.823  0.0457 -0.3171  0.3806
13009TIP3    H160518   3.506   6.796   0.898  1.3867 -0.2548  0.4651
13009TIP3    H260519   3.446   6.769   0.762 -1.3518 -0.5959  1.6687
13010TIP3   OH260520   6.478   1.695   4.689 -0.0587 -0.1382  0.6399
13010TIP3    H160521   6.487   1.665   4.599  1.4463 -1.0106  1.0593
13010TIP3    H260522   6.530   1.634   4.741 -3.0535 -1.3781  2.5026
13011TIP3   OH260523   4.186   1.352  13.573 -0.1948  0.1546 -0.1648
13011TIP3    H160524   4.165   1.349  13.667 -1.5719 -0.8055 -0.4608
13011TIP3    H260525   4.279   1.372  13.570 -0.0666 -0.0375  1.4221
13012TIP3   OH260526   0.912   5.274   5.438  0.0773 -0.0291  0.1657
13012TIP3    H160527   0.979   5.207   5.448  0.3473  0.4660  1.9944
13012TIP3    H260528   0.917   5.300   5.346  0.8997 -1.5185 -0.2398
13013TIP3   OH260529   2.616   4.562   4.815  0.4569 -0.8274  0.0359
13013TIP3    H160530   2.605   4.524   4.728  0.7138 -1.1511  0.1425
13013TIP3    H260531   2.711   4.573   4.824  0.4609 -1.1694  0.4322
13014TIP3   OH260532   2.804   5.667   1.620  0.1719 -0.2143 -0.1181
13014TIP3    H160533   2.874   5.611   1.655  0.4937  0.0378 -0.3550
13014TIP3    H260534   2.762   5.613   1.553  0.2030 -0.3323 -0.0437
13015TIP3   OH260535   5.677   6.818  16.562  0.2728 -0.4013 -0.3693
13015TIP3    H160536   5.646   6.905  16.587 -0.6058 -0.0763 -2.4257
13015TIP3    H260537   5.765   6.834  16.526  0.4476 -0.4941  0.0119
13016TIP3   OH260538   5.172   5.812   4.971  0.3047 -0.1120  0.5923
13016TIP3    H160539   5.156   5.847   5.058 -0.8514 -2.4803  1.4133
13016TIP3    H260540   5.267   5.802   4.966  1.0065  4.5042 -0.3989
13017TIP3   OH260541   4.483   6.210   3.692 -0.2592  0.5677  0.8191
13017TIP3    H160542   4.495   6.160   3.773 -1.0210  1.5623  1.5767
13017TIP3    H260543   4.570   6.241   3.669  0.4087 -1.8160 -0.1857
13018TIP3   OH260544   5.427   4.634   4.331  0.3083 -0.5119 -0.3666
13018TIP3    H160545   5.496   4.683   4.376 -0.0664  0.1124 -0.4559
13018TIP3    H260546   5.463   4.547   4.319  0.2694 -0.8392  1.5290
13019TIP3   OH260547   1.629   2.638   2.836  0.4092  0.1505  0.5072
13019TIP3    H160548   1.564   2.574   2.863  0.7476 -0.7992 -0.8287
13019TIP3    H260549   1.651   2.613   2.746  0.7012  2.0231  0.0196
13020TIP3   OH260550   4.898   2.321   2.344 -0.5118 -0.0054  0.0917
13020TIP3    H160551   4.874   2.234   2.376  0.0059 -0.2589 -0.1981
13020TIP3    H260552   4.903   2.375   2.422  2.1211 -0.9375  0.6637
13021TIP3   OH260553   3.214   2.230   2.900 -0.5599 -0.5918 -0.0786
13021TIP3    H160554   3.200   2.265   2.988  0.6936 -0.4348  0.0755
13021TIP3    H260555   3.189   2.138   2.906  0.1699 -0.7526  0.6302
13022TIP3   OH260556   6.389   6.646  16.270  0.6526 -0.4558 -0.0729
13022TIP3    H160557   6.468   6.682  16.231  0.1917 -0.2805 -0.8686
13022TIP3    H260558   6.417   6.611  16.354  0.9385  2.8071  1.3122
13023TIP3   OH260559   6.737   0.116   1.905 -0.1607  0.0879 -0.2772
13023TIP3    H160560   6.669   0.180   1.928  1.3999  1.4021  0.8829
13023TIP3    H260561   6.694   0.057   1.843 -2.3553  0.8603  0.4118
13024TIP3   OH260562   1.207   0.005  16.940  0.3776 -0.4507 -1.1382
13024TIP3    H160563   1.297  -0.010  16.969  0.1011 -1.1638 -0.6215
13024TIP3    H260564   1.202  -0.034  16.853  0.4719 -0.7327 -1.0168
13025TIP3   OH260565   0.987   5.491   2.211 -0.5493  0.3992 -0.1223
13025TIP3    H160566   1.078   5.463   2.222 -0.4704  0.5598 -0.3575
13025TIP3    H260567   0.965   5.534   2.293 -0.4006  0.3941 -0.0795
13026TIP3   OH260568   1.993   0.404  11.846  0.0265  0.0166  0.3024
13026TIP3    H160569   1.984   0.349  11.768 -2.3280 -0.4415  0.8052
13026TIP3    H260570   2.007   0.341  11.917  0.3789  0.3120  0.4968
13027TIP3   OH260571   3.856   5.968   0.371  0.7342  0.2909  0.1901
13027TIP3    H160572   3.763   5.963   0.394  0.3254 -0.7790 -1.5521
13027TIP3    H260573   3.885   6.051   0.409 -1.1728  1.1347 -0.0540
13028TIP3   OH260574   2.840   6.031  14.109 -0.1379 -0.2464  0.3700
13028TIP3    H160575   2.789   6.038  14.028 -1.5899 -2.9845  0.9254
13028TIP3    H260576   2.916   5.979  14.084  1.7590  2.5256 -0.0936
13029TIP3   OH260577   0.812   0.041   2.409  0.5057  0.0934 -0.8824
13029TIP3    H160578   0.746   0.102   2.374 -0.1309 -0.5826 -0.8767
13029TIP3    H260579   0.787   0.030   2.501 -0.0322 -1.0066 -1.1480
13030TIP3   OH260580   1.637   1.531  15.404  0.2518  0.4006  0.1900
13030TIP3    H160581   1.634   1.626  15.399  0.4709  0.3428 -1.2403
13030TIP3    H260582   1.546   1.504  15.397  0.2584  0.4739 -0.1837
13031TIP3   OH260583   4.160   1.908  15.040 -0.0040  0.0687  0.1499
13031TIP3    H160584   4.126   1.819  15.043  2.5158 -0.9689  0.9781
13031TIP3    H260585   4.151   1.940  15.130  0.6895 -0.0341  0.2631
13032TIP3   OH260586   1.158   0.619  11.064 -0.3088  0.4605 -0.2290
13032TIP3    H160587   1.243   0.609  11.107 -0.9584 -0.3008  0.9457
13032TIP3    H260588   1.118   0.695  11.108  0.4554  1.9819 -2.0292
13033TIP3   OH260589   4.901   1.729  17.219 -0.1037 -0.5664 -0.7035
13033TIP3    H160590   4.970   1.668  17.246  1.2024  1.8107  1.8411
13033TIP3    H260591   4.940   1.779  17.147  1.7248  1.8908  1.7693
13034TIP3   OH260592   6.701   0.088  14.865  0.2908 -0.4001 -0.1394
13034TIP3    H160593   6.704   0.100  14.770  0.4583 -0.8185 -0.1901
13034TIP3    H260594   6.689   0.176  14.900  1.0634 -0.1392 -0.5099
13035TIP3   OH260595   5.428   5.779  13.708  0.1045  0.1134  0.0893
13035TIP3    H160596   5.338   5.788  13.739 -0.4249  0.1835 -1.3675
13035TIP3    H260597   5.435   5.842  13.636  1.3428  0.1632  0.2330
13036TIP3   OH260598   5.856   1.100  12.774 -0.1114  0.3586  0.0485
13036TIP3    H160599   5.849   1.016  12.820  0.3024 -0.0132 -0.5475
13036TIP3    H260600   5.878   1.076  12.684  0.7371  1.1272  0.0333
13037TIP3   OH260601   6.043   2.565   0.930 -0.4084 -0.6242  0.4555
13037TIP3    H160602   6.100   2.640   0.947  0.8792 -0.5717 -3.2188
13037TIP3    H260603   5.955   2.596   0.951 -0.4214  3.2556 -3.7947
13038TIP3   OH260604   5.548   0.217  12.029  0.1552 -0.4448 -0.3697
13038TIP3    H160605   5.604   0.262  11.965  0.2755 -0.9510 -0.6281
13038TIP3    H260606   5.578   0.126  12.026 -1.0293 -0.8294 -0.8981
13039TIP3   OH260607   5.966   2.415   1.500 -0.1538  0.1697 -0.4773
13039TIP3    H160608   6.015   2.422   1.582  0.7959  0.5895 -1.0646
13039TIP3    H260609   5.964   2.321   1.480  1.4745  0.2113 -1.0439
13040TIP3   OH260610   1.714   5.292   3.915  0.4229  0.5033  0.4039
13040TIP3    H160611   1.715   5.387   3.904 -2.3033  0.5372 -0.3651
13040TIP3    H260612   1.665   5.259   3.840  0.6883 -1.4607  1.0158
13041TIP3   OH260613   4.661   0.589  15.337 -0.1388 -0.3346 -0.1384
13041TIP3    H160614   4.688   0.587  15.429  1.1695  1.6560 -0.4367
13041TIP3    H260615   4.583   0.644  15.337 -1.5032 -2.1678  0.0366
13042TIP3   OH260616   0.349   2.343   5.283 -0.3081  0.4473  0.3565
13042TIP3    H160617   0.319   2.425   5.244 -0.9217  0.4667  0.8650
13042TIP3    H260618   0.291   2.276   5.247  0.1279  0.2419  0.0196
13043TIP3   OH260619   4.479   6.739   3.205 -0.3164 -0.1765  0.0400
13043TIP3    H160620   4.417   6.733   3.277  0.1099  0.2721  0.4522
13043TIP3    H260621   4.445   6.810   3.150 -0.4202 -0.2440  0.0170
13044TIP3   OH260622   3.882   6.014   5.808  0.3019 -0.1622  0.3634
13044TIP3    H160623   3.889   6.077   5.881  0.6563 -0.1033  0.2769
13044TIP3    H260624   3.956   5.955   5.820  1.1367  0.6270 -0.6922
13045TIP3   OH260625   0.246   1.758  14.964  0.2590 -0.3605  0.3084
13045TIP3    H160626   0.291   1.782  14.883 -0.1676 -0.6661 -0.0275
13045TIP3    H260627   0.240   1.839  15.014 -2.3199  0.6132 -1.3602
13046TIP3   OH260628   2.970   0.690  15.977 -0.2557  0.0780  0.0466
13046TIP3    H160629   2.878   0.718  15.983 -0.8222 -1.7947  0.8869
13046TIP3    H260630   3.011   0.729  16.054 -0.1615  1.4088 -0.6385
13047TIP3   OH260631   4.497   2.566  15.901  0.3788  0.2740  0.2732
13047TIP3    H160632   4.441   2.615  15.841  0.8861  0.2354 -0.2356
13047TIP3    H260633   4.438   2.502  15.941  0.1530 -0.0971 -0.6229
13048TIP3   OH260634   1.144   5.228   5.027  0.2041  0.4523  0.2451
13048TIP3    H160635   1.233   5.229   4.992  1.4587  1.4728  3.1905
13048TIP3    H260636   1.135   5.144   5.071 -0.9890 -0.3892 -1.4851
13049TIP3   OH260637   5.412   1.501  16.225 -0.1166 -0.0998  0.1735
13049TIP3    H160638   5.426   1.564  16.154 -0.0669  0.7796  0.9467
13049TIP3    H260639   5.341   1.445  16.194 -1.0239  1.1235 -0.0246
13050TIP3   OH260640   6.494   5.712   0.139  0.1211 -0.1078  0.4849
13050TIP3    H160641   6.507   5.767   0.216 -2.5955 -0.5939  1.3863
13050TIP3    H260642   6.488   5.775   0.066  0.0555  0.5645  1.0586
13051TIP3   OH260643   0.929   3.625   3.152 -0.4884  0.3277 -0.3000
13051TIP3    H160644   0.880   3.545   3.133 -2.3714  1.9183 -2.7251
13051TIP3    H260645   0.868   3.696   3.132  1.4359  2.4050  0.7826
13052TIP3   OH260646   6.304   3.104   1.598 -0.0235 -0.0563 -0.5141
13052TIP3    H160647   6.398   3.087   1.604  0.1488  0.4978 -1.4304
13052TIP3    H260648   6.263   3.017   1.600  0.5573 -0.3378 -0.8666
13053TIP3   OH260649   6.616   6.532   3.519  0.2033  0.1718 -0.7750
13053TIP3    H160650   6.602   6.525   3.425  0.6423  1.6034 -0.9646
13053TIP3    H260651   6.709   6.551   3.529  0.2489 -0.3765 -0.0158
13054TIP3   OH260652   5.651   4.381   3.243 -0.6816  0.2575  0.6304
13054TIP3    H160653   5.722   4.320   3.264 -1.2007 -0.4649  0.3316
13054TIP3    H260654   5.633   4.366   3.151 -0.1528  1.5852  0.2878
13055TIP3   OH260655   3.788   0.177   0.601 -0.0073 -0.3296 -0.0673
13055TIP3    H160656   3.722   0.110   0.580 -0.3235 -0.2100  0.5122
13055TIP3    H260657   3.744   0.234   0.665  0.2257  0.4891 -0.6234
13056TIP3   OH260658   2.660   0.129   5.396  0.1727  0.0674  0.3393
13056TIP3    H160659   2.699   0.071   5.462  0.6278  0.8453  0.7705
13056TIP3    H260660   2.629   0.070   5.327  3.9545 -0.5306 -1.0775
13057TIP3   OH260661   1.408   3.287  12.178  0.0298  0.7082  0.1267
13057TIP3    H160662   1.478   3.288  12.243  0.9759  1.1525 -0.8742
13057TIP3    H260663   1.327   3.299  12.229  0.5779 -0.6814  1.3944
13058TIP3   OH260664   0.738   4.035   3.401 -0.0865  0.1583  0.4247
13058TIP3    H160665   0.718   3.977   3.475  0.7825 -0.0768  0.4853
13058TIP3    H260666   0.731   4.123   3.438 -0.3013  0.0589  0.6237
13059TIP3   OH260667   4.754   1.838  12.197 -0.0886  0.2822 -0.7970
13059TIP3    H160668   4.719   1.925  12.180  0.2933  0.4871 -0.5552
13059TIP3    H260669   4.832   1.833  12.140  0.5462  0.5423  0.0244
13060TIP3   OH260670   3.097   5.312  11.783 -0.5423 -0.1025  0.6899
13060TIP3    H160671   3.078   5.397  11.823  0.9068  0.5257  0.1082
13060TIP3    H260672   3.186   5.321  11.749 -0.0874 -2.1166  1.2621
13061TIP3   OH260673   6.576   1.304   5.460  0.4775 -0.1873 -0.0151
13061TIP3    H160674   6.626   1.235   5.504 -1.7408 -1.4624  0.6612
13061TIP3    H260675   6.486   1.272   5.458 -0.0740  1.1582 -2.8576
13062TIP3   OH260676   0.691   5.632   6.165  0.3758 -0.4462  0.8227
13062TIP3    H160677   0.646   5.599   6.243 -0.1368  1.7816  1.5194
13062TIP3    H260678   0.783   5.605   6.177  0.3013 -0.1468  2.1910
13063TIP3   OH260679   6.175   5.887   3.244 -0.3399 -0.2852  0.6774
13063TIP3    H160680   6.098   5.896   3.187  0.8042 -0.9749 -1.0620
13063TIP3    H260681   6.140   5.895   3.332 -2.7166 -2.3352  0.0381
13064TIP3   OH260682   6.452   6.331   2.264 -0.3704 -0.2110  0.0370
13064TIP3    H160683   6.402   6.318   2.183 -3.9189  2.9476  1.4558
13064TIP3    H260684   6.441   6.249   2.312  0.7239 -1.6548 -2.0256
13065TIP3   OH260685   0.140   0.095  11.694  0.0696 -0.7298  0.3819
13065TIP3    H160686   0.101   0.014  11.727  0.3509 -0.5780  1.1036
13065TIP3    H260687   0.190   0.068  11.617 -2.2013 -0.7935 -1.1746
13066TIP3   OH260688   0.831   5.388   2.632  0.7647 -0.3023 -0.0358
13066TIP3    H160689   0.759   5.390   2.570 -0.2778 -1.1223  1.0962
13066TIP3    H260690   0.810   5.455   2.697 -0.7157 -2.6114  2.0558
13067TIP3   OH260691   5.507   5.819   0.352 -0.0619 -0.0167  0.1965
13067TIP3    H160692   5.466   5.751   0.406  0.7123  1.6854  3.0893
13067TIP3    H260693   5.601   5.798   0.355 -0.0932 -0.6929 -1.7780
13068TIP3   OH260694   0.269   5.654   3.191  0.2701 -0.1872  0.1295
13068TIP3    H160695   0.202   5.588   3.173  0.1015 -0.0063  0.0926
13068TIP3    H260696   0.272   5.660   3.287 -0.0423  0.0844  0.1241
13069TIP3   OH260697   0.622   2.881   1.007  0.1218  0.3905  0.2654
13069TIP3    H160698   0.624   2.976   0.996 -0.0398  0.4015  0.3220
13069TIP3    H260699   0.649   2.846   0.922 -0.7940  0.4751 -0.0795
13070TIP3   OH260700   5.237   2.061   6.399  0.2573 -0.0788 -0.1828
13070TIP3    H160701   5.292   1.983   6.383 -2.1056 -1.6482 -1.1914
13070TIP3    H260702   5.258   2.120   6.327 -1.8181 -2.1732 -2.6999
13071TIP3   OH260703   1.158   4.872   2.499  0.2814  0.0483 -0.3956
13071TIP3    H160704   1.094   4.916   2.555  1.5237 -0.6023  1.6738
13071TIP3    H260705   1.224   4.939   2.480  1.0354 -0.2885  0.9043
13072TIP3   OH260706   2.006   2.706  15.425  0.3496  0.2405 -0.2414
13072TIP3    H160707   2.022   2.668  15.512 -0.3170  0.9009  0.1842
13072TIP3    H260708   2.056   2.787  15.425  0.5749  0.1049 -0.5900
13073TIP3   OH260709   4.256   1.874   1.820 -0.1173  0.0536 -0.0539
13073TIP3    H160710   4.333   1.818   1.808 -0.3304 -0.3079  0.2381
13073TIP3    H260711   4.271   1.949   1.762  0.2620 -0.2111 -0.2998
13074TIP3   OH260712   3.960   2.966  11.981 -0.3040 -0.6421 -0.2950
13074TIP3    H160713   4.005   2.883  11.994  2.1669  0.6214 -0.1566
13074TIP3    H260714   3.980   2.991  11.890  2.6965  1.7056  0.8206
13075TIP3   OH260715   1.193   3.951   5.560  0.0179 -0.1429  0.6900
13075TIP3    H160716   1.151   3.927   5.477 -0.8352 -3.2845  1.8689
13075TIP3    H260717   1.269   4.004   5.534 -0.1358 -1.0969 -2.1015
13076TIP3   OH260718   2.470   5.899   1.745  0.3787 -0.1695 -0.1849
13076TIP3    H160719   2.387   5.936   1.775  1.0140  2.7166 -1.5978
13076TIP3    H260720   2.455   5.804   1.743 -2.8203  0.2278 -0.2549
13077TIP3   OH260721   4.417   2.729   1.434 -0.1231  0.3127  0.0669
13077TIP3    H160722   4.374   2.811   1.412  0.3148  0.5553  0.1103
13077TIP3    H260723   4.412   2.677   1.354  0.3610  0.7140 -0.2260
13078TIP3   OH260724   6.391   5.781  15.855  0.3446 -0.4437  0.2774
13078TIP3    H160725   6.398   5.863  15.904  1.3830 -0.1173 -0.4050
13078TIP3    H260726   6.314   5.793  15.799  0.4951  0.0757  0.1767
13079TIP3   OH260727   1.850   0.027  17.004 -0.1241  0.1504  0.3879
13079TIP3    H160728   1.835  -0.067  16.992 -1.0420  0.5852 -3.4049
13079TIP3    H260729   1.925   0.046  16.947 -0.8768  1.8912 -0.0814
13080TIP3   OH260730   4.973   0.958   0.027  0.2025  0.6354 -0.1868
13080TIP3    H160731   5.036   0.917  -0.032 -0.3501  1.9330 -1.7549
13080TIP3    H260732   4.888   0.939  -0.013 -0.2816  0.5155  0.8674
13081TIP3   OH260733   2.969   3.438  16.180 -0.3108  0.1024  0.2778
13081TIP3    H160734   3.033   3.500  16.215  0.5721 -0.2312 -0.6850
13081TIP3    H260735   3.006   3.411  16.095 -0.3327 -2.2375  0.9398
13082TIP3   OH260736   6.589   4.365   2.919  0.4184  0.5981  0.0214
13082TIP3    H160737   6.660   4.406   2.870  0.6735 -0.3325 -0.3999
13082TIP3    H260738   6.510   4.389   2.871  0.5705  0.5468 -0.2571
13083TIP3   OH260739   4.374   5.305   4.377 -0.6681  0.3610  0.2008
13083TIP3    H160740   4.355   5.274   4.288  0.6142 -0.1840  0.0996
13083TIP3    H260741   4.291   5.295   4.424 -0.8850 -1.1231 -0.4307
13084TIP3   OH260742   0.350   6.435   1.665  0.5549  0.1477 -0.6576
13084TIP3    H160743   0.387   6.505   1.720 -0.9151 -1.1101  2.1119
13084TIP3    H260744   0.398   6.357   1.691 -2.3221 -1.0994  1.4332
13085TIP3   OH260745   6.352   1.458  10.906 -0.5777  0.0680  0.1672
13085TIP3    H160746   6.388   1.546  10.897 -0.9824  0.4029  1.6507
13085TIP3    H260747   6.429   1.403  10.922 -0.4963  0.4640  1.2204
13086TIP3   OH260748   4.791   0.048  16.673  0.1689  0.1303 -0.3412
13086TIP3    H160749   4.834  -0.036  16.656 -2.9398 -1.2002 -2.6104
13086TIP3    H260750   4.718   0.026  16.731 -0.6762  1.2672 -0.9492
13087TIP3   OH260751   4.387   1.476  14.318 -0.1202 -0.1603 -0.7533
13087TIP3    H160752   4.331   1.552  14.337  0.3676  0.4484 -1.6788
13087TIP3    H260753   4.451   1.475  14.389 -0.5540 -0.1275 -0.3552
13088TIP3   OH260754   0.913   5.609  13.307 -0.3505 -0.1839  0.2985
13088TIP3    H160755   0.842   5.672  13.300 -1.6557 -1.5504  0.6574
13088TIP3    H260756   0.992   5.658  13.284 -1.2672  1.6312  0.8579
13089TIP3   OH260757   0.830   6.224  14.763  0.2864  0.2158  0.5660
13089TIP3    H160758   0.791   6.305  14.732 -1.7657 -0.3899  1.3930
13089TIP3    H260759   0.836   6.169  14.685 -0.1027  0.4792  0.3477
13090TIP3   OH260760   2.797   4.444   5.712  0.3295  0.0792  0.2825
13090TIP3    H160761   2.757   4.369   5.669  2.1204 -1.3630  0.9860
13090TIP3    H260762   2.727   4.480   5.767 -0.4074 -1.4511  0.4048
13091TIP3   OH260763   1.635   2.947  15.761 -0.0853 -0.4346 -0.4312
13091TIP3    H160764   1.610   2.991  15.680  2.4049  0.5674 -0.7574
13091TIP3    H260765   1.601   3.003  15.831  0.6386  0.5389 -0.8373
13092TIP3   OH260766   0.806   1.824   3.322 -0.2892 -0.8941 -0.6734
13092TIP3    H160767   0.853   1.740   3.324  0.8483 -0.2612  0.7637
13092TIP3    H260768   0.811   1.856   3.411 -0.0953  1.0607 -1.3515
13093TIP3   OH260769   4.951   4.653   0.647 -0.2104  0.3562  0.4415
13093TIP3    H160770   4.932   4.747   0.655 -1.1943  0.3239 -1.1081
13093TIP3    H260771   5.032   4.641   0.697 -0.5002  1.8636  1.3534
13094TIP3   OH260772   0.962   3.462   1.725 -0.1006 -0.2719  0.5362
13094TIP3    H160773   1.023   3.415   1.782  1.0693  2.1947  1.4820
13094TIP3    H260774   1.006   3.463   1.640  0.3877 -0.0065  0.7818
13095TIP3   OH260775   5.132   6.359  11.296 -0.4239 -0.1137 -0.2092
13095TIP3    H160776   5.185   6.329  11.222  1.0060  0.9870  0.3350
13095TIP3    H260777   5.050   6.310  11.287  0.3146 -1.1850 -1.5976
13096TIP3   OH260778   1.674   5.277  15.505  0.2213 -0.2433  0.0600
13096TIP3    H160779   1.747   5.333  15.479 -0.6914 -0.1240 -2.4918
13096TIP3    H260780   1.660   5.219  15.430 -1.7030 -0.8902  0.8571
13097TIP3   OH260781   6.361   4.112  14.988 -0.0448 -0.0227 -0.1988
13097TIP3    H160782   6.313   4.029  14.990  1.0163 -0.6743 -0.9832
13097TIP3    H260783   6.450   4.089  15.013  0.7198  0.5282 -2.2158
13098TIP3   OH260784   5.214   2.304   2.093 -0.5925  0.0772  0.7455
13098TIP3    H160785   5.254   2.346   2.017 -0.9813 -0.0603  0.4569
13098TIP3    H260786   5.232   2.211   2.081  0.4655  0.1718  1.5016
13099TIP3   OH260787   5.056   3.302   5.497  0.6344 -0.1132 -0.1349
13099TIP3    H160788   4.973   3.264   5.527 -0.0144  1.0456 -0.3692
13099TIP3    H260789   5.089   3.240   5.432  0.1973 -0.8248  0.3017
13100TIP3   OH260790   3.350   2.017  15.090  0.0288  0.4066 -0.5657
13100TIP3    H160791   3.258   2.041  15.074  0.1443  0.6183 -0.9336
13100TIP3    H260792   3.372   2.061  15.172 -0.9094 -1.5926  0.8332
13101TIP3   OH260793   6.367   5.141   4.832 -0.4019 -0.3402 -0.6460
13101TIP3    H160794   6.321   5.063   4.863 -1.8431  0.4273 -0.7661
13101TIP3    H260795   6.298   5.206   4.819  0.4797  0.2648 -2.7491
13102TIP3   OH260796   1.570   3.236   3.599 -0.4925  0.1645  0.4345
13102TIP3    H160797   1.580   3.197   3.686  0.6256 -0.2763  0.1239
13102TIP3    H260798   1.476   3.243   3.586 -0.7392 -2.0344  0.6940
13103TIP3   OH260799   5.993   4.173  14.349  0.4630  0.2100 -0.4943
13103TIP3    H160800   5.905   4.209  14.340 -0.9258 -2.5988  0.8481
13103TIP3    H260801   6.043   4.216  14.279 -2.0039  1.6300 -1.5309
13104TIP3   OH260802   5.530   0.596  11.387  0.5354 -0.5491 -0.0231
13104TIP3    H160803   5.489   0.515  11.418 -0.0706  0.0772  0.8796
13104TIP3    H260804   5.476   0.624  11.313  0.8200 -1.0305 -0.4141
13105TIP3   OH260805   6.278   3.418  12.983  0.3092  0.2342  0.0308
13105TIP3    H160806   6.267   3.436  12.890 -0.1203  0.9827  0.2098
13105TIP3    H260807   6.189   3.416  13.017  0.4612 -0.1167  0.4109
13106TIP3   OH260808   3.121   3.308   0.233  0.2375 -0.1106 -0.5032
13106TIP3    H160809   3.136   3.231   0.287  1.8038 -0.2401 -1.0857
13106TIP3    H260810   3.025   3.318   0.232  0.0235 -1.8827 -0.2139
13107TIP3   OH260811   2.028   5.963   0.263 -0.1157 -0.2549 -0.7180
13107TIP3    H160812   1.943   5.918   0.264  1.1776 -2.9619  1.5131
13107TIP3    H260813   2.058   5.955   0.173 -0.7069 -2.5096 -0.7741
13108TIP3   OH260814   2.514   2.589   2.773  0.2978 -0.0057 -0.3004
13108TIP3    H160815   2.485   2.669   2.817  1.9154 -0.6035  2.0561
13108TIP3    H260816   2.595   2.614   2.729  0.1479 -0.0549 -0.6039
13109TIP3   OH260817   3.900   2.431  15.495 -0.1318  0.1425 -0.1504
13109TIP3    H160818   3.936   2.514  15.526 -0.8156 -0.0441  1.2460
13109TIP3    H260819   3.976   2.381  15.465  0.4315  0.8043  0.1438
13110TIP3   OH260820   4.980   6.462   0.071 -0.0900 -0.1122  0.0883
13110TIP3    H160821   5.002   6.416   0.152  0.1127 -1.4857 -0.7079
13110TIP3    H260822   4.957   6.392   0.010 -2.7472  1.0171 -0.3223
13111TIP3   OH260823   5.611   5.688  15.889 -0.0647 -0.3543  0.0380
13111TIP3    H160824   5.647   5.755  15.831  1.4312 -1.7083 -0.6815
13111TIP3    H260825   5.574   5.622  15.829  0.5320 -1.2530  0.6410
13112TIP3   OH260826   4.857   5.709  12.413  0.2265  0.1598 -0.4233
13112TIP3    H160827   4.899   5.626  12.390 -0.4446 -0.5932  0.9402
13112TIP3    H260828   4.876   5.721  12.506 -2.0555  0.0675  0.1061
13113TIP3   OH260829   2.238   1.929   6.543 -0.2484 -0.1236 -0.0216
13113TIP3    H160830   2.157   1.927   6.595  0.0748  1.3525  0.5965
13113TIP3    H260831   2.288   2.001   6.580  1.6828 -1.4287  0.0516
13114TIP3   OH260832   3.888   5.366   2.787  0.1634 -0.1558 -0.2485
13114TIP3    H160833   3.827   5.439   2.800 -0.1641 -0.4372 -0.1804
13114TIP3    H260834   3.955   5.401   2.729  0.0018  0.1962 -0.2278
13115TIP3   OH260835   6.065   2.278  11.048 -0.1911  0.2123  0.2738
13115TIP3    H160836   6.083   2.190  11.017 -0.5651  0.1935  0.0965
13115TIP3    H260837   6.015   2.318  10.977  1.9879  1.3643 -0.7142
13116TIP3   OH260838   5.750   0.556  12.185 -0.4101 -0.0529  0.3969
13116TIP3    H160839   5.681   0.593  12.129 -0.3091  1.4475  1.2049
13116TIP3    H260840   5.704   0.497  12.244 -1.0424  0.9695  0.9578
13117TIP3   OH260841   1.300   5.061  16.185  0.7582 -0.4971  0.3720
13117TIP3    H160842   1.252   5.142  16.198  0.2532 -0.9799  1.6375
13117TIP3    H260843   1.384   5.074  16.230  1.0396 -0.3771 -0.1680
13118TIP3   OH260844   4.083   5.731   4.406 -0.4136 -0.1167 -0.6006
13118TIP3    H160845   4.044   5.721   4.492 -0.0621  0.9281 -0.3098
13118TIP3    H260846   4.162   5.676   4.410 -0.8917 -0.8221 -0.5945
13119TIP3   OH260847   4.500   1.449  15.466 -0.0263 -0.2105  0.4726
13119TIP3    H160848   4.463   1.368  15.432 -0.2506 -0.0805  0.4074
13119TIP3    H260849   4.589   1.425  15.493 -0.0844 -0.4721  0.4338
13120TIP3   OH260850   6.256   0.999   0.907 -0.0784 -0.1663 -0.1292
13120TIP3    H160851   6.346   1.026   0.889  0.2982 -0.7147  0.8832
13120TIP3    H260852   6.249   0.911   0.871 -0.4278  0.1250 -0.8048
13121TIP3   OH260853   3.996   0.002   2.329  0.6700  0.1179  0.0560
13121TIP3    H160854   3.929   0.018   2.262 -1.1028 -0.4696  1.5845
13121TIP3    H260855   4.006  -0.093   2.331  2.3277  0.2424 -0.8235
13122TIP3   OH260856   4.949   4.969   4.152  0.3727 -0.1771  0.0538
13122TIP3    H160857   4.966   4.894   4.209 -4.0005 -1.6182 -0.1628
13122TIP3    H260858   4.947   5.044   4.211  0.6431 -0.8906  0.9941
13123TIP3   OH260859   3.691   2.692   6.818 -0.0907  0.5472  0.3439
13123TIP3    H160860   3.782   2.665   6.808  0.3216  1.9019  0.2340
13123TIP3    H260861   3.688   2.782   6.785 -1.6339  0.2808 -0.3813
13124TIP3   OH260862   3.001   1.528   5.741 -0.0381  0.1005 -0.3542
13124TIP3    H160863   3.064   1.560   5.676  0.0957 -2.3812 -1.5380
13124TIP3    H260864   2.922   1.580   5.725  0.4049  0.4250 -1.6256
13125TIP3   OH260865   3.220   2.538   5.453  0.2238  0.1252 -0.0551
13125TIP3    H160866   3.255   2.473   5.515 -0.9281  0.1453  0.6431
13125TIP3    H260867   3.163   2.488   5.395  0.0776  0.3691 -0.1195
13126TIP3   OH260868   5.731   2.756  10.856 -0.1432 -0.4402 -0.5367
13126TIP3    H160869   5.805   2.793  10.903 -1.4385 -0.4744  1.7042
13126TIP3    H260870   5.769   2.699  10.790  1.8102  1.1130 -0.8324
13127TIP3   OH260871   2.548   6.441   4.507 -0.2903  0.2768 -0.2382
13127TIP3    H160872   2.494   6.370   4.473  0.9935  0.9892 -4.4099
13127TIP3    H260873   2.637   6.416   4.486  0.1495  3.4714 -3.1297
13128TIP3   OH260874   2.468   4.777  14.412  0.2293  0.1750 -0.1919
13128TIP3    H160875   2.541   4.739  14.363 -0.6100  0.6721 -1.9058
13128TIP3    H260876   2.510   4.828  14.482  1.5889  1.1729 -1.6634
13129TIP3   OH260877   6.693   0.002   3.116 -0.6989 -0.6270 -0.1324
13129TIP3    H160878   6.764  -0.045   3.073  0.4119  2.1310 -1.5477
13129TIP3    H260879   6.631   0.021   3.045  0.0133  1.9432 -0.1610
13130TIP3   OH260880   6.641   2.293  16.334  0.6355  0.1124  0.0248
13130TIP3    H160881   6.643   2.213  16.385  2.1050 -0.3895 -0.7598
13130TIP3    H260882   6.727   2.298  16.292  0.0967  1.3803 -1.0455
13131TIP3   OH260883   2.288   4.649   2.172 -0.4363  0.3058 -0.0093
13131TIP3    H160884   2.371   4.680   2.138 -1.6036  2.8438 -0.8122
13131TIP3    H260885   2.268   4.708   2.245 -0.6111 -1.5834  1.5766
13132TIP3   OH260886   2.911   1.433  13.221 -0.1034  0.1451  0.0488
13132TIP3    H160887   2.954   1.441  13.307 -0.4900 -0.1820  0.2780
13132TIP3    H260888   2.851   1.508  13.218  0.7526  0.8294 -0.4396
13133TIP3   OH260889   3.215   1.014   0.273  0.3043  0.8392  0.0826
13133TIP3    H160890   3.240   1.083   0.334 -0.3197  2.1369 -1.0806
13133TIP3    H260891   3.121   1.004   0.285 -0.0268  1.9211 -1.4467
13134TIP3   OH260892   0.524   6.822   0.418 -0.2007 -0.5234 -0.3227
13134TIP3    H160893   0.519   6.728   0.406  2.6996 -0.7912 -0.0337
13134TIP3    H260894   0.524   6.858   0.329  1.7229 -1.0650 -0.5801
13135TIP3   OH260895   0.666   3.157   2.641 -0.0209 -0.6770  0.0867
13135TIP3    H160896   0.573   3.172   2.626 -0.6510 -3.1332  1.0571
13135TIP3    H260897   0.679   3.180   2.733  0.2558 -0.6996  0.0543
13136TIP3   OH260898   3.173   5.662   5.313 -0.2177  0.1389  0.4402
13136TIP3    H160899   3.147   5.684   5.223  2.2030  1.2306 -0.0785
13136TIP3    H260900   3.223   5.582   5.304  0.2634  0.4015  0.7708
13137TIP3   OH260901   5.988   0.233   0.560  0.1307 -0.0988  0.5478
13137TIP3    H160902   5.950   0.264   0.477 -1.1034 -3.4468 -0.3165
13137TIP3    H260903   6.080   0.216   0.540 -0.0332 -0.3717  0.0227
13138TIP3   OH260904   2.827   3.509   1.690  0.2560  0.3489  0.1280
13138TIP3    H160905   2.883   3.493   1.614 -1.0411 -0.3449 -0.7368
13138TIP3    H260906   2.809   3.422   1.726 -0.3241  0.5396  0.3171
13139TIP3   OH260907   6.781   2.207  11.693 -0.0737 -0.5992 -0.2551
13139TIP3    H160908   6.759   2.266  11.765  1.7478 -1.3647  1.0173
13139TIP3    H260909   6.712   2.141  11.694 -1.4967  0.8196 -0.9584
13140TIP3   OH260910   4.922   0.151  12.505  0.7408  0.0924  0.0585
13140TIP3    H160911   4.834   0.123  12.481 -0.1858  3.0386 -0.3708
13140TIP3    H260912   4.914   0.185  12.594  1.3284  0.7564 -0.1272
13141TIP3   OH260913   4.320   2.203   2.316 -0.0862  0.1415  0.0049
13141TIP3    H160914   4.292   2.185   2.406  0.7115  0.0068  0.2407
13141TIP3    H260915   4.247   2.250   2.277 -1.3981 -1.7530  0.0177
13142TIP3   OH260916   1.284   0.192  14.987 -0.4116  0.0416 -0.3735
13142TIP3    H160917   1.364   0.216  15.034 -0.9727  0.5857  0.3241
13142TIP3    H260918   1.315   0.147  14.908  0.5546 -1.1280  0.6195
13143TIP3   OH260919   5.425   6.430   1.260  0.2696  0.3002 -1.1812
13143TIP3    H160920   5.517   6.419   1.284  0.6836  1.9914 -1.8910
13143TIP3    H260921   5.384   6.464   1.339  0.6028  1.1312 -1.3629
13144TIP3   OH260922   4.256   4.663   2.870 -0.2197 -0.6326  0.1103
13144TIP3    H160923   4.205   4.676   2.789  0.2917 -0.0703 -0.1218
13144TIP3    H260924   4.245   4.744   2.919  2.7610  0.7178 -1.2270
13145TIP3   OH260925   5.633   3.262   3.240 -0.5803  0.1960 -0.0531
13145TIP3    H160926   5.687   3.194   3.279  0.1934  1.0750  0.4703
13145TIP3    H260927   5.620   3.235   3.150  1.2376  0.2424 -0.3641
13146TIP3   OH260928   6.493   1.613  14.023 -0.4127 -0.1047  0.1801
13146TIP3    H160929   6.523   1.699  13.993 -0.6423 -0.3475 -0.7784
13146TIP3    H260930   6.559   1.585  14.086  0.1761  0.3640 -0.2145
13147TIP3   OH260931   5.879   4.117  15.652 -0.1382 -0.0882 -0.0862
13147TIP3    H160932   5.799   4.166  15.632 -0.7285 -1.1868 -0.4836
13147TIP3    H260933   5.924   4.111  15.568 -0.0147 -0.1186 -0.0172
13148TIP3   OH260934   2.517   5.881  17.078 -0.0392  0.1338 -0.1542
13148TIP3    H160935   2.564   5.812  17.126  1.2036  1.4699  0.6166
13148TIP3    H260936   2.566   5.961  17.097 -0.1385  0.9154 -2.8022
13149TIP3   OH260937   2.157   1.628  13.100  0.1068 -0.8163 -0.3220
13149TIP3    H160938   2.162   1.586  13.014  1.2909  1.1178 -1.2526
13149TIP3    H260939   2.238   1.603  13.144  0.0610 -0.8174 -0.2375
13150TIP3   OH260940   3.622   1.904  13.560  0.1099 -0.3812 -0.1395
13150TIP3    H160941   3.622   1.960  13.482  1.9995  0.4439  0.3896
13150TIP3    H260942   3.624   1.815  13.526  0.9813 -0.0321 -1.0559
13151TIP3   OH260943   1.093   3.837  13.276  0.4852  0.1164  0.1872
13151TIP3    H160944   1.083   3.924  13.315 -1.9407 -0.6124  1.3436
13151TIP3    H260945   1.077   3.850  13.182 -0.1117  0.8737  0.3930
13152TIP3   OH260946   1.575   2.910   4.969  0.3870 -0.2349  0.3248
13152TIP3    H160947   1.542   2.978   4.911 -0.7641 -0.5445  0.5833
13152TIP3    H260948   1.604   2.956   5.048 -0.1210 -0.0073  0.3822
13153TIP3   OH260949   1.138   2.747  10.535 -0.6546  0.2398 -0.2521
13153TIP3    H160950   1.158   2.833  10.498 -0.5779 -0.0664 -0.9393
13153TIP3    H260951   1.122   2.691  10.459  0.4689 -0.6425  0.1250
13154TIP3   OH260952   6.459   0.789   2.594 -0.5356 -0.1973 -0.5230
13154TIP3    H160953   6.507   0.733   2.533  1.4356  1.6425 -0.8071
13154TIP3    H260954   6.515   0.867   2.603 -1.7466  0.4853  2.0402
13155TIP3   OH260955   3.892   0.731   3.396 -0.5179  0.5929 -0.7308
13155TIP3    H160956   3.832   0.659   3.377  1.8431 -1.8176  0.1426
13155TIP3    H260957   3.945   0.739   3.316  0.6078 -0.1947 -0.0979
13156TIP3   OH260958   2.258   0.118  11.308  0.0998 -0.1303 -0.2479
13156TIP3    H160959   2.213   0.080  11.383  0.3979  0.7514  0.3854
13156TIP3    H260960   2.190   0.127  11.241 -0.2475 -0.5596  0.0429
13157TIP3   OH260961   6.631   1.032   2.646 -0.2625  0.4867  0.1047
13157TIP3    H160962   6.691   1.106   2.638 -2.8797  2.7119 -0.4998
13157TIP3    H260963   6.683   0.963   2.687  1.9637  3.1048  2.0795
13158TIP3   OH260964   3.030   3.740   0.076 -0.2789 -0.0774  0.1529
13158TIP3    H160965   2.949   3.779   0.044 -0.0938 -0.9418 -1.4439
13158TIP3    H260966   3.006   3.697   0.158 -1.4638 -0.4488 -0.3784
13159TIP3   OH260967   4.529   2.005   3.126 -0.2288  0.3552  0.1240
13159TIP3    H160968   4.577   2.051   3.195  0.5025  0.2241 -0.2917
13159TIP3    H260969   4.535   2.062   3.050 -0.8288  0.3865  0.0923
13160TIP3   OH260970   1.210   1.999  16.114  0.6494 -0.1333  0.5017
13160TIP3    H160971   1.215   2.008  16.019 -0.8078 -1.1054  0.2926
13160TIP3    H260972   1.149   2.069  16.140 -0.3578 -0.9744  0.4744
13161TIP3   OH260973   1.319   3.710   2.304  0.5375 -0.3579 -0.0281
13161TIP3    H160974   1.332   3.775   2.236  2.3835  0.3207  0.9203
13161TIP3    H260975   1.239   3.739   2.349  1.4679  1.4404  0.5472
13162TIP3   OH260976   4.607   3.897   5.659 -0.1447  0.1356  0.6136
13162TIP3    H160977   4.692   3.938   5.643 -0.8648  1.0558 -1.1859
13162TIP3    H260978   4.611   3.866   5.750  1.4451  1.7669  1.1473
13163TIP3   OH260979   3.802   3.765   4.759  0.3702  0.0614  0.2242
13163TIP3    H160980   3.713   3.795   4.738 -1.4559 -3.5861  1.8859
13163TIP3    H260981   3.815   3.793   4.849  0.6315  0.0009  0.2048
13164TIP3   OH260982   3.690   3.603   3.675 -0.2319  0.2704 -0.0218
13164TIP3    H160983   3.647   3.686   3.697  1.3649  1.2649 -0.4684
13164TIP3    H260984   3.704   3.561   3.760  2.1478  2.1519  0.6179
13165TIP3   OH260985   6.459   2.218  15.033  0.2079 -1.0241 -0.3367
13165TIP3    H160986   6.403   2.146  15.004  0.5144 -1.8367  0.9850
13165TIP3    H260987   6.400   2.294  15.035 -0.5337 -1.5831 -0.2373
13166TIP3   OH260988   4.724   0.645  11.505 -0.0447 -0.1112 -0.1632
13166TIP3    H160989   4.773   0.591  11.567  0.9998  1.9465  0.9289
13166TIP3    H260990   4.711   0.728  11.551 -3.2964 -0.0230 -1.0009
13167TIP3   OH260991   2.309   0.894   5.416 -0.2964 -0.3700 -0.0445
13167TIP3    H160992   2.387   0.941   5.386 -0.8465  0.0350 -0.8750
13167TIP3    H260993   2.341   0.838   5.487  0.6523  0.1583 -0.0349
13168TIP3   OH260994   0.334   1.533   2.340 -0.1056  0.1072  0.0751
13168TIP3    H160995   0.292   1.610   2.302  0.1107  0.1123 -0.1602
13168TIP3    H260996   0.381   1.566   2.417  1.1229  0.4644 -0.8001
13169TIP3   OH260997   2.844   2.234  15.344  0.7350 -0.0628 -0.1603
13169TIP3    H160998   2.753   2.261  15.335  0.0921 -2.3579 -1.0828
13169TIP3    H260999   2.891   2.286  15.279 -0.5374 -1.3834 -2.2457
13170TIP3   OH261000   2.067   1.208   0.783  0.1216 -0.6694 -0.1928
13170TIP3    H161001   2.012   1.254   0.846  1.7198  0.3187  0.5295
13170TIP3    H261002   2.100   1.132   0.831  0.9818 -0.1583  0.0481
13171TIP3   OH261003   1.157   2.763  15.951 -0.1709 -0.1616 -0.1791
13171TIP3    H161004   1.147   2.715  15.869  1.0806 -1.4955  0.4028
13171TIP3    H261005   1.247   2.743  15.979 -0.6900 -0.0292  1.6809
13172TIP3   OH261006   1.639   5.700   5.150 -0.5954  0.8247 -0.1408
13172TIP3    H161007   1.685   5.714   5.233 -0.3446  0.2115 -0.1766
13172TIP3    H261008   1.567   5.642   5.171 -1.0874  1.4093 -0.1789
13173TIP3   OH261009   1.071   1.654   5.879 -0.6354  0.0422 -0.5016
13173TIP3    H161010   1.107   1.669   5.966 -0.4268  0.8255 -0.7140
13173TIP3    H261011   0.976   1.661   5.890 -0.5406  2.1338 -0.6728
13174TIP3   OH261012   2.858   0.258  15.357 -0.3671 -0.1708  0.0840
13174TIP3    H161013   2.917   0.307  15.415  0.2098 -0.4999 -0.2191
13174TIP3    H261014   2.791   0.222  15.416 -0.0441 -0.1200  0.4854
13175TIP3   OH261015   1.055   0.832  10.390 -0.2360 -0.2860  0.0441
13175TIP3    H161016   1.108   0.877  10.456 -0.2282  0.0087 -0.1576
13175TIP3    H261017   1.112   0.828  10.313  0.2893 -1.9098  0.4727
13176TIP3   OH261018   4.005   4.551   5.469  0.2523 -0.2259 -0.4402
13176TIP3    H161019   4.029   4.497   5.544  0.9144  1.0718  0.3074
13176TIP3    H261020   3.977   4.634   5.506 -1.2953 -0.2101 -1.5420
13177TIP3   OH261021   4.191   1.423  15.269 -0.7019 -0.2414 -0.3344
13177TIP3    H161022   4.222   1.489  15.331  2.7505 -0.1735 -1.9435
13177TIP3    H261023   4.169   1.347  15.324  1.1047  0.2171  1.0981
13178TIP3   OH261024   4.093   4.829   4.476 -0.3182  0.3106 -0.1124
13178TIP3    H161025   4.142   4.909   4.459  0.9096 -0.5603 -0.7824
13178TIP3    H261026   4.118   4.803   4.565 -1.2498  1.0218  0.3727
13179TIP3   OH261027   2.764   6.434   1.142  0.4752 -0.3651  0.1032
13179TIP3    H161028   2.761   6.351   1.094  1.2811 -2.2234  3.0428
13179TIP3    H261029   2.673   6.450   1.169  0.2712 -0.0783 -0.7050
13180TIP3   OH261030   4.449   6.311   1.625 -0.2342  0.3130  0.6787
13180TIP3    H161031   4.488   6.270   1.548 -1.0188 -1.1046  1.0079
13180TIP3    H261032   4.510   6.381   1.648  0.0079  0.7816 -1.2216
13181TIP3   OH261033   1.114   2.260  16.654  0.0600  0.1320 -0.2933
13181TIP3    H161034   1.088   2.352  16.662  0.0356  0.2176 -1.2419
13181TIP3    H261035   1.072   2.216  16.728 -0.4599  0.7668 -0.2026
13182TIP3   OH261036   0.850   4.918  12.691  0.0430  0.1294  0.3777
13182TIP3    H161037   0.858   4.986  12.758  1.3734  1.3234 -0.9091
13182TIP3    H261038   0.767   4.935  12.648 -0.3046  0.0305  1.0024
13183TIP3   OH261039   4.355   5.559   1.964  0.0448  0.4421 -0.0701
13183TIP3    H161040   4.293   5.588   2.031  1.8734 -0.8115  2.3008
13183TIP3    H261041   4.386   5.640   1.924 -0.2927  1.3197  1.3652
13184TIP3   OH261042   0.780   1.900   3.579  0.0983  0.0955 -0.1348
13184TIP3    H161043   0.794   1.911   3.673 -0.4138  1.7052 -0.2177
13184TIP3    H261044   0.726   1.974   3.554 -0.3589 -0.6846 -1.5912
13185TIP3   OH261045   3.913   4.847   4.924 -0.1969 -0.6208  0.0409
13185TIP3    H161046   3.931   4.939   4.902 -0.2166  0.1585  2.8837
13185TIP3    H261047   3.822   4.834   4.898  0.0188 -0.0524 -1.0360
13186TIP3   OH261048   5.353   5.807   1.331  0.3544  0.1982  0.8264
13186TIP3    H161049   5.342   5.720   1.295  0.5146  0.1507  0.8896
13186TIP3    H261050   5.360   5.865   1.255  3.3654 -0.2114  0.6868
13187TIP3   OH261051   4.586   0.014  16.408 -0.4652  0.0311  0.4774
13187TIP3    H161052   4.533   0.034  16.485 -0.0664 -0.6425  0.9331
13187TIP3    H261053   4.583   0.094  16.356 -2.0437 -0.0335  0.4114
13188TIP3   OH261054   4.814   4.891  11.628  0.0286  0.1837  0.3152
13188TIP3    H161055   4.765   4.972  11.642 -0.0602 -0.1665  2.4136
13188TIP3    H261056   4.906   4.916  11.636  0.1166  0.4334 -1.2613
13189TIP3   OH261057   2.272   2.801   3.923  0.3494 -0.0993  0.2548
13189TIP3    H161058   2.258   2.730   3.861 -0.1083  1.3440 -1.3637
13189TIP3    H261059   2.184   2.821   3.956  0.0221  1.4515 -1.3643
13190TIP3   OH261060   0.431   5.508  13.470 -0.0544 -0.2473  0.1890
13190TIP3    H161061   0.519   5.492  13.437  0.3860  1.6174  0.3511
13190TIP3    H261062   0.442   5.525  13.563 -0.3076  1.7466 -0.0977
13191TIP3   OH261063   0.766   3.237  14.547  1.0002 -0.6783 -0.0769
13191TIP3    H161064   0.729   3.172  14.487 -1.5030 -0.5084  1.1469
13191TIP3    H261065   0.743   3.321  14.509  4.3722 -0.3534 -1.7404
13192TIP3   OH261066   5.809   2.569   4.359 -0.1045  0.0528  0.4045
13192TIP3    H161067   5.847   2.482   4.369 -1.5316 -0.8016 -1.1887
13192TIP3    H261068   5.799   2.580   4.264 -3.2136  0.4421  0.6771
13193TIP3   OH261069   5.781   3.453  11.623 -0.0343 -0.1735  0.7273
13193TIP3    H161070   5.705   3.480  11.570  0.0596 -1.3913 -0.0707
13193TIP3    H261071   5.748   3.450  11.713 -0.7824 -0.1312  0.4618
13194TIP3   OH261072   4.885   4.296  14.483 -0.3170  0.3517  0.5024
13194TIP3    H161073   4.931   4.263  14.405 -0.1416  0.7135  0.4537
13194TIP3    H261074   4.888   4.222  14.544 -0.5673  0.0214  0.1211
13195TIP3   OH261075   2.160   4.938   1.675 -0.3440 -0.2919 -0.2668
13195TIP3    H161076   2.193   4.965   1.761  0.1264  0.6277 -0.7196
13195TIP3    H261077   2.108   5.012   1.645 -0.0371 -0.3703 -1.0138
13196TIP3   OH261078   3.177   5.191   2.639 -0.4467 -0.1393 -0.3292
13196TIP3    H161079   3.267   5.182   2.607 -0.7627 -0.1434 -1.2451
13196TIP3    H261080   3.184   5.252   2.713  0.3916 -0.6544  0.0367
13197TIP3   OH261081   5.330   6.426  12.978 -0.4036 -0.8086 -0.6880
13197TIP3    H161082   5.414   6.414  13.022 -0.0318 -2.2223 -1.7071
13197TIP3    H261083   5.348   6.489  12.909 -1.4431  3.0468  2.2146
13198TIP3   OH261084   6.515   0.841  11.473 -0.0039  0.0079 -0.1864
13198TIP3    H161085   6.493   0.864  11.563 -0.3418 -0.2525 -0.2026
13198TIP3    H261086   6.597   0.791  11.481 -0.0736 -0.0805 -0.0164
13199TIP3   OH261087   4.108   1.493   0.656  0.1564 -0.3093  0.4850
13199TIP3    H161088   4.061   1.466   0.734 -0.3677 -0.3243  0.1656
13199TIP3    H261089   4.147   1.577   0.679  1.8367 -1.2921  1.5067
13200TIP3   OH261090   1.964   4.331   6.119 -0.1083 -0.2748 -0.3447
13200TIP3    H161091   1.884   4.355   6.167 -0.6773 -1.4119 -0.6793
13200TIP3    H261092   2.035   4.373   6.168 -0.8442  0.1334  0.3958
13201TIP3   OH261093   0.457   0.619   3.976 -0.6539  0.0574  0.0699
13201TIP3    H161094   0.442   0.646   3.885 -1.2337 -1.0045 -0.1764
13201TIP3    H261095   0.498   0.533   3.969 -1.2802 -0.3207  0.8025
13202TIP3   OH261096   6.373   0.867  15.281 -0.0218  0.0675 -0.8152
13202TIP3    H161097   6.316   0.940  15.305  2.3632  1.8313 -0.1476
13202TIP3    H261098   6.462   0.898  15.300  1.0832 -3.4149  0.6374
13203TIP3   OH261099   5.717   1.054  13.614 -0.0383  0.6267 -0.3744
13203TIP3    H161100   5.632   1.085  13.582  0.2705  1.1287 -0.7155
13203TIP3    H261101   5.759   1.132  13.652 -0.6035 -0.0406  1.7750
13204TIP3   OH261102   3.258   5.804   4.018 -0.0056  0.5066 -0.0007
13204TIP3    H161103   3.217   5.805   4.105 -1.1926  0.0519 -0.5239
13204TIP3    H261104   3.222   5.880   3.973 -1.8771 -0.9564 -1.1330
13205TIP3   OH261105   1.586   1.831  16.196 -0.0535  0.1350  1.0118
13205TIP3    H161106   1.511   1.781  16.229  1.8538 -2.6853  1.3919
13205TIP3    H261107   1.653   1.821  16.263  1.4116  0.7011 -0.3176
13206TIP3   OH261108   4.102   5.671  13.231  0.2932 -0.5231 -0.3082
13206TIP3    H161109   4.169   5.650  13.296  0.0087 -1.2659 -0.2455
13206TIP3    H261110   4.019   5.669  13.280  0.3475  2.6319  0.1573
13207TIP3   OH261111   3.367   2.925  13.549  0.2355 -0.4042  0.8431
13207TIP3    H161112   3.355   2.859  13.618 -0.3405 -0.5620  0.5909
13207TIP3    H261113   3.342   2.880  13.468  0.8981 -0.2118  0.5291
13208TIP3   OH261114   0.750   5.008   2.291 -0.1470 -0.2770  0.6879
13208TIP3    H161115   0.822   5.066   2.267  0.1651 -0.8562  0.1999
13208TIP3    H261116   0.718   4.973   2.207 -0.6956 -0.3782  0.9340
13209TIP3   OH261117   5.716   6.828  12.564 -0.0067 -0.1730 -0.4435
13209TIP3    H161118   5.777   6.764  12.599  3.7469  1.9958 -2.3983
13209TIP3    H261119   5.709   6.807  12.471 -1.9060 -0.0090 -0.3826
13210TIP3   OH261120   0.779   1.231  11.316  0.5843  0.3863 -0.5871
13210TIP3    H161121   0.874   1.227  11.313  0.6437  1.7676 -1.4880
13210TIP3    H261122   0.760   1.300  11.380  0.0245 -2.7361  2.9815
13211TIP3   OH261123   0.121   6.231  11.108  0.4727  0.6183  0.5117
13211TIP3    H161124   0.059   6.290  11.152  0.0933 -0.1386  1.0145
13211TIP3    H261125   0.205   6.276  11.112  0.0649  1.4031  0.3338
13212TIP3   OH261126   1.229   5.961  14.091 -0.1257 -0.2097 -0.1969
13212TIP3    H161127   1.264   6.044  14.124  0.9347 -1.0157  0.7629
13212TIP3    H261128   1.270   5.951  14.005 -0.7622  0.5665 -0.6022
13213TIP3   OH261129   2.047   4.467  13.647 -0.3795 -0.4091  1.0192
13213TIP3    H161130   2.108   4.400  13.616  0.3279  0.3829  0.6681
13213TIP3    H261131   1.982   4.474  13.578 -0.4447 -0.7096  1.0459
13214TIP3   OH261132   5.710   2.814  15.518 -0.0101  0.1682 -0.4181
13214TIP3    H161133   5.769   2.744  15.547  1.4697  1.4201 -0.2977
13214TIP3    H261134   5.744   2.841  15.433  0.8619  2.2560  0.5304
13215TIP3   OH261135   3.631   3.454  15.596  0.3181  0.8805  0.1148
13215TIP3    H161136   3.596   3.512  15.528  1.1009  2.1341  0.7373
13215TIP3    H261137   3.717   3.491  15.617  0.1308  0.4900  1.7171
13216TIP3   OH261138   1.404   6.300   3.058  0.4155  0.0563 -0.1339
13216TIP3    H161139   1.408   6.229   2.994  0.7548 -0.3447  0.3284
13216TIP3    H261140   1.410   6.380   3.005  0.7827 -0.2701 -0.5968
13217TIP3   OH261141   4.434   0.804   3.389 -0.1454  0.3455 -0.0080
13217TIP3    H161142   4.466   0.713   3.389  1.8581  1.0026 -0.8579
13217TIP3    H261143   4.444   0.832   3.480 -0.0606 -0.0576  0.1102
13218TIP3   OH261144   1.809   4.304  13.293 -0.5181  0.1747  0.0676
13218TIP3    H161145   1.778   4.252  13.366 -0.9932 -0.5622 -0.6377
13218TIP3    H261146   1.879   4.252  13.253  0.5078  1.0659  0.6332
13219TIP3   OH261147   4.262   0.166   3.379  0.0912  0.2531 -0.0784
13219TIP3    H161148   4.193   0.227   3.353  1.3389  1.8786  0.3025
13219TIP3    H261149   4.268   0.177   3.474  1.2130  0.4851 -0.1736
13220TIP3   OH261150   1.973   0.901   4.558 -0.5256 -0.3559 -0.0787
13220TIP3    H161151   1.963   0.877   4.466 -0.6997 -0.6876  0.0244
13220TIP3    H261152   1.933   0.987   4.565 -0.6314 -0.3865 -0.2854
13221TIP3   OH261153   0.189   4.688  14.811  0.0723  0.0521  0.2185
13221TIP3    H161154   0.227   4.740  14.739 -0.6727 -1.4081 -1.3011
13221TIP3    H261155   0.095   4.686  14.791  0.1482 -2.3559 -0.1426
13222TIP3   OH261156   5.193   0.934  12.021  0.6187  0.0132 -0.1192
13222TIP3    H161157   5.217   0.852  11.978 -1.3087 -0.4697 -0.3332
13222TIP3    H261158   5.174   0.909  12.111 -2.4664 -0.3200 -0.7560
13223TIP3   OH261159   3.974   3.453   4.057 -0.1207 -0.2568 -0.8327
13223TIP3    H161160   4.038   3.504   4.007 -1.0452  1.2070 -0.5846
13223TIP3    H261161   4.026   3.385   4.099  1.3392  1.0388 -0.4208
13224TIP3   OH261162   1.099   6.429   3.103  0.5341 -0.6461  0.3718
13224TIP3    H161163   1.011   6.424   3.142  0.1030 -2.6499 -0.7205
13224TIP3    H261164   1.156   6.389   3.167  0.0682 -2.4898 -0.3000
13225TIP3   OH261165   1.855   4.710  12.251  0.4647  0.4163 -0.4374
13225TIP3    H161166   1.836   4.622  12.285  1.1165  0.7950  0.9848
13225TIP3    H261167   1.787   4.726  12.186 -2.0433  0.3436  1.9564
13226TIP3   OH261168   2.021   1.645   1.591 -0.9452  0.4568  0.1210
13226TIP3    H161169   2.045   1.732   1.623  2.4117 -0.0731 -0.5003
13226TIP3    H261170   1.958   1.661   1.521 -0.2439  2.4271 -0.1201
13227TIP3   OH261171   2.732   2.984  16.694  0.1406 -0.1819  0.5529
13227TIP3    H161172   2.792   2.972  16.620 -1.3010  0.2769 -0.7488
13227TIP3    H261173   2.684   3.064  16.674 -2.0451 -1.3751  0.6813
13228TIP3   OH261174   0.828   5.764  11.893 -0.7272 -0.2135 -0.3202
13228TIP3    H161175   0.841   5.794  11.803  2.4575 -0.5242 -0.0972
13228TIP3    H261176   0.870   5.678  11.895 -3.4925 -1.6560  0.7803
13229TIP3   OH261177   0.403   0.597  10.613  0.1183 -0.7152  0.2728
13229TIP3    H161178   0.382   0.512  10.652  0.9038 -1.3513 -0.6582
13229TIP3    H261179   0.338   0.609  10.545  0.3725 -0.8538  0.0042
13230TIP3   OH261180   4.878   2.682  15.115 -0.4596  0.0970 -0.0097
13230TIP3    H161181   4.867   2.588  15.131 -0.9628  0.1816  0.1783
13230TIP3    H261182   4.915   2.716  15.196 -1.3194  0.2359  0.3324
13231TIP3   OH261183   5.666   2.277  13.363 -0.0822 -0.0292 -0.7764
13231TIP3    H161184   5.681   2.324  13.446 -0.1224 -1.0202 -0.2006
13231TIP3    H261185   5.722   2.322  13.300  0.1549  0.5698 -0.1519
13232TIP3   OH261186   5.057   2.881  16.374 -0.7417 -0.0955  0.5760
13232TIP3    H161187   4.979   2.865  16.428 -1.5630 -0.2157 -0.6110
13232TIP3    H261188   5.123   2.822  16.410 -1.1932  0.0145  1.6109
13233TIP3   OH261189   4.953   3.887   4.877 -0.0595  0.1284  0.1751
13233TIP3    H161190   4.874   3.881   4.931  0.0654 -1.0651  0.2376
13233TIP3    H261191   4.936   3.828   4.803  0.6291  0.1527 -0.0084
13234TIP3   OH261192   5.966   3.127  15.659  0.1809  0.0641  0.1136
13234TIP3    H161193   6.023   3.066  15.612 -0.3751  0.5197 -1.1926
13234TIP3    H261194   6.026   3.177  15.714  0.6723 -1.4756  1.0287
13235TIP3   OH261195   0.839   1.496  15.058  0.5417  0.1382 -0.0921
13235TIP3    H161196   0.856   1.590  15.050  0.3039  0.1558 -0.4138
13235TIP3    H261197   0.766   1.490  15.120  0.1204  0.2061 -0.5775
13236TIP3   OH261198   5.657   5.524  12.293 -0.0345 -0.2737  0.6951
13236TIP3    H161199   5.743   5.566  12.294  0.4523 -1.2355  1.7912
13236TIP3    H261200   5.611   5.566  12.221  1.4594  0.0515 -0.1165
13237TIP3   OH261201   5.254   4.512  13.607 -0.0522  0.4738  0.6456
13237TIP3    H161202   5.230   4.556  13.525  2.5454  1.2588  0.2156
13237TIP3    H261203   5.326   4.454  13.583 -0.8622 -1.1841  1.9695
13238TIP3   OH261204   1.281   0.105   2.100  0.2975 -0.3203  0.1664
13238TIP3    H161205   1.286   0.201   2.097 -0.9481 -0.1914  1.3555
13238TIP3    H261206   1.191   0.085   2.075  0.9983 -1.3171 -1.7743
13239TIP3   OH261207   2.117   5.497   5.706 -0.1706  0.9887 -0.0301
13239TIP3    H161208   2.162   5.549   5.639  0.4212  0.6033  0.0579
13239TIP3    H261209   2.047   5.452   5.659  0.5631  0.3167 -0.5044
13240TIP3   OH261210   4.307   6.334  13.526 -0.1906 -0.4840 -0.0858
13240TIP3    H161211   4.237   6.293  13.476 -1.6550  1.1242  0.5270
13240TIP3    H261212   4.382   6.334  13.467 -0.6937 -2.1817 -0.7871
13241TIP3   OH261213   2.569   1.738  15.608 -0.0003 -0.2926  0.0217
13241TIP3    H161214   2.564   1.830  15.634  1.3253 -0.0112 -0.6528
13241TIP3    H261215   2.481   1.716  15.579 -0.4962  0.5582  0.8291
13242TIP3   OH261216   6.392   2.273   0.959 -1.1082  0.0627  0.5787
13242TIP3    H161217   6.437   2.353   0.984 -0.9318 -0.8206  3.4945
13242TIP3    H261218   6.457   2.224   0.908 -0.9530  1.3671 -0.5487
13243TIP3   OH261219   1.197   1.888   0.957 -0.1250  1.1357 -0.4268
13243TIP3    H161220   1.155   1.813   0.915  0.3526  0.0308  0.9677
13243TIP3    H261221   1.130   1.956   0.959 -1.0191  0.2715 -0.5196
13244TIP3   OH261222   6.143   1.968   4.620 -0.3294  0.1417 -0.1248
13244TIP3    H161223   6.182   1.904   4.680 -1.1684 -0.4010 -0.1476
13244TIP3    H261224   6.079   1.918   4.570 -1.0386  1.0129 -0.1045
13245TIP3   OH261225   2.406   3.463  14.654 -0.1883 -0.9605  0.2205
13245TIP3    H161226   2.448   3.548  14.638  0.4781 -1.1003  1.1581
13245TIP3    H261227   2.322   3.469  14.609 -1.3440  1.2204  2.4863
13246TIP3   OH261228   5.804   4.413   4.509  0.0939  0.3883 -0.3131
13246TIP3    H161229   5.829   4.364   4.587 -1.0118  0.7170  0.2649
13246TIP3    H261230   5.711   4.432   4.520 -0.2773 -0.1759 -2.0554
13247TIP3   OH261231   0.520   0.624   2.591  0.0363  0.3519 -0.3873
13247TIP3    H161232   0.426   0.607   2.595 -0.0519  1.0155  0.5147
13247TIP3    H261233   0.534   0.664   2.505 -0.7545  1.6800  0.0741
13248TIP3   OH261234   5.098   3.003  12.002 -0.1713 -0.8619  0.0176
13248TIP3    H161235   5.125   2.917  12.033 -1.2908 -1.6883 -1.1719
13248TIP3    H261236   5.102   3.059  12.079  0.6565 -1.9557  0.7924
13249TIP3   OH261237   5.659   4.014   0.304  0.0575 -0.0312  0.0043
13249TIP3    H161238   5.614   4.089   0.343 -0.4216 -0.8565  1.0604
13249TIP3    H261239   5.751   4.026   0.329 -0.2822 -0.7170  1.7359
13250TIP3   OH261240   3.388   1.012   0.978  0.5891  0.4576 -0.7892
13250TIP3    H161241   3.326   0.940   0.974  0.2723  0.7657 -1.4890
13250TIP3    H261242   3.362   1.061   1.056  0.9512 -0.3035 -0.1760
13251TIP3   OH261243   3.732   5.148   2.755 -0.3291 -0.6643 -0.2694
13251TIP3    H161244   3.646   5.189   2.747 -0.7171 -0.8108  2.2908
13251TIP3    H261245   3.787   5.214   2.796  0.3998 -1.0861 -0.5335
13252TIP3   OH261246   3.272   3.502  16.692 -0.0037  0.5503  0.5916
13252TIP3    H161247   3.332   3.577  16.699  1.5450 -0.7019  1.3430
13252TIP3    H261248   3.243   3.485  16.781 -0.2278  0.1592  0.4490
13253TIP3   OH261249   4.334   1.294   3.722 -0.2768 -0.4521  0.0293
13253TIP3    H161250   4.348   1.385   3.746  0.0045 -0.5075  0.0770
13253TIP3    H261251   4.422   1.256   3.718 -0.3935 -0.7271  0.0354
13254TIP3   OH261252   1.757   3.210   3.213  0.1113  0.0141  0.0519
13254TIP3    H161253   1.782   3.300   3.233  1.1057  0.1051 -1.4012
13254TIP3    H261254   1.839   3.166   3.194 -0.4586 -0.8988 -0.3716
13255TIP3   OH261255   2.329   6.628  13.810  0.1405  0.3810 -0.3161
13255TIP3    H161256   2.356   6.539  13.791 -1.6414 -0.1392 -0.6305
13255TIP3    H261257   2.260   6.618  13.876  0.3160  1.5598  0.0602
13256TIP3   OH261258   2.713   6.278  15.722 -0.4120 -0.1194 -0.1350
13256TIP3    H161259   2.729   6.297  15.629  1.5709  0.1207  0.2085
13256TIP3    H261260   2.626   6.239  15.724 -1.4409  1.8832 -1.8283
13257TIP3   OH261261   2.925   6.309   2.938 -0.8348  0.8357 -0.1513
13257TIP3    H161262   2.883   6.236   2.894 -0.7599  0.5756  0.2079
13257TIP3    H261263   2.856   6.347   2.992 -0.8312  0.9330 -0.2145
13258TIP3   OH261264   1.187   2.368   2.944  0.1503 -0.0178 -0.0884
13258TIP3    H161265   1.132   2.326   3.010 -1.1635  0.7185 -0.6735
13258TIP3    H261266   1.152   2.457   2.937  1.5285  0.5209 -0.3798
13259TIP3   OH261267   0.646   3.680   2.494 -0.3403  0.1414 -0.5446
13259TIP3    H161268   0.723   3.724   2.530 -1.3504 -0.3955  2.6380
13259TIP3    H261269   0.679   3.598   2.458  0.5683 -0.3621  1.3179
13260TIP3   OH261270   0.796   5.567  16.028 -0.1335 -0.0132 -0.6395
13260TIP3    H161271   0.811   5.619  16.107  1.3376 -0.4064 -0.6330
13260TIP3    H261272   0.773   5.631  15.961  1.9344  0.7506 -0.7031
13261TIP3   OH261273   4.680   0.806   0.775  0.2749  0.2049 -0.1051
13261TIP3    H161274   4.679   0.901   0.778 -0.5983  0.2007  0.0634
13261TIP3    H261275   4.599   0.779   0.819 -0.1600 -0.5680 -1.3102
13262TIP3   OH261276   2.159   4.503   1.544 -0.3284  0.0085  0.1863
13262TIP3    H161277   2.195   4.427   1.590 -2.8261 -0.5320  1.4177
13262TIP3    H261278   2.112   4.552   1.612 -0.4186  1.6193 -0.9709
13263TIP3   OH261279   0.196   0.152  15.922  0.0993 -0.1258  0.6837
13263TIP3    H161280   0.150   0.081  15.967 -0.5362 -0.0336  0.1961
13263TIP3    H261281   0.245   0.109  15.852 -2.1341  0.0720 -1.1452
13264TIP3   OH261282   3.834   0.540  11.846  0.6867 -0.2975 -0.4165
13264TIP3    H161283   3.925   0.534  11.873  0.4985 -1.8960 -0.0447
13264TIP3    H261284   3.825   0.477  11.775 -0.2118 -0.4037 -0.2198
13265TIP3   OH261285   0.484   0.905   0.103  0.2961 -0.1766  0.0139
13265TIP3    H161286   0.469   0.869   0.191 -0.7301 -0.5800 -0.3036
13265TIP3    H261287   0.499   0.998   0.117  1.0473 -0.3896  0.6882
13266TIP3   OH261288   3.751   2.148   5.415 -0.0957  0.0744 -0.1296
13266TIP3    H161289   3.791   2.222   5.461  1.1250  0.5343 -1.8369
13266TIP3    H261290   3.800   2.071   5.444  0.8241  0.3921 -0.8152
13267TIP3   OH261291   5.044   1.382   0.622 -0.2680 -0.1818 -0.0887
13267TIP3    H161292   5.093   1.456   0.585 -2.0849  1.3922  0.4574
13267TIP3    H261293   5.071   1.306   0.571  0.1711  1.2253 -2.0325
13268TIP3   OH261294   3.963   3.096   0.863 -0.2786 -0.2983 -0.1393
13268TIP3    H161295   3.889   3.099   0.923 -0.4410  0.3734 -0.3616
13268TIP3    H261296   3.946   3.167   0.800  0.1295 -0.6760 -0.6864
13269TIP3   OH261297   0.351   6.699  13.892 -0.3852  0.2852 -0.4074
13269TIP3    H161298   0.392   6.694  13.979 -0.5382 -1.3390 -0.3882
13269TIP3    H261299   0.260   6.723  13.910 -0.2068  0.8039 -0.1897
13270TIP3   OH261300   4.576   3.258  16.221 -0.3435 -0.3727 -0.3901
13270TIP3    H161301   4.609   3.273  16.309 -0.5501 -1.0360 -0.1991
13270TIP3    H261302   4.515   3.330  16.206 -0.2416 -0.2082 -0.0284
13271TIP3   OH261303   5.573   5.035   0.956 -0.2673  0.1926 -0.0271
13271TIP3    H161304   5.601   5.126   0.950 -1.0508  0.3825 -1.0658
13271TIP3    H261305   5.651   4.987   0.984  0.0856  1.2083  0.7636
13272TIP3   OH261306   0.863   2.858  17.152 -0.5664  0.3830 -0.4108
13272TIP3    H161307   0.812   2.924  17.104  1.0300  1.7023 -0.3340
13272TIP3    H261308   0.836   2.868  17.243  1.1983  2.4674 -0.0463
13273TIP3   OH261309   3.687   1.748  14.847 -1.0646  0.2860  0.2925
13273TIP3    H161310   3.782   1.755  14.847 -1.1828  2.5990 -0.1053
13273TIP3    H261311   3.668   1.675  14.789  0.4294  1.6607 -2.0790
13274TIP3   OH261312   1.396   2.303  16.366  0.8709  0.1950 -0.2126
13274TIP3    H161313   1.302   2.317  16.377  1.0519  1.9612 -0.5734
13274TIP3    H261314   1.407   2.208  16.370 -0.6591  0.0418  1.8687
13275TIP3   OH261315   0.642   5.282  17.047 -0.0574 -0.3078 -0.5722
13275TIP3    H161316   0.723   5.239  17.021  0.1804  0.4469 -1.1208
13275TIP3    H261317   0.581   5.211  17.063  0.8103 -0.9040  0.1955
13276TIP3   OH261318   1.613   5.820   4.673 -0.3024 -0.0743 -0.0936
13276TIP3    H161319   1.679   5.806   4.740 -0.4647 -0.6570 -0.0455
13276TIP3    H261320   1.533   5.842   4.721 -1.0178 -2.7528  0.0828
13277TIP3   OH261321   0.180   0.376  11.165 -0.2095  0.0409 -0.8055
13277TIP3    H161322   0.251   0.432  11.198 -1.2198  0.8907  0.0112
13277TIP3    H261323   0.216   0.336  11.086  2.0846 -1.5837  0.9398
13278TIP3   OH261324   6.158   5.916  15.769  0.1904 -0.1105 -0.2330
13278TIP3    H161325   6.119   5.891  15.685 -1.2299 -0.4639  0.4971
13278TIP3    H261326   6.109   5.993  15.797  1.3762  0.6658 -0.2174
13279TIP3   OH261327   6.588   4.987   4.799 -0.4942 -0.3079  0.0347
13279TIP3    H161328   6.568   4.932   4.875 -1.4713 -1.0894 -0.7450
13279TIP3    H261329   6.530   5.062   4.808 -1.1493 -0.7592 -0.2960
13280TIP3   OH261330   4.021   5.296   5.615  0.0528 -0.7542  0.1607
13280TIP3    H161331   4.052   5.211   5.583 -0.1155 -0.3769 -1.0501
13280TIP3    H261332   4.100   5.347   5.631  0.1617  0.2073 -2.9221
13281TIP3   OH261333   6.746   3.570   4.306 -0.1726 -0.0067  0.3773
13281TIP3    H161334   6.744   3.569   4.211  0.7343 -0.2188  0.3571
13281TIP3    H261335   6.656   3.549   4.332 -0.5209  0.4790 -0.4254
13282TIP3   OH261336   1.787   1.909   3.251 -0.7692  0.3219  0.1903
13282TIP3    H161337   1.878   1.933   3.234 -0.4353  0.1663  1.6274
13282TIP3    H261338   1.793   1.829   3.304 -1.6222  1.7538  2.6240
13283TIP3   OH261339   0.690   5.008  13.022 -0.3567 -0.3985 -0.3057
13283TIP3    H161340   0.634   5.071  12.976 -1.8639 -0.9143  0.7556
13283TIP3    H261341   0.758   4.987  12.958  0.1833  2.2212 -0.7272
13284TIP3   OH261342   1.987   1.367   4.864  0.5806  0.5439 -0.4143
13284TIP3    H161343   1.894   1.386   4.852  0.2384 -0.7677 -0.0187
13284TIP3    H261344   2.025   1.374   4.776 -0.1424 -0.1403 -0.7917
13285TIP3   OH261345   0.432   4.361  15.925  0.3440  0.0566 -0.1688
13285TIP3    H161346   0.372   4.296  15.963  1.1102 -1.1532 -0.9566
13285TIP3    H261347   0.409   4.443  15.968  0.2443 -0.9837  1.9077
13286TIP3   OH261348   2.510   0.768   6.402 -0.1082  0.1666  0.3606
13286TIP3    H161349   2.418   0.773   6.426 -0.3208 -0.3505 -0.3136
13286TIP3    H261350   2.531   0.675   6.409  0.2027  0.2030 -0.0532
13287TIP3   OH261351   5.228   5.579   5.912 -0.2686 -0.3707  0.1656
13287TIP3    H161352   5.284   5.507   5.941  1.0644  0.3333 -0.5261
13287TIP3    H261353   5.165   5.539   5.853  0.2067 -1.0417  0.1020
13288TIP3   OH261354   0.545   0.454  16.476 -0.4813  0.9234  0.2307
13288TIP3    H161355   0.551   0.513  16.400 -0.7052  1.3565  0.5472
13288TIP3    H261356   0.472   0.489  16.528 -1.1580 -0.1128  0.0101
13289TIP3   OH261357   2.297   6.191   5.796  0.0655  0.1382  0.1894
13289TIP3    H161358   2.243   6.174   5.873 -1.5182  0.6759 -0.7552
13289TIP3    H261359   2.377   6.141   5.811 -0.0821  0.4301  2.2899
13290TIP3   OH261360   2.385   6.379   3.359 -0.1618 -0.2346 -0.4945
13290TIP3    H161361   2.328   6.308   3.390 -0.5637  0.2897 -0.0145
13290TIP3    H261362   2.357   6.394   3.268 -3.2241  2.2896  0.6569
13291TIP3   OH261363   1.206   0.732  12.238  0.2551 -0.7488 -0.2062
13291TIP3    H161364   1.286   0.762  12.194  0.5468 -1.8305 -0.4257
13291TIP3    H261365   1.207   0.637  12.229 -0.7417 -0.8271  0.3441
13292TIP3   OH261366   0.196   5.752   1.920  0.4373 -0.1106 -0.5871
13292TIP3    H161367   0.251   5.776   1.995 -0.6939  0.4521  0.0802
13292TIP3    H261368   0.183   5.658   1.929  0.1940 -0.0252  0.0183
13293TIP3   OH261369   2.163   0.767  10.896  0.4061  0.5197 -0.0377
13293TIP3    H161370   2.161   0.862  10.907  1.1337  0.5632 -0.2346
13293TIP3    H261371   2.148   0.754  10.802  1.5902  0.5136 -0.2431
13294TIP3   OH261372   4.243   4.880   3.186 -0.1109  0.1477  0.2658
13294TIP3    H161373   4.181   4.809   3.172 -0.5001  0.5263  0.0317
13294TIP3    H261374   4.204   4.933   3.255  0.2648  0.0335  0.5650
13295TIP3   OH261375   0.502   3.671   6.242 -0.4616  1.2272  0.4596
13295TIP3    H161376   0.575   3.733   6.242  0.5704  0.0437 -0.0179
13295TIP3    H261377   0.521   3.611   6.170 -1.7756  0.7326  0.4996
13296TIP3   OH261378   3.915   3.757   3.822 -0.4104  0.1968 -0.4599
13296TIP3    H161379   3.823   3.732   3.812 -0.1754 -0.9855  0.0633
13296TIP3    H261380   3.962   3.699   3.763 -0.0011  0.9234 -0.8609
13297TIP3   OH261381   3.369   3.016   4.699  0.0032  0.1364  0.0280
13297TIP3    H161382   3.438   3.081   4.698  1.1949 -1.0511  1.1821
13297TIP3    H261383   3.396   2.951   4.634  0.9643 -1.2500  1.7381
13298TIP3   OH261384   3.024   4.679   2.219  0.0736  0.2612 -0.2140
13298TIP3    H161385   3.009   4.587   2.194  1.2210 -0.5998  1.9811
13298TIP3    H261386   3.047   4.675   2.312 -0.5631  2.8776  0.1350
13299TIP3   OH261387   1.292   1.493  17.067  0.4263 -0.0185  0.6037
13299TIP3    H161388   1.321   1.507  16.976 -0.5224  0.4507  0.3655
13299TIP3    H261389   1.197   1.484  17.061  0.0150  2.5554  1.8169
13300TIP3   OH261390   5.358   1.649  15.312 -0.6408  0.1884 -0.0017
13300TIP3    H161391   5.357   1.613  15.223 -1.9778 -0.4532  0.2457
13300TIP3    H261392   5.266   1.671  15.330 -0.3274  0.7062  1.0747
13301TIP3   OH261393   5.379   0.115   0.603  0.4421  0.1529  0.1883
13301TIP3    H161394   5.345   0.025   0.597  2.1516 -0.5927  0.8733
13301TIP3    H261395   5.473   0.105   0.589  0.7123  1.7973  0.6970
13302TIP3   OH261396   1.121   0.860  14.930  0.1560  0.2183  0.1103
13302TIP3    H161397   1.126   0.827  15.020  0.8069  0.4275  0.1595
13302TIP3    H261398   1.031   0.891  14.921 -0.3252 -1.0757  0.2253
13303TIP3   OH261399   1.867   1.185  14.152  0.2068 -0.1642 -0.4058
13303TIP3    H161400   1.833   1.139  14.229  1.6362 -1.4813 -0.5112
13303TIP3    H261401   1.934   1.244  14.188  0.0529  0.0784 -0.5188
13304TIP3   OH261402   4.762   2.388   1.810  0.4966  0.1896  0.4286
13304TIP3    H161403   4.689   2.333   1.781 -0.0304  0.1622  1.7266
13304TIP3    H261404   4.821   2.327   1.855  0.6466  0.4501  0.5831
13305TIP3   OH261405   4.356   3.380  13.301 -0.0797  0.0892  0.0277
13305TIP3    H161406   4.279   3.369  13.357  0.0976 -0.2935  0.1975
13305TIP3    H261407   4.371   3.474  13.299 -2.2750  0.4954 -2.3126
13306TIP3   OH261408   6.513   2.339   2.798 -0.1732  0.2440  0.2599
13306TIP3    H161409   6.584   2.394   2.762 -0.1646  0.9890  1.3717
13306TIP3    H261410   6.559   2.272   2.848 -0.1951 -0.6462 -0.8759
13307TIP3   OH261411   6.356   1.209  12.254  0.1625  0.1644 -0.0596
13307TIP3    H161412   6.355   1.218  12.159 -2.0494 -2.3601 -0.4009
13307TIP3    H261413   6.426   1.146  12.272 -0.6605 -0.8479 -0.2762
13308TIP3   OH261414   0.105   4.017  14.372 -0.3758 -0.2238  0.4304
13308TIP3    H161415   0.132   4.057  14.454 -0.6136  0.7729  0.0443
13308TIP3    H261416   0.018   3.981  14.390 -0.5543  0.2552  0.5461
13309TIP3   OH261417   1.029   4.393   2.222  0.0027  0.0332  0.2029
13309TIP3    H161418   0.957   4.455   2.217 -1.8116 -1.9770  0.1356
13309TIP3    H261419   1.070   4.411   2.307 -0.1484  1.6165 -0.0282
13310TIP3   OH261420   0.375   2.724   3.407  0.1719  0.1656  0.6099
13310TIP3    H161421   0.371   2.805   3.458  0.1103 -1.6466  3.7669
13310TIP3    H261422   0.283   2.697   3.397  0.2804 -1.0958  2.5047
13311TIP3   OH261423   2.961   4.064   3.374 -0.0928  0.8001  0.1572
13311TIP3    H161424   2.948   4.050   3.280  0.5181 -1.9450  0.3767
13311TIP3    H261425   3.048   4.104   3.380 -0.0214  0.7539 -0.4324
13312TIP3   OH261426   5.964   6.627  13.190  0.1381  0.1361 -0.2091
13312TIP3    H161427   6.056   6.647  13.210  0.1484  0.1093 -0.2305
13312TIP3    H261428   5.961   6.532  13.183  0.5509  0.2214 -2.3429
13313TIP3   OH261429   0.334   0.044  11.481  0.2146  0.2614  0.0747
13313TIP3    H161430   0.322   0.033  11.387  1.4341 -0.9538  0.0306
13313TIP3    H261431   0.425   0.019  11.497  0.4647  1.8086  1.3867
13314TIP3   OH261432   6.431   5.107  14.001 -0.2000  0.4775  0.1506
13314TIP3    H161433   6.416   5.082  13.909  0.4300  1.1988 -0.1502
13314TIP3    H261434   6.523   5.130  14.005  1.1115 -4.0460  2.0117
13315TIP3   OH261435   5.390   1.115   2.656  0.1743  0.2275 -0.0123
13315TIP3    H161436   5.363   1.204   2.674 -4.2936 -0.8826 -0.1308
13315TIP3    H261437   5.348   1.093   2.573 -0.8618 -2.6506  1.1565
13316TIP3   OH261438   3.393   3.736  16.677  0.0096 -0.0410  0.1765
13316TIP3    H161439   3.487   3.737  16.697 -0.4629  0.5891  2.6146
13316TIP3    H261440   3.376   3.823  16.640  0.2556  0.1247  0.4462
13317TIP3   OH261441   3.787   4.423   1.961 -0.1179  0.3570 -0.3659
13317TIP3    H161442   3.726   4.416   1.888 -0.1828 -0.1917 -0.2568
13317TIP3    H261443   3.755   4.498   2.012  0.0792  0.9070 -1.0383
13318TIP3   OH261444   6.546   1.563  16.161  0.2161 -0.3108 -0.1880
13318TIP3    H161445   6.611   1.506  16.120 -0.4055  0.0735 -1.7815
13318TIP3    H261446   6.463   1.539  16.118 -0.2079  1.1194 -0.2006
13319TIP3   OH261447   2.832   3.957   4.040  0.2656 -0.2431 -0.3968
13319TIP3    H161448   2.815   3.865   4.022 -0.8478 -0.3917  1.1806
13319TIP3    H261449   2.829   4.000   3.955  0.5113 -1.6102 -1.1221
13320TIP3   OH261450   4.322   2.540   2.527  0.5467  0.3494  0.6257
13320TIP3    H161451   4.351   2.465   2.476 -0.4973  0.5735 -0.3408
13320TIP3    H261452   4.235   2.561   2.491  0.4155  1.4171  1.5207
13321TIP3   OH261453   5.674   5.222  11.310  0.0817  0.0863  0.6221
13321TIP3    H161454   5.642   5.279  11.240 -0.9070 -2.4879 -1.1688
13321TIP3    H261455   5.766   5.208  11.289  0.0686  0.2057  0.4807
13322TIP3   OH261456   1.539   0.931  11.646 -0.3230  0.3178  0.7357
13322TIP3    H161457   1.487   1.006  11.616 -0.8907 -0.0908  0.6720
13322TIP3    H261458   1.627   0.966  11.659 -0.8999  1.3531  2.1441
13323TIP3   OH261459   5.719   4.532  16.446  0.2342 -0.0010  0.4306
13323TIP3    H161460   5.636   4.565  16.414  1.6718  2.4838 -1.0155
13323TIP3    H261461   5.735   4.580  16.527  0.5681  0.0310  0.3497
13324TIP3   OH261462   0.271   4.804  16.183 -0.3543  0.1109  0.1705
13324TIP3    H161463   0.222   4.732  16.221 -1.2652  0.2884 -0.6083
13324TIP3    H261464   0.205   4.871  16.165  0.6149  1.5754  1.8289
13325TIP3   OH261465   0.747   2.560   6.156 -0.3546 -0.0121 -0.1470
13325TIP3    H161466   0.727   2.577   6.248 -1.3571  1.1421 -0.5491
13325TIP3    H261467   0.778   2.470   6.154  1.2216  0.4420  1.5359
13326TIP3   OH261468   5.121   4.373   3.052  0.7014  0.3477  0.1517
13326TIP3    H161469   5.141   4.455   3.096 -0.3034  1.2278 -0.9615
13326TIP3    H261470   5.037   4.389   3.009  0.7662 -1.0747 -0.5605
13327TIP3   OH261471   0.039   3.731  14.876 -0.0433  0.6451  0.0862
13327TIP3    H161472  -0.011   3.801  14.834  0.1262  1.3043  0.9615
13327TIP3    H261473   0.120   3.725  14.825 -1.2089 -0.8659 -1.7522
13328TIP3   OH261474   3.255   2.284  16.211  0.1098 -0.1456 -0.3133
13328TIP3    H161475   3.170   2.243  16.194  0.3253  0.1962 -2.5437
13328TIP3    H261476   3.276   2.261  16.301 -2.5398  0.1139  0.4439
13329TIP3   OH261477   1.598   6.771   6.493 -0.2629  0.1132  0.3868
13329TIP3    H161478   1.633   6.807   6.411 -2.3700  0.7801 -0.3045
13329TIP3    H261479   1.620   6.837   6.559 -1.6160  1.3546 -0.3460
13330TIP3   OH261480   0.871   1.274   0.924 -0.1525 -0.0300  0.0078
13330TIP3    H161481   0.890   1.265   1.017 -1.2801  1.3325  0.4105
13330TIP3    H261482   0.956   1.288   0.883  0.1938  1.3918  1.1315
13331TIP3   OH261483   4.513   5.201   5.567 -0.4110  0.1736  0.3478
13331TIP3    H161484   4.454   5.183   5.641 -0.6490 -0.9260 -0.0869
13331TIP3    H261485   4.461   5.179   5.489  0.4592 -0.5310 -0.0559
13332TIP3   OH261486   1.813   2.745  13.779  0.2922  0.6258  0.3262
13332TIP3    H161487   1.718   2.755  13.775  0.1700 -0.4253  0.2192
13332TIP3    H261488   1.826   2.651  13.792  1.3058  0.8248  0.8210
13333TIP3   OH261489   3.761   1.237  15.287  0.0759  0.2684 -0.2810
13333TIP3    H161490   3.808   1.286  15.219  1.7010  0.5700  0.9954
13333TIP3    H261491   3.713   1.304  15.336 -1.0321  0.0603 -1.0521
13334TIP3   OH261492   0.468   4.672  16.373  0.9636 -0.2325 -0.1289
13334TIP3    H161493   0.419   4.718  16.305  2.5105  0.7632 -0.6472
13334TIP3    H261494   0.535   4.623  16.325  1.9357  0.2996  0.6357
13335TIP3   OH261495   6.018   3.880   2.261 -0.2910  0.3999  0.6603
13335TIP3    H161496   6.075   3.952   2.234  0.9370 -1.3159 -1.6492
13335TIP3    H261497   6.052   3.804   2.214 -0.7965 -1.9949  3.9043
13336TIP3   OH261498   6.527   5.502  12.054 -0.6112  0.5010  0.3697
13336TIP3    H161499   6.581   5.504  11.975  0.6112 -2.8294  0.9657
13336TIP3    H261500   6.439   5.523  12.023 -0.0039  0.1586 -1.7325
13337TIP3   OH261501   1.761   1.637  16.586  0.2593  0.4327  0.2555
13337TIP3    H161502   1.820   1.688  16.641 -0.2407  0.8844  0.3889
13337TIP3    H261503   1.768   1.677  16.499 -0.6374  1.1916  0.5090
13338TIP3   OH261504   4.713   0.422  15.134 -0.8592 -0.2747  0.0773
13338TIP3    H161505   4.699   0.477  15.057  0.6730 -0.0214 -0.0496
13338TIP3    H261506   4.700   0.480  15.208 -2.3266 -0.5158  0.0338
13339TIP3   OH261507   2.346   0.523   2.973 -1.4634 -0.0610  0.4796
13339TIP3    H161508   2.303   0.557   2.895 -2.2399  2.0075  1.7121
13339TIP3    H261509   2.289   0.452   3.004 -2.0849  0.2674  0.1075
13340TIP3   OH261510   2.254   4.620  13.801 -0.2988 -0.2771  0.3968
13340TIP3    H161511   2.324   4.668  13.846 -1.8700  2.4880  0.1418
13340TIP3    H261512   2.289   4.603  13.714 -0.2610  2.2262 -0.1778
13341TIP3   OH261513   2.225   5.638   1.895  0.0431  0.2789  0.1432
13341TIP3    H161514   2.292   5.615   1.960  0.4797 -0.2125 -0.4634
13341TIP3    H261515   2.224   5.733   1.895  0.4459  0.2872  0.4695
13342TIP3   OH261516   5.934   5.009   0.009 -0.4779 -0.1434  0.1500
13342TIP3    H161517   5.986   4.948  -0.043  1.7772  1.0223  0.9501
13342TIP3    H261518   5.850   4.963   0.022  0.5108 -2.3282 -0.6647
13343TIP3   OH261519   1.404   5.384   5.022  0.2082  0.0316 -0.3049
13343TIP3    H161520   1.392   5.307   4.967  0.0032  0.1565 -0.4364
13343TIP3    H261521   1.444   5.448   4.963 -0.4280  0.3182 -0.4330
13344TIP3   OH261522   0.927   6.685   4.825 -0.0647  0.2155 -0.4381
13344TIP3    H161523   0.837   6.712   4.844 -0.8308 -1.4366 -1.4965
13344TIP3    H261524   0.955   6.638   4.903 -0.7795 -0.7718 -0.7515
13345TIP3   OH261525   3.726   4.894  16.895 -0.0136 -0.2764  0.0640
13345TIP3    H161526   3.740   4.962  16.961 -0.7756  0.9173 -0.9496
13345TIP3    H261527   3.767   4.928  16.816 -1.6861 -0.2776 -0.8497
13346TIP3   OH261528   1.096   3.116  11.609 -0.2088 -0.6004  0.4940
13346TIP3    H161529   1.065   3.025  11.605 -0.1564 -0.7474  2.4213
13346TIP3    H261530   1.019   3.168  11.585 -0.8477 -1.1042  1.3716
13347TIP3   OH261531   4.087   6.770   1.479  0.3293 -0.2878  0.0907
13347TIP3    H161532   4.014   6.739   1.425 -0.4000  0.1756  0.7855
13347TIP3    H261533   4.162   6.718   1.449 -0.3121 -0.8984 -0.5214
13348TIP3   OH261534   4.142   6.789  14.316  0.4445 -0.4761  0.4235
13348TIP3    H161535   4.203   6.860  14.295  2.1632 -1.8930  0.3775
13348TIP3    H261536   4.061   6.813  14.271  1.5107  0.6203 -1.0097
13349TIP3   OH261537   3.460   2.475  11.018 -0.0324  0.1244  0.6864
13349TIP3    H161538   3.402   2.411  10.976 -0.2786  0.0716  1.1028
13349TIP3    H261539   3.436   2.472  11.111  1.3428 -0.6512  1.0412
13350TIP3   OH261540   6.688   4.784  16.824  0.1019  0.6131 -0.4230
13350TIP3    H161541   6.703   4.738  16.906 -0.9488 -0.7626 -0.9732
13350TIP3    H261542   6.747   4.742  16.761  0.6688  1.4426 -0.4606
13351TIP3   OH261543   4.168   4.524  15.842 -0.0416 -0.3213 -0.5703
13351TIP3    H161544   4.185   4.526  15.936  1.5023  0.9037 -0.8244
13351TIP3    H261545   4.095   4.463  15.832  0.2571 -1.0695  1.3284
13352TIP3   OH261546   2.253   1.158   1.539 -0.1173 -0.7859  0.4370
13352TIP3    H161547   2.274   1.227   1.476  0.6121 -1.6712 -0.3448
13352TIP3    H261548   2.300   1.182   1.618  0.3164 -0.4996  0.0984
13353TIP3   OH261549   1.478   6.316  10.739  0.2644 -0.7517  0.0955
13353TIP3    H161550   1.443   6.251  10.678  1.3387 -1.0693 -0.2018
13353TIP3    H261551   1.532   6.266  10.800 -0.7061 -0.4171  1.2625
13354TIP3   OH261552   3.348   5.022  13.250 -0.0683  0.3408  0.6044
13354TIP3    H161553   3.266   5.053  13.213  0.7930  0.7990 -1.0451
13354TIP3    H261554   3.331   4.932  13.277 -0.9165  0.1638 -0.4562
13355TIP3   OH261555   1.722   6.360  11.344 -0.0754  0.8741 -0.5851
13355TIP3    H161556   1.677   6.302  11.282 -0.5827  0.5486  0.0767
13355TIP3    H261557   1.714   6.447  11.305  0.2445  0.5764 -1.3333
13356TIP3   OH261558   3.893   0.398   6.815  0.4374 -0.1507  0.2813
13356TIP3    H161559   3.878   0.467   6.880  0.0474 -1.2208  1.3553
13356TIP3    H261560   3.857   0.434   6.734 -1.0707  0.3657  1.1398
13357TIP3   OH261561   2.507   2.049  12.487 -0.2039  0.4845  0.2357
13357TIP3    H161562   2.588   2.053  12.538 -0.9690  0.2435  1.5071
13357TIP3    H261563   2.523   1.982  12.421  0.4553  0.0782  0.7972
13358TIP3   OH261564   1.037   1.727   6.146  0.1880  0.2304  0.2649
13358TIP3    H161565   0.957   1.767   6.181 -0.4237  0.2866 -1.1460
13358TIP3    H261566   1.096   1.723   6.221 -0.8833  0.8391  1.1742
13359TIP3   OH261567   4.041   1.410  16.295 -0.0044  0.7169 -0.3199
13359TIP3    H161568   4.008   1.497  16.316 -0.8449  0.3546 -0.0971
13359TIP3    H261569   4.112   1.396  16.357 -0.5084  0.8538  0.3008
13360TIP3   OH261570   4.646   3.803  14.573 -0.4994 -0.6862  0.3196
13360TIP3    H161571   4.659   3.839  14.661  0.7753  0.1376 -0.1661
13360TIP3    H261572   4.721   3.836  14.523 -1.3629 -0.8736 -1.1560
13361TIP3   OH261573   2.528   0.980  12.784  0.1806  0.3488  0.6433
13361TIP3    H161574   2.492   0.912  12.842 -1.5659 -0.3918 -1.1741
13361TIP3    H261575   2.604   1.014  12.830 -0.2570 -1.2459  2.6601
13362TIP3   OH261576   1.987   2.859   1.434  0.2254 -0.5001  0.0752
13362TIP3    H161577   2.082   2.849   1.440  0.2028 -2.2474 -1.5673
13362TIP3    H261578   1.965   2.830   1.346 -1.7675  0.6666  0.1244
13363TIP3   OH261579   4.593   2.868  15.270  0.2740  0.1716 -0.0945
13363TIP3    H161580   4.606   2.776  15.247  2.6872  0.4594 -0.1854
13363TIP3    H261581   4.638   2.878  15.354  0.1071  1.2778 -0.1148
13364TIP3   OH261582   6.193   4.768  11.254  0.3009 -0.2692 -0.0902
13364TIP3    H161583   6.253   4.792  11.183 -0.4406  0.5501 -0.4603
13364TIP3    H261584   6.137   4.844  11.265 -1.0429 -1.2123 -0.1437
13365TIP3   OH261585   2.067   2.298  12.679 -0.4490  0.0751  0.2819
13365TIP3    H161586   2.151   2.319  12.640 -0.5829 -0.8475 -0.5614
13365TIP3    H261587   2.072   2.204  12.698 -1.6540 -0.2358 -0.7826
13366TIP3   OH261588   0.168   1.693  12.707 -0.4854  0.4616 -0.6609
13366TIP3    H161589   0.157   1.607  12.667  0.5608  0.2847 -0.6203
13366TIP3    H261590   0.220   1.742  12.644 -0.3776  0.7856 -0.3254
13367TIP3   OH261591   6.565   1.846   1.116 -0.3933  0.2339  0.1562
13367TIP3    H161592   6.604   1.916   1.168 -1.6920 -1.1884  3.3098
13367TIP3    H261593   6.474   1.873   1.103 -0.5242 -0.2201  0.1152
13368TIP3   OH261594   1.911   3.975   5.992  0.1524 -0.2808  0.7276
13368TIP3    H161595   1.929   3.884   5.970 -2.7964 -0.8711  0.2798
13368TIP3    H261596   1.949   3.987   6.079  3.8225 -0.7388 -0.6644
13369TIP3   OH261597   2.430   2.498   1.040  0.0001 -0.0418 -0.3885
13369TIP3    H161598   2.467   2.570   0.989 -0.2216  0.1638 -0.2576
13369TIP3    H261599   2.365   2.459   0.982 -1.2922  1.0876  0.2423
13370TIP3   OH261600   1.971   3.093   3.116 -0.6247 -0.4793  0.4040
13370TIP3    H161601   2.021   3.135   3.046 -1.9913  1.3147  0.4354
13370TIP3    H261602   1.982   2.999   3.101 -0.1558 -0.1304 -1.6755
13371TIP3   OH261603   3.608   2.267   1.919  0.3254  0.4789  0.8461
13371TIP3    H161604   3.644   2.350   1.889  0.0873  0.2999  0.0509
13371TIP3    H261605   3.607   2.211   1.842 -2.4475  0.7593  0.5677
13372TIP3   OH261606   2.261   3.548  13.616 -1.0817 -0.6388 -0.2228
13372TIP3    H161607   2.319   3.474  13.634 -0.1172  0.1580  0.0464
13372TIP3    H261608   2.189   3.538  13.677 -1.6352 -2.0592 -1.0629
13373TIP3   OH261609   2.430   6.689  14.762  0.2243  0.0066  0.3485
13373TIP3    H161610   2.340   6.681  14.731 -0.0282 -0.9178  1.2623
13373TIP3    H261611   2.425   6.754  14.832 -0.2062 -1.7380  2.0137
13374TIP3   OH261612   6.336   6.752  15.858  0.6305  0.5181 -0.6250
13374TIP3    H161613   6.281   6.771  15.934  0.9711  2.9197 -0.9158
13374TIP3    H261614   6.378   6.669  15.880 -1.8508 -0.6105  0.2825
13375TIP3   OH261615   1.357   4.090   3.226  0.0191 -0.2894  0.1068
13375TIP3    H161616   1.367   4.038   3.305  3.2984  0.6691  0.4843
13375TIP3    H261617   1.360   4.181   3.256 -0.3359  0.1062 -0.9840
13376TIP3   OH261618   2.364   3.064  14.194 -0.0377  0.2004  0.1202
13376TIP3    H161619   2.365   3.110  14.278 -0.0456  1.6531 -0.6331
13376TIP3    H261620   2.278   3.083  14.157 -0.1870 -0.7720 -0.0335
13377TIP3   OH261621   5.508   1.235  15.928  0.4563  0.3483  0.0386
13377TIP3    H161622   5.565   1.164  15.957 -1.1462 -1.2973 -0.5928
13377TIP3    H261623   5.479   1.208  15.841 -2.9910 -0.1041  1.1592
13378TIP3   OH261624   1.523   0.261  12.530  0.3011  0.5547 -0.1727
13378TIP3    H161625   1.504   0.244  12.622  1.5351 -1.1487 -0.1907
13378TIP3    H261626   1.545   0.355  12.528 -1.0054  0.9246  1.0103
13379TIP3   OH261627   3.702   3.526  12.616  0.1570  0.1420  0.2259
13379TIP3    H161628   3.721   3.442  12.573  0.1620 -0.0008  0.5051
13379TIP3    H261629   3.787   3.570  12.619 -0.1755  1.0082 -1.7007
13380TIP3   OH261630   2.418   3.229   5.956  0.2366  0.0282 -0.2857
13380TIP3    H161631   2.377   3.269   5.879 -0.4368 -1.0893 -0.5376
13380TIP3    H261632   2.506   3.267   5.959 -0.0611  0.8025 -1.0464
13381TIP3   OH261633   4.311   0.805   3.913  0.5656 -0.4703  0.1102
13381TIP3    H161634   4.291   0.792   4.006 -0.7610 -0.4874 -0.1492
13381TIP3    H261635   4.385   0.865   3.913 -0.8434  1.4079  1.1923
13382TIP3   OH261636   4.447   4.713   3.299  0.1548  0.2690  0.0962
13382TIP3    H161637   4.401   4.794   3.322 -0.4983  0.0118 -0.2766
13382TIP3    H261638   4.399   4.645   3.347 -0.8589 -0.2037 -1.5002
13383TIP3   OH261639   4.730   2.097   6.022  0.0367  0.2950 -0.0946
13383TIP3    H161640   4.710   2.171   6.079  2.4643  0.0544  1.2200
13383TIP3    H261641   4.812   2.123   5.978  1.8549 -2.1365  1.5947
13384TIP3   OH261642   2.750   5.537  11.586 -0.3487 -0.4143 -0.2240
13384TIP3    H161643   2.747   5.613  11.528 -0.7450 -1.4949 -1.6634
13384TIP3    H261644   2.839   5.504  11.577  0.0428  0.2673  0.9519
13385TIP3   OH261645   1.811   3.118  12.499 -0.0962  0.4658  0.6833
13385TIP3    H161646   1.738   3.074  12.542 -0.0297  1.1100  1.4790
13385TIP3    H261647   1.883   3.111  12.561  0.6642 -0.5349 -0.2681
13386TIP3   OH261648   1.297   2.636  12.771  0.4580  0.2238  0.0611
13386TIP3    H161649   1.214   2.684  12.778  0.6815  0.6618 -0.2176
13386TIP3    H261650   1.360   2.703  12.743  1.0439  0.0351  0.8990
13387TIP3   OH261651   3.179   4.257   1.972 -0.4692  0.6459 -0.8810
13387TIP3    H161652   3.259   4.267   1.920  1.5574 -3.4173  1.0177
13387TIP3    H261653   3.199   4.300   2.055 -0.3144 -0.1429 -0.5012
13388TIP3   OH261654   0.479   6.702   2.353 -0.8001 -0.2716  0.4064
13388TIP3    H161655   0.546   6.685   2.288 -2.0885 -0.0888 -1.0283
13388TIP3    H261656   0.507   6.784   2.395 -1.1107  0.9239 -1.5849
13389TIP3   OH261657   2.398   0.372  14.777  0.0173  0.4799 -0.0035
13389TIP3    H161658   2.431   0.320  14.851  1.3418 -0.6717 -1.3508
13389TIP3    H261659   2.315   0.330  14.753  0.5665 -0.3928 -0.4164
13390TIP3   OH261660   2.269   0.548   4.731  0.1374  0.3835  0.1549
13390TIP3    H161661   2.238   0.469   4.687 -1.7484 -0.0702  2.1289
13390TIP3    H261662   2.237   0.620   4.677  0.9839 -0.1426 -1.1076
13391TIP3   OH261663   4.215   3.193  13.007 -0.4543 -0.1817  0.5673
13391TIP3    H161664   4.134   3.191  12.956 -1.5130  1.9370  1.9993
13391TIP3    H261665   4.264   3.267  12.970  0.1298 -0.4959  0.7080
13392TIP3   OH261666   3.883   0.011   4.657  0.1131 -0.6775  0.0988
13392TIP3    H161667   3.863  -0.082   4.646 -1.6284 -0.6827  2.5291
13392TIP3    H261668   3.966   0.012   4.705  0.0657 -0.9957  0.1907
13393TIP3   OH261669   1.485   4.213  14.573  0.3236  0.1896  0.2666
13393TIP3    H161670   1.541   4.148  14.530 -1.4601 -1.6214  0.5315
13393TIP3    H261671   1.533   4.295  14.564  1.1507 -0.5068 -3.0838
13394TIP3   OH261672   6.058   5.561  16.545 -0.1600 -0.0178  0.1959
13394TIP3    H161673   6.003   5.592  16.617  2.0161 -1.8021  2.8315
13394TIP3    H261674   6.016   5.481  16.515 -2.0134  1.6028 -1.8736
13395TIP3   OH261675   0.345   3.924   0.972 -0.2876  0.0309 -0.2673
13395TIP3    H161676   0.259   3.886   0.986 -1.6230  2.1315 -2.1158
13395TIP3    H261677   0.341   3.961   0.884  2.2475  0.8834 -0.1108
13396TIP3   OH261678   2.185   3.564  14.530 -0.4536  1.0676 -0.3195
13396TIP3    H161679   2.209   3.627  14.462 -0.0569 -0.0798 -1.2839
13396TIP3    H261680   2.123   3.504  14.486 -0.6025  0.6238  0.4781
13397TIP3   OH261681   6.410   0.631  17.158 -0.6215 -0.4173 -0.3288
13397TIP3    H161682   6.481   0.688  17.128 -0.1030 -0.6195  0.5071
13397TIP3    H261683   6.417   0.553  17.102  0.5316 -0.9237  0.4793
13398TIP3   OH261684   4.119   0.499  16.225  0.2346  0.1250  0.2389
13398TIP3    H161685   4.124   0.459  16.138 -1.7834  0.7047 -0.1878
13398TIP3    H261686   4.050   0.451  16.270 -0.1371  1.1314  0.7841
13399TIP3   OH261687   0.620   2.575  12.225  0.8132  0.1484  0.1159
13399TIP3    H161688   0.566   2.502  12.254  0.3136 -0.0366 -1.2121
13399TIP3    H261689   0.669   2.540  12.150 -0.4395  1.5360 -1.4065
13400TIP3   OH261690   0.400   3.545  14.924 -0.0790  0.1621 -0.0740
13400TIP3    H161691   0.464   3.601  14.881 -0.1893 -1.1583 -2.0866
13400TIP3    H261692   0.331   3.532  14.858 -0.8140 -1.0495  0.8888
13401TIP3   OH261693   0.991   4.487  15.563  0.2506 -0.2760  0.0489
13401TIP3    H161694   1.052   4.417  15.587  0.7562 -0.2502 -1.0794
13401TIP3    H261695   0.907   4.442  15.549  0.4355 -0.5734 -0.1134
13402TIP3   OH261696   5.726   3.357  12.546  0.2168  0.2143 -0.0877
13402TIP3    H161697   5.756   3.394  12.630  0.3295  0.8021 -0.3842
13402TIP3    H261698   5.765   3.414  12.480 -0.7817  0.4270 -0.5126
13403TIP3   OH261699   2.805   6.165   2.725  0.4456 -1.3766 -0.6960
13403TIP3    H161700   2.785   6.233   2.661  2.4327 -2.7668 -2.9389
13403TIP3    H261701   2.719   6.131   2.751 -0.4802  0.4669 -1.1868
13404TIP3   OH261702   1.830   2.472  13.780  0.6279 -0.1026 -0.1173
13404TIP3    H161703   1.849   2.410  13.709  2.3107 -0.1488  0.3173
13404TIP3    H261704   1.775   2.424  13.841 -1.0089 -0.0056 -1.4553
13405TIP3   OH261705   4.904   1.725   3.141 -0.3292 -0.0418  0.2880
13405TIP3    H161706   4.945   1.693   3.221 -0.7783  0.1390  0.5947
13405TIP3    H261707   4.810   1.722   3.159 -0.4869 -0.8737 -0.5630
13406TIP3   OH261708   0.506   0.068  12.734  0.1770  0.4523 -0.4252
13406TIP3    H161709   0.438   0.077  12.667 -0.1607  0.9591 -0.0268
13406TIP3    H261710   0.533  -0.024  12.728 -1.4537 -0.1131  0.2517
13407TIP3   OH261711   1.709   3.608  13.380  0.5837  0.0935 -0.3885
13407TIP3    H161712   1.687   3.684  13.433 -2.1794  0.2311 -1.5952
13407TIP3    H261713   1.774   3.640  13.317  0.9734  0.8908  0.4010
13408TIP3   OH261714   0.301   6.474   2.350 -0.4011 -0.4817  0.7207
13408TIP3    H161715   0.231   6.475   2.284 -1.1152 -0.9697  1.4486
13408TIP3    H261716   0.367   6.534   2.316  0.3541 -2.4360 -1.6116
13409TIP3   OH261717   1.321   3.886  14.450 -0.8766  0.2729  0.0983
13409TIP3    H161718   1.343   3.924  14.365 -0.4583  2.2154  1.0138
13409TIP3    H261719   1.255   3.820  14.431  0.6127 -0.7421 -1.9442
13410TIP3   OH261720   4.575   1.380  15.116 -0.0667 -0.0944 -0.0471
13410TIP3    H161721   4.502   1.358  15.174 -0.2968  0.4417 -0.1277
13410TIP3    H261722   4.653   1.366  15.170 -0.2973  0.8153  0.5350
13411TIP3   OH261723   0.870   5.355   0.042  0.3610  0.1649  0.5162
13411TIP3    H161724   0.873   5.336   0.135 -0.6208  1.1672  0.7693
13411TIP3    H261725   0.831   5.276   0.002 -2.4506  0.9834  1.3898
13412TIP3   OH261726   4.700   3.665  15.003 -0.2332  0.1454 -0.5469
13412TIP3    H161727   4.662   3.670  15.091  2.0056 -0.6581  0.5732
13412TIP3    H261728   4.660   3.587  14.964 -0.3410 -0.2242  0.2696
13413TIP3   OH261729   5.004   5.474   5.799  0.0302 -0.1099  0.1849
13413TIP3    H161730   4.968   5.453   5.713 -1.8829  0.4106  0.7933
13413TIP3    H261731   4.964   5.410   5.858 -1.8039  1.8902  1.2495
13414TIP3   OH261732   1.288   1.117  12.732 -0.1804 -0.1691 -0.6207
13414TIP3    H161733   1.193   1.113  12.723 -0.2352 -0.1541 -0.0660
13414TIP3    H261734   1.319   1.147  12.646 -0.5138 -2.3802 -1.5845
13415TIP3   OH261735   2.719   4.636  12.462 -0.3316 -0.2428  0.1667
13415TIP3    H161736   2.683   4.588  12.388  0.2265  0.1656 -0.3830
13415TIP3    H261737   2.643   4.666  12.512 -0.7376  0.1519 -0.6802
13416TIP3   OH261738   4.148   6.192   2.787 -1.0064 -0.2875  0.2934
13416TIP3    H161739   4.096   6.272   2.796 -0.5008  0.0317  0.4183
13416TIP3    H261740   4.157   6.160   2.877 -1.4919 -0.6662  0.2064
13417TIP3   OH261741   4.781   4.253   5.691  0.7734 -0.1178 -0.3652
13417TIP3    H161742   4.827   4.205   5.760  1.7894  3.1717  1.4637
13417TIP3    H261743   4.848   4.269   5.624  0.7460 -0.2640 -0.4269
13418TIP3   OH261744   2.259   5.146  13.928  0.6183 -0.4514 -0.7544
13418TIP3    H161745   2.314   5.177  13.999  0.0471 -0.6461 -0.2209
13418TIP3    H261746   2.242   5.225  13.876 -0.0534 -0.0343  0.0717
13419TIP3   OH261747   6.433   1.460  11.655 -0.1054 -0.1614  0.1907
13419TIP3    H161748   6.418   1.518  11.730  1.7330  0.3693  0.1976
13419TIP3    H261749   6.479   1.385  11.691 -0.0636 -0.3502 -0.2448
13420TIP3   OH261750   1.833   0.241   1.744 -0.1869 -0.1979 -0.3027
13420TIP3    H161751   1.871   0.171   1.797 -0.8043 -0.2000  0.1463
13420TIP3    H261752   1.806   0.307   1.808  0.2196  0.3751 -0.7061
13421TIP3   OH261753   3.469   0.225  16.323  0.2558 -0.5450  0.0970
13421TIP3    H161754   3.479   0.166  16.398 -0.9329 -2.1735 -0.9658
13421TIP3    H261755   3.376   0.248  16.322  0.1316 -1.0366 -1.2225
13422TIP3   OH261756   2.495   1.849   2.887 -0.4442  0.7137  0.1690
13422TIP3    H161757   2.498   1.874   2.980  1.9459  0.4634  0.2192
13422TIP3    H261758   2.477   1.755   2.889  0.5946  0.5038  0.4618
13423TIP3   OH261759   6.049   5.302  13.709  0.2389 -0.0087  0.2166
13423TIP3    H161760   6.083   5.276  13.794 -1.6673  1.5521  1.5696
13423TIP3    H261761   5.954   5.307  13.722  0.0984  3.5629 -0.9149
13424TIP3   OH261762   6.256   6.439  13.201 -0.4307  0.5434  0.6142
13424TIP3    H161763   6.342   6.396  13.202  0.5389  2.3004 -1.2156
13424TIP3    H261764   6.274   6.530  13.223 -1.7790  1.0061 -0.1077
13425TIP3   OH261765   1.011   3.114  16.604  0.0310  0.6391 -0.3029
13425TIP3    H161766   1.101   3.118  16.570  1.0170 -1.1007  1.8225
13425TIP3    H261767   0.960   3.075  16.534  0.9904  1.3150 -1.4172
13426TIP3   OH261768   0.074   6.527  14.006  0.3984 -0.4078 -0.1144
13426TIP3    H161769   0.087   6.510  13.913  0.8610 -1.7382  0.1632
13426TIP3    H261770  -0.001   6.473  14.030 -0.7218  1.1452 -0.0318
13427TIP3   OH261771   3.698   2.702  13.750 -0.4218 -0.3720 -0.5423
13427TIP3    H161772   3.718   2.783  13.796 -0.6307 -0.1824 -0.7834
13427TIP3    H261773   3.732   2.715  13.661  1.9436 -1.5595  0.1087
13428TIP3   OH261774   3.419   3.628  12.624 -0.1051  0.3932 -0.4163
13428TIP3    H161775   3.513   3.615  12.636 -0.3215 -1.3128 -0.3911
13428TIP3    H261776   3.407   3.624  12.529 -0.6366 -3.6574 -0.3235
13429TIP3   OH261777   2.063   4.434   5.136 -0.1875  0.7034  0.3153
13429TIP3    H161778   2.073   4.520   5.177 -1.3751  0.3934  1.3150
13429TIP3    H261779   2.014   4.383   5.200  1.8147 -1.2309  0.4280
13430TIP3   OH261780   4.060   4.717  12.231  0.5026  0.0359  0.2284
13430TIP3    H161781   4.097   4.629  12.224  0.0749 -0.1139 -0.2291
13430TIP3    H261782   4.129   4.769  12.272  1.2581 -0.2047 -0.6930
13431TIP3   OH261783   5.624   6.370  12.990  0.3760 -0.4297  0.5716
13431TIP3    H161784   5.635   6.434  12.920 -0.3504 -0.3238  0.5503
13431TIP3    H261785   5.713   6.336  13.005  0.7127  0.3461  0.3730
13432TIP3   OH261786   3.103   1.729   6.004  0.3443  0.8854  0.2568
13432TIP3    H161787   3.074   1.759   5.918  1.0693  0.6567 -0.0815
13432TIP3    H261788   3.026   1.689   6.044  0.0793  0.7196 -0.4131
13433TIP3   OH261789   5.941   5.615  16.792 -0.8264  0.0722 -0.2553
13433TIP3    H161790   6.005   5.587  16.858  0.3378  2.6851 -0.1823
13433TIP3    H261791   5.867   5.555  16.805  0.0839 -0.6626  2.1976
13434TIP3   OH261792   6.817   1.228   4.007  0.0896  0.5879 -1.1914
13434TIP3    H161793   6.885   1.165   3.983  0.2821 -0.4092  1.6203
13434TIP3    H261794   6.748   1.215   3.942  0.3363 -2.2333 -0.9983
13435TIP3   OH261795   4.347   5.941  16.367 -0.1189 -0.4973  0.5278
13435TIP3    H161796   4.360   5.986  16.284 -1.8360 -1.3359 -0.2389
13435TIP3    H261797   4.390   5.856  16.355 -0.4160 -0.6405  0.4780
13436TIP3   OH261798   3.741   1.071   2.416 -0.1506 -0.3784  0.4810
13436TIP3    H161799   3.762   1.138   2.481  1.3110 -1.1993  0.8870
13436TIP3    H261800   3.751   1.115   2.332  0.3935  0.0246  0.7540
13437TIP3   OH261801   3.786   5.336   5.487  0.4807 -0.1730 -0.6398
13437TIP3    H161802   3.713   5.305   5.540 -0.2954  1.4070 -0.7403
13437TIP3    H261803   3.862   5.331   5.545 -0.2945  1.1818  0.5434
13438TIP3   OH261804   5.287   1.256  16.866  0.0274  0.4993 -0.4691
13438TIP3    H161805   5.313   1.164  16.872 -1.4731  0.0762 -0.0595
13438TIP3    H261806   5.332   1.299  16.939 -0.4621 -0.2086  0.2562
13439TIP3   OH261807   6.265   4.878   3.219  0.2524 -0.4345  0.0965
13439TIP3    H161808   6.186   4.871   3.166  0.4282 -0.1360 -0.2073
13439TIP3    H261809   6.308   4.793   3.209 -0.8785 -1.2376  1.6388
13440TIP3   OH261810   3.292   3.262   3.992 -0.3323  0.1109  0.2000
13440TIP3    H161811   3.359   3.318   4.032 -0.9858  1.1599 -0.1257
13440TIP3    H261812   3.338   3.212   3.926  0.3607 -0.0933  0.8211
13441TIP3   OH261813   0.037   5.548   5.193 -0.3080  0.7670  0.0582
13441TIP3    H161814   0.063   5.557   5.285  0.8022  0.7253 -0.2391
13441TIP3    H261815   0.119   5.530   5.146 -1.1704 -1.8583 -0.6051
13442TIP3   OH261816   0.968   6.718   1.197 -0.0287  0.1364 -0.0727
13442TIP3    H161817   1.005   6.645   1.247 -1.1649  0.8547  1.9754
13442TIP3    H261818   1.030   6.733   1.126  0.6543 -2.2707 -0.0915
13443TIP3   OH261819   4.719   4.437  11.792  0.0342 -0.2732 -0.9695
13443TIP3    H161820   4.703   4.525  11.827 -0.6620 -0.0616 -1.7794
13443TIP3    H261821   4.713   4.448  11.697  0.2879 -1.1307 -1.0889
13444TIP3   OH261822   3.428   1.193  15.570  0.2641  0.4027  0.0910
13444TIP3    H161823   3.446   1.105  15.602  1.8660 -0.2979 -2.4239
13444TIP3    H261824   3.414   1.245  15.650  2.1147 -1.5239  1.8068
13445TIP3   OH261825   3.998   3.988  15.122 -0.0482  0.3301 -0.1818
13445TIP3    H161826   3.971   4.018  15.209  1.9526  1.3824  0.1432
13445TIP3    H261827   3.959   3.901  15.113 -0.8342  0.4764  1.4875
13446TIP3   OH261828   3.240   2.469  15.945 -0.1626 -0.7880  0.2241
13446TIP3    H161829   3.283   2.424  16.018  1.2729 -1.0819 -0.7480
13446TIP3    H261830   3.198   2.545  15.985  3.2486  0.8686  1.0102
13447TIP3   OH261831   3.474   1.545   1.618 -0.3715  0.0921 -0.5435
13447TIP3    H161832   3.443   1.460   1.588 -1.4043  0.5712 -0.8712
13447TIP3    H261833   3.426   1.609   1.565 -0.5245  0.9103  0.5442
13448TIP3   OH261834   2.197   0.157   5.372  0.4150 -0.1895 -0.2019
13448TIP3    H161835   2.258   0.231   5.368  0.7961 -0.5682 -2.0338
13448TIP3    H261836   2.113   0.196   5.397  0.2638  1.1321 -2.5488
13449TIP3   OH261837   5.719   0.499   2.015  0.0288  0.2118  0.7703
13449TIP3    H161838   5.659   0.508   2.088  0.3643  1.8688  0.8718
13449TIP3    H261839   5.666   0.514   1.937  0.3818  2.5526  0.8923
13450TIP3   OH261840   2.762   2.221   1.797 -0.4076  0.0357  0.4296
13450TIP3    H161841   2.849   2.209   1.835 -0.2718  1.9099  0.8290
13450TIP3    H261842   2.703   2.175   1.857  0.3590 -2.1463 -0.4021
13451TIP3   OH261843   1.834   0.210   5.702 -0.2559 -0.7693  0.5293
13451TIP3    H161844   1.748   0.172   5.683 -0.6790  0.5891 -0.4172
13451TIP3    H261845   1.814   0.292   5.749  0.4587 -0.0000 -0.4686
13452TIP3   OH261846   6.191   5.679  13.107 -0.4438  0.1640  0.2858
13452TIP3    H161847   6.121   5.720  13.157 -0.1063  1.8987 -0.6038
13452TIP3    H261848   6.225   5.610  13.165 -0.9340  1.2425  1.9054
13453TIP3   OH261849   0.316   4.110   2.459  0.0620  0.6369  0.1940
13453TIP3    H161850   0.388   4.086   2.401  1.7642  1.1642  1.9906
13453TIP3    H261851   0.243   4.130   2.400  0.6870 -1.9465 -1.6312
13454TIP3   OH261852   6.131   2.043   5.350  0.4764  0.2421 -0.0066
13454TIP3    H161853   6.204   2.082   5.302  1.0278  0.2259  0.7815
13454TIP3    H261854   6.068   2.114   5.362  0.5351  0.3547 -0.3695
13455TIP3   OH261855   3.860   1.157  11.982  0.1146  0.4170  0.4819
13455TIP3    H161856   3.771   1.158  12.016  0.3990  0.2443  1.2507
13455TIP3    H261857   3.850   1.133  11.890 -0.5447 -0.6685  0.8221
13456TIP3   OH261858   1.789   5.744  14.495  0.0781  0.4698 -0.5754
13456TIP3    H161859   1.865   5.695  14.465  1.0416  2.9879 -2.5725
13456TIP3    H261860   1.749   5.779  14.416 -0.8650  2.4362  0.6772
13457TIP3   OH261861   5.108   0.212   3.863  0.1640 -0.1919  0.1196
13457TIP3    H161862   5.025   0.185   3.825  0.0680 -0.8692  0.8027
13457TIP3    H261863   5.131   0.142   3.924  0.8777  0.3384  0.4730
13458TIP3   OH261864   0.883   0.305  15.261  0.5781  0.4224  0.4082
13458TIP3    H161865   0.810   0.279  15.317 -0.4818  0.1842 -1.0143
13458TIP3    H261866   0.960   0.271  15.305 -0.1470  0.7433  2.0007
13459TIP3   OH261867   2.909   5.564   4.149  0.2131  0.1732  0.2843
13459TIP3    H161868   2.989   5.511   4.137  0.2375 -0.4313  2.6902
13459TIP3    H261869   2.916   5.631   4.081  1.6986 -1.1052 -0.9406
13460TIP3   OH261870   2.521   3.849   1.930 -0.5647  0.3695  0.0307
13460TIP3    H161871   2.537   3.897   2.012 -0.1542  0.5987 -0.1798
13460TIP3    H261872   2.577   3.772   1.936  1.4531  1.6442 -1.1203
13461TIP3   OH261873   1.934   4.736   4.201 -0.2611  0.3461 -0.2134
13461TIP3    H161874   1.992   4.675   4.155 -0.1461  0.5342 -0.3234
13461TIP3    H261875   1.994   4.803   4.236 -0.5379  1.3798 -1.6228
13462TIP3   OH261876   6.205   2.025  16.581  0.9430 -0.3548 -0.3121
13462TIP3    H161877   6.173   2.111  16.607  2.1833  0.9477 -2.7804
13462TIP3    H261878   6.126   1.971  16.574 -0.0255  1.0110 -0.2578
13463TIP3   OH261879   0.729   2.856   0.750 -0.2124  0.0094 -0.8866
13463TIP3    H161880   0.746   2.950   0.760 -0.0213 -0.2001  1.1976
13463TIP3    H261881   0.776   2.832   0.670  1.1400  1.3841 -0.5621
13464TIP3   OH261882   5.306   2.092  11.421  0.7297 -0.0384  0.2017
13464TIP3    H161883   5.338   2.004  11.443  1.9149 -0.1779 -1.8326
13464TIP3    H261884   5.211   2.081  11.411  0.6160 -0.6605  1.7450
13465TIP3   OH261885   0.272   5.677  12.893  0.2471 -0.3744  0.2372
13465TIP3    H161886   0.203   5.643  12.951 -0.7050  0.2279 -0.5099
13465TIP3    H261887   0.308   5.752  12.941  1.5113 -1.6129  1.3352
13466TIP3   OH261888   5.414   0.626  14.923  0.0886  0.5252  0.1324
13466TIP3    H161889   5.454   0.706  14.888 -0.4714  0.3905 -0.8583
13466TIP3    H261890   5.449   0.619  15.011 -0.6001  2.4094  0.6096
13467TIP3   OH261891   6.383   2.476  15.101  0.2785 -0.5232  0.0667
13467TIP3    H161892   6.418   2.516  15.181  1.4568 -0.7850 -0.2904
13467TIP3    H261893   6.298   2.516  15.089  1.4543  2.0092 -0.3511
13468TIP3   OH261894   1.880   6.203  14.611  0.5649  0.2536 -0.4407
13468TIP3    H161895   1.933   6.127  14.633  2.7601  1.2262 -1.9910
13468TIP3    H261896   1.923   6.276  14.657  0.2406  0.9730 -1.2505
13469TIP3   OH261897   5.724   3.342   4.416  0.6401 -0.1786 -0.3503
13469TIP3    H161898   5.651   3.300   4.461  2.0721 -2.8312 -0.2702
13469TIP3    H261899   5.729   3.430   4.454 -2.4016  0.0709 -0.3253
13470TIP3   OH261900   6.009   1.452  13.914  0.6791 -0.6582 -0.3536
13470TIP3    H161901   6.022   1.463  13.819 -0.7004  1.5322 -0.3497
13470TIP3    H261902   6.095   1.469  13.952  0.7387  0.8927 -1.1034
13471TIP3   OH261903   1.551   0.163   5.599  0.1852  0.0734  0.8253
13471TIP3    H161904   1.551   0.253   5.569 -0.2296  0.4838  2.0152
13471TIP3    H261905   1.489   0.118   5.543  3.3502 -0.5067 -2.6166
13472TIP3   OH261906   0.127   3.543   0.096 -0.1885  0.5756  0.0126
13472TIP3    H161907   0.094   3.539   0.186  0.0656 -2.1639  0.0793
13472TIP3    H261908   0.082   3.471   0.052  2.3370 -0.4586 -1.0592
13473TIP3   OH261909   6.206   1.060  15.371  0.1380  0.3839 -0.2953
13473TIP3    H161910   6.268   1.096  15.435  0.2294  0.7338 -0.5777
13473TIP3    H261911   6.140   1.129  15.362  1.0551  1.0938 -1.8928
13474TIP3   OH261912   6.388   2.932   0.177 -0.0563 -0.3926  0.5032
13474TIP3    H161913   6.312   2.949   0.232 -0.3466 -0.9213  0.2723
13474TIP3    H261914   6.436   2.864   0.223 -0.8714 -1.6253 -0.4081
13475TIP3   OH261915   5.419   3.955   5.021  0.4591  0.1730 -0.0785
13475TIP3    H161916   5.451   4.007   5.094 -0.3822 -0.6822  0.9204
13475TIP3    H261917   5.498   3.912   4.987  0.5357 -1.4962  2.0144
13476TIP3   OH261918   1.699   0.083   1.104 -0.3108 -0.5027 -0.7118
13476TIP3    H161919   1.676   0.044   1.188  1.3971 -0.6669 -0.2717
13476TIP3    H261920   1.718   0.008   1.047 -2.4418 -0.4339 -1.6075
13477TIP3   OH261921   2.516   5.599  11.378  0.1345 -0.2036  0.3473
13477TIP3    H161922   2.523   5.689  11.409  0.2808  0.0921 -0.5060
13477TIP3    H261923   2.604   5.578  11.346  0.1652 -0.7404  0.7847
13478TIP3   OH261924   6.672   0.836   2.128 -0.4085 -0.1491 -0.0135
13478TIP3    H161925   6.595   0.892   2.127  0.4538  1.1275 -2.1206
13478TIP3    H261926   6.640   0.751   2.158 -2.6262  0.3428 -0.8081
13479TIP3   OH261927   5.886   2.372  13.931 -0.9054  0.2779 -0.6558
13479TIP3    H161928   5.876   2.280  13.906 -0.1658  0.4708 -1.7300
13479TIP3    H261929   5.955   2.371  13.997  0.2878  0.2115 -1.8630
13480TIP3   OH261930   2.654   1.109   3.868  0.3584 -0.2924  0.2348
13480TIP3    H161931   2.653   1.026   3.916  2.3212 -0.0483  0.7877
13480TIP3    H261932   2.698   1.089   3.786 -0.1532 -0.0215 -0.1096
13481TIP3   OH261933   1.348   2.530  13.746 -0.1524 -0.1848  0.0064
13481TIP3    H161934   1.311   2.532  13.658  0.6874  1.0643 -0.3528
13481TIP3    H261935   1.430   2.481  13.737  0.4400  0.8024 -0.1466
13482TIP3   OH261936   5.930   4.724  12.483  0.1928 -0.7951  0.7088
13482TIP3    H161937   5.949   4.817  12.475 -0.4154 -0.6475  0.9441
13482TIP3    H261938   5.965   4.685  12.403  1.3198 -0.5145  1.0505
13483TIP3   OH261939   3.611   1.304  13.575 -0.3426  0.2140  0.0585
13483TIP3    H161940   3.699   1.319  13.539 -0.2006  0.7787  0.6078
13483TIP3    H261941   3.552   1.321  13.502  0.0252 -0.6484 -0.4451
13484TIP3   OH261942   4.323   4.347   4.996  0.0401  0.5605 -0.1468
13484TIP3    H161943   4.346   4.324   5.086 -1.6892  0.3098  0.2634
13484TIP3    H261944   4.404   4.335   4.947  0.4110 -1.7595  0.9088
13485TIP3   OH261945   4.083   0.236   6.689  0.1291 -0.0888  0.4649
13485TIP3    H161946   4.139   0.275   6.756 -0.6535  0.5214  0.7762
13485TIP3    H261947   3.995   0.264   6.712 -0.2534 -0.6196 -0.3104
13486TIP3   OH261948   2.532   3.279   0.777  0.1718 -0.2655  0.4287
13486TIP3    H161949   2.614   3.232   0.792  0.1862  0.2054  2.1079
13486TIP3    H261950   2.498   3.296   0.865 -1.7079 -0.3863 -0.2247
13487TIP3   OH261951   6.592   1.612  13.754  0.4100 -0.0016  0.1501
13487TIP3    H161952   6.535   1.652  13.819 -0.1063  0.0867 -0.3502
13487TIP3    H261953   6.639   1.543  13.802  1.2354  1.1171  0.9892
13488TIP3   OH261954   2.998   1.980   4.607 -0.4359  0.1524  0.4981
13488TIP3    H161955   3.079   2.009   4.565 -0.7823  0.8567  0.3097
13488TIP3    H261956   2.928   2.008   4.548 -0.7233 -4.9423 -2.1029
13489TIP3   OH261957   3.602   6.815   4.267  1.0156 -0.2207 -0.1152
13489TIP3    H161958   3.645   6.884   4.316 -3.3399  1.7621  1.4895
13489TIP3    H261959   3.524   6.858   4.230 -0.6505 -3.7325 -1.0759
13490TIP3   OH261960   0.276   3.854   4.735  0.4858 -0.4750  0.0156
13490TIP3    H161961   0.326   3.930   4.765 -1.8494  0.6815  1.2704
13490TIP3    H261962   0.248   3.876   4.647  1.2176 -0.6258 -0.2564
13491TIP3   OH261963   2.331   5.716  10.751  0.3036  0.0819  0.0573
13491TIP3    H161964   2.347   5.650  10.684  0.8500  0.7822 -0.5111
13491TIP3    H261965   2.312   5.796  10.703  0.7193  0.5981  0.7209
13492TIP3   OH261966   5.837   3.197   1.555 -0.4015  0.0764 -0.0451
13492TIP3    H161967   5.821   3.272   1.498 -0.1360  2.1457  2.4109
13492TIP3    H261968   5.762   3.196   1.615  2.1464  2.1392  3.6291
13493TIP3   OH261969   5.486   0.942   1.841  0.2421  0.4134  0.5352
13493TIP3    H161970   5.564   0.892   1.816 -1.6833 -2.1412 -0.9187
13493TIP3    H261971   5.444   0.889   1.909 -2.2495 -0.5189 -1.5534
13494TIP3   OH261972   2.878   6.473   5.196  0.4600 -0.0011 -0.2732
13494TIP3    H161973   2.905   6.538   5.261 -0.3303 -0.5628  0.6491
13494TIP3    H261974   2.898   6.513   5.112 -0.2858  1.5661  0.2637
13495TIP3   OH261975   1.271   2.190  11.379  0.1488 -0.1818 -0.3084
13495TIP3    H161976   1.248   2.253  11.446 -1.6581 -0.2676 -0.7980
13495TIP3    H261977   1.199   2.194  11.316  1.5344 -0.4706 -1.9856
13496TIP3   OH261978   6.647   4.593   5.701  0.3624  0.0486 -0.1649
13496TIP3    H161979   6.574   4.646   5.733  0.2696  0.3252 -0.8299
13496TIP3    H261980   6.724   4.649   5.709  0.0570  0.8106 -2.1699
13497TIP3   OH261981   3.804   1.774  13.193 -0.5552 -0.7547 -0.4531
13497TIP3    H161982   3.756   1.837  13.247 -1.2478 -0.3290 -1.5497
13497TIP3    H261983   3.850   1.828  13.129 -0.1913 -1.3000 -0.6564
13498TIP3   OH261984   5.073   6.102  10.791 -0.1602 -0.2327 -0.7576
13498TIP3    H161985   5.001   6.043  10.767  0.7418 -1.6243 -0.1371
13498TIP3    H261986   5.122   6.113  10.709 -0.6113  0.0804 -0.9930
13499TIP3   OH261987   3.939   2.685   4.219 -0.3970 -0.1118  0.1027
13499TIP3    H161988   3.925   2.616   4.154 -1.5699  0.0921  0.1145
13499TIP3    H261989   4.030   2.673   4.247  0.0584 -0.3829 -1.3562
13500TIP3   OH261990   1.092   0.458   4.574  0.2394  0.1212 -0.3597
13500TIP3    H161991   1.024   0.522   4.554 -1.2059 -0.8204  1.2426
13500TIP3    H261992   1.095   0.457   4.670  1.6990 -0.7180 -0.3927
13501TIP3   OH261993   5.811   6.288   4.709  0.3878 -0.1899  0.4778
13501TIP3    H161994   5.767   6.359   4.662 -0.0617 -0.8864 -0.1847
13501TIP3    H261995   5.899   6.286   4.674  0.2081 -0.3651  0.0296
13502TIP3   OH261996   2.938   3.186   5.914  0.4566 -0.6372  0.1224
13502TIP3    H161997   3.017   3.159   5.961  0.4719  0.1292  0.5580
13502TIP3    H261998   2.880   3.220   5.982  0.8290  1.3271 -0.4926
13503TIP3   OH261999   2.856   0.020  12.980 -0.1186 -0.4307 -0.5138
13503TIP3    H162000   2.909  -0.056  13.004 -0.3071 -0.4827 -0.2614
13503TIP3    H262001   2.902   0.095  13.017 -0.3097 -0.4922 -0.1524
13504TIP3   OH262002   2.242   6.441   1.067 -0.4621 -0.3474 -0.4703
13504TIP3    H162003   2.300   6.474   0.998 -0.4459 -0.2177 -0.3948
13504TIP3    H262004   2.185   6.515   1.087 -0.6354 -0.4646 -0.5234
13505TIP3   OH262005   2.246   2.436   4.183 -0.2569 -0.2888  0.5320
13505TIP3    H162006   2.273   2.459   4.272  1.4953 -1.8473  0.4685
13505TIP3    H262007   2.287   2.502   4.127 -1.3595  0.6920  0.8513
13506TIP3   OH262008   3.454   0.826   0.154  0.2235  0.4202  0.1864
13506TIP3    H162009   3.386   0.774   0.198 -0.0943  0.1397 -0.6117
13506TIP3    H262010   3.456   0.791   0.065 -1.2898  2.9876 -0.9451
13507TIP3   OH262011   3.285   2.271   1.981  0.2843  0.2175 -0.2985
13507TIP3    H162012   3.356   2.310   2.033  0.5018  1.7823 -1.6812
13507TIP3    H262013   3.318   2.272   1.891 -1.6030  1.3977 -1.0559
13508TIP3   OH262014   1.007   0.048   4.334  0.1927 -0.3841  0.2259
13508TIP3    H162015   1.014  -0.018   4.265 -0.2424  0.9120 -1.1011
13508TIP3    H262016   1.094   0.087   4.339  0.2730 -0.6011  0.5460
13509TIP3   OH262017   0.037   3.706   1.874  0.3512 -0.0417 -0.1252
13509TIP3    H162018   0.045   3.717   1.969  0.6395  0.9680 -0.2523
13509TIP3    H262019   0.109   3.757   1.837 -1.9379  2.8760 -1.0031
13510TIP3   OH262020   1.049   2.591   5.086 -0.1368  0.2441 -0.1011
13510TIP3    H162021   0.980   2.576   5.151 -0.7847 -0.7248 -0.9717
13510TIP3    H262022   1.120   2.633   5.135 -1.6218  2.0120  0.6734
13511TIP3   OH262023   5.529   0.513   2.537  0.4694  0.1005 -0.1470
13511TIP3    H162024   5.608   0.460   2.551 -0.3819 -1.1730 -0.0281
13511TIP3    H262025   5.517   0.514   2.443  0.2598 -0.2586 -0.1243
13512TIP3   OH262026   4.836   5.202  11.952 -0.0538 -0.2051  0.1887
13512TIP3    H162027   4.804   5.114  11.970  0.4409 -0.1747  1.3103
13512TIP3    H262028   4.878   5.195  11.866  0.6946 -1.2743  0.6203
13513TIP3   OH262029   5.786   4.368  14.354 -0.9475 -0.1833  0.2824
13513TIP3    H162030   5.801   4.373  14.259 -0.9838 -2.3016  0.1316
13513TIP3    H262031   5.698   4.404  14.366 -0.3656  1.5388 -0.2528
13514TIP3   OH262032   2.232   6.729   2.959  0.0236  0.2947  0.9118
13514TIP3    H162033   2.305   6.689   2.910 -0.1060 -0.5677  1.4074
13514TIP3    H262034   2.253   6.822   2.960  1.1393  0.0586  1.0669
13515TIP3   OH262035   4.131   4.952   2.826  0.2088 -1.0688  0.2840
13515TIP3    H162036   4.074   4.920   2.756 -1.8194  0.5629  1.0879
13515TIP3    H262037   4.077   5.014   2.875  2.4734  0.0442  1.5611
13516TIP3   OH262038   3.160   0.010  16.855  0.3609 -0.3057  0.2926
13516TIP3    H162039   3.236  -0.046  16.868 -0.6729 -1.8738 -0.1538
13516TIP3    H262040   3.118  -0.024  16.776  0.0458  1.5363 -0.3833
13517TIP3   OH262041   1.915   5.772  16.234 -0.2539  0.3656  0.1867
13517TIP3    H162042   1.949   5.728  16.156  2.6622  2.3108  0.1928
13517TIP3    H262043   1.905   5.702  16.298  2.2024 -0.6702 -0.4302
13518TIP3   OH262044   4.293   0.574  15.168  0.1437 -0.6417 -0.1463
13518TIP3    H162045   4.216   0.532  15.206  0.3431 -1.9322 -1.1016
13518TIP3    H262046   4.343   0.502  15.129  0.5007  0.4674 -1.8500
13519TIP3   OH262047   6.210   6.454  12.654 -0.0057  0.4120 -0.4363
13519TIP3    H162048   6.252   6.374  12.684  0.8544  0.4504 -1.4699
13519TIP3    H262049   6.155   6.427  12.580  0.5832  0.8251 -1.0326
13520TIP3   OH262050   4.994   5.829  11.690 -0.3650 -0.1523  0.0694
13520TIP3    H162051   5.047   5.749  11.696 -2.4221 -1.5449  0.4565
13520TIP3    H262052   4.980   5.855  11.781  0.7563  1.0146 -0.0643
13521TIP3   OH262053   5.278   6.493   2.843  0.8534  0.2883  0.5762
13521TIP3    H162054   5.201   6.490   2.901  1.5521  2.2002  1.6903
13521TIP3    H262055   5.320   6.408   2.855 -0.0285 -0.0421  1.4782
13522TIP3   OH262056   6.331   6.058   1.946  0.5719  0.1308  0.2033
13522TIP3    H162057   6.412   6.110   1.944  1.9779 -1.7928  2.4151
13522TIP3    H262058   6.361   5.967   1.954 -1.7983 -0.6350  1.1520
13523TIP3   OH262059   2.677   0.111   0.921 -0.2682  0.0566  0.0011
13523TIP3    H162060   2.745   0.103   0.854 -0.6746  0.6765 -0.4938
13523TIP3    H262061   2.711   0.177   0.981 -0.7620  0.9353 -0.6673
13524TIP3   OH262062   2.265   6.698  10.769  0.0043 -0.5754  0.1001
13524TIP3    H162063   2.194   6.714  10.706  0.9536  1.5879 -0.5055
13524TIP3    H262064   2.321   6.633  10.725 -0.6860 -1.0099 -0.1550
13525TIP3   OH262065   5.349   2.662  12.074  0.3229  0.0084  0.1780
13525TIP3    H162066   5.402   2.585  12.054 -0.3550 -0.0361 -1.6498
13525TIP3    H262067   5.329   2.700  11.988 -0.7629  1.2594  0.9496
13526TIP3   OH262068   1.233   6.785  16.658  0.4719 -0.3918 -0.2035
13526TIP3    H162069   1.313   6.802  16.608 -0.2220  0.0303 -1.1892
13526TIP3    H262070   1.167   6.764  16.593  0.0745 -2.1032  0.6748
13527TIP3   OH262071   6.582   1.668   6.370 -0.0016 -0.1685 -0.0242
13527TIP3    H162072   6.635   1.625   6.303  1.6898 -0.0479  1.1578
13527TIP3    H262073   6.600   1.618   6.450 -3.5222 -1.5838  0.0621
13528TIP3   OH262074   0.880   5.572   3.433 -0.0518 -0.0541 -0.3497
13528TIP3    H162075   0.853   5.587   3.343 -1.7248 -1.7774 -0.1941
13528TIP3    H262076   0.916   5.484   3.434  0.8692  0.3077  0.4951
13529TIP3   OH262077   6.237   2.791   4.636 -0.5085  0.5048  0.2549
13529TIP3    H162078   6.327   2.786   4.668 -0.5338 -1.8400  0.1387
13529TIP3    H262079   6.239   2.857   4.566  1.1426  0.3476  0.1302
13530TIP3   OH262080   1.436   3.602  16.815 -0.0253  0.0566 -0.2861
13530TIP3    H162081   1.469   3.644  16.736 -0.5967  0.1215 -0.5007
13530TIP3    H262082   1.349   3.641  16.827 -0.8716 -1.5375 -0.8864
13531TIP3   OH262083   0.345   1.401   1.370 -0.2484  0.6236 -0.0035
13531TIP3    H162084   0.440   1.410   1.355  0.0641 -2.2483 -0.4125
13531TIP3    H262085   0.339   1.364   1.458 -0.9363  0.0938 -0.2713
13532TIP3   OH262086   0.101   1.531   4.606  0.2691 -0.0643 -0.1338
13532TIP3    H162087   0.170   1.516   4.542 -0.9585 -0.7019 -1.3573
13532TIP3    H262088   0.107   1.625   4.627  1.2593 -0.0433 -0.4879
13533TIP3   OH262089   6.364   5.554   0.468  0.0000 -0.6209 -0.1882
13533TIP3    H162090   6.277   5.529   0.435 -0.4743  0.9145 -0.1625
13533TIP3    H262091   6.424   5.494   0.423 -1.1671 -2.9197  1.1208
13534TIP3   OH262092   0.505   6.498   2.595  0.1757  0.3792 -0.1002
13534TIP3    H162093   0.517   6.552   2.516  2.3418  3.6622  2.1855
13534TIP3    H262094   0.580   6.439   2.595  0.7887  1.1420  0.0107
13535TIP3   OH262095   6.461   5.103  12.958  0.0749 -0.2878 -0.1652
13535TIP3    H162096   6.370   5.092  12.986 -1.0693  1.5342 -2.6687
13535TIP3    H262097   6.467   5.052  12.877  0.9499  0.4847 -0.6007
13536TIP3   OH262098   3.324   2.287  12.215  0.0820  0.1218  0.4149
13536TIP3    H162099   3.348   2.236  12.293  0.4567  0.3581  0.4578
13536TIP3    H262100   3.402   2.283  12.160 -0.0261  0.3297  0.2474
13537TIP3   OH262101   6.782   4.963  15.686 -0.7259  0.3253  0.5233
13537TIP3    H162102   6.793   4.923  15.599 -0.9128  0.2357  0.5410
13537TIP3    H262103   6.693   4.941  15.712 -1.6192  2.5102 -0.3815
13538TIP3   OH262104   2.776   1.274  13.417 -0.1218  0.2144 -0.9504
13538TIP3    H162105   2.800   1.204  13.357 -0.8321 -0.2576 -0.6896
13538TIP3    H262106   2.772   1.352  13.362 -0.1004 -0.0931 -1.3943
13539TIP3   OH262107   3.370   3.147   0.250  0.3478 -0.1940  0.0697
13539TIP3    H162108   3.302   3.098   0.297  1.0719 -3.3123 -1.7846
13539TIP3    H262109   3.326   3.176   0.170  0.4901  0.2971  0.1692
13540TIP3   OH262110   1.685   4.735  16.059  0.2230 -0.4228 -0.7165
13540TIP3    H162111   1.764   4.740  16.005  2.9402 -0.1032  2.9015
13540TIP3    H262112   1.641   4.819  16.045  1.1242 -0.1419 -1.9905
13541TIP3   OH262113   6.526   0.848  13.396  0.1395 -0.5626  0.7905
13541TIP3    H162114   6.598   0.852  13.333  0.6909 -0.4566  1.4182
13541TIP3    H262115   6.569   0.840  13.481 -0.5883 -0.2113  1.1963
13542TIP3   OH262116   2.282   3.104  16.300  0.2120  0.6114 -0.5423
13542TIP3    H162117   2.238   3.029  16.340  0.3413  0.6627 -0.3016
13542TIP3    H262118   2.227   3.179  16.325  0.1431  0.6120 -0.6909
13543TIP3   OH262119   1.332   6.357  11.001  0.3559  0.5864 -0.5554
13543TIP3    H162120   1.382   6.354  10.919  2.0423  1.9251  0.3551
13543TIP3    H262121   1.342   6.270  11.039 -0.7263 -0.1636 -1.8817
13544TIP3   OH262122   6.776   5.026  17.068  0.1482  1.0982 -0.4032
13544TIP3    H162123   6.810   4.978  17.144 -0.4998  0.1389 -0.6996
13544TIP3    H262124   6.681   5.011  17.070  0.2533 -0.1656 -2.1863
13545TIP3   OH262125   3.874   1.503  12.252 -0.1482  0.3593 -0.3505
13545TIP3    H162126   3.863   1.597  12.239  2.3442  1.0337  1.4412
13545TIP3    H262127   3.899   1.470  12.166  0.0336  1.5618 -0.7887
13546TIP3   OH262128   2.052   6.344   3.463  0.8188  0.0657 -0.4022
13546TIP3    H162129   1.984   6.363   3.399  1.8643 -0.1451 -1.6065
13546TIP3    H262130   2.007   6.349   3.548 -0.1232  2.5773 -0.9584
13547TIP3   OH262131   1.652   0.372   1.953 -0.2701  0.2952 -0.3247
13547TIP3    H162132   1.645   0.277   1.951  0.5148  0.2232  0.1586
13547TIP3    H262133   1.668   0.393   2.045  4.1862  0.5258 -0.9485
13548TIP3   OH262134   4.108   5.982   1.601 -0.1125  0.4131 -0.4952
13548TIP3    H162135   4.139   6.073   1.602 -0.4018  0.5106 -0.3025
13548TIP3    H262136   4.043   5.980   1.531  0.3645  0.1950 -0.9370
13549TIP3   OH262137   2.710   0.309  14.896 -0.1923  0.3760 -0.8123
13549TIP3    H162138   2.740   0.257  14.822 -2.2660 -0.2498 -1.2647
13549TIP3    H262139   2.740   0.261  14.973 -0.8958 -0.7904 -1.2436
13550TIP3   OH262140   2.576   4.079  14.201 -0.4719  0.3451 -0.0269
13550TIP3    H162141   2.600   4.170  14.216  1.4554 -0.1982  0.4344
13550TIP3    H262142   2.560   4.073  14.107  0.2794  0.9677 -0.1994
13551TIP3   OH262143   0.926   5.727  11.321  0.2421  0.0398 -0.6777
13551TIP3    H162144   0.999   5.766  11.273  0.8275  0.9582  0.8929
13551TIP3    H262145   0.961   5.644  11.354 -0.3569 -0.8991 -2.2877
13552TIP3   OH262146   3.815   0.036  16.394 -0.3554 -0.1990  0.7034
13552TIP3    H162147   3.761   0.071  16.465  2.3427 -0.2735  2.9639
13552TIP3    H262148   3.856   0.113  16.355 -1.0521 -0.2391 -0.1293
13553TIP3   OH262149   4.817   3.035   2.755  0.4619 -0.1672 -0.0697
13553TIP3    H162150   4.885   3.098   2.732  1.7980 -2.0493 -1.5529
13553TIP3    H262151   4.748   3.049   2.690  0.0364  0.7457  0.5472
13554TIP3   OH262152   3.524   3.629   0.139  0.2098  0.6208 -0.3430
13554TIP3    H162153   3.449   3.684   0.160 -0.2353 -0.4824  1.1132
13554TIP3    H262154   3.520   3.558   0.203  2.8891  0.8917  0.2660
13555TIP3   OH262155   2.692   4.812  16.876 -0.3318  0.3525 -0.5988
13555TIP3    H162156   2.770   4.765  16.845  1.6735  2.2521  1.1814
13555TIP3    H262157   2.700   4.899  16.836 -1.6582  0.5364 -0.4963
13556TIP3   OH262158   1.574   4.841   5.619 -0.8281 -0.1008 -0.7109
13556TIP3    H162159   1.623   4.783   5.561  0.7275 -0.4324  0.8526
13556TIP3    H262160   1.583   4.803   5.706 -1.1450  1.6032  0.1257
13557TIP3   OH262161   3.940   5.714   2.008 -0.2401 -0.0024 -0.7411
13557TIP3    H162162   3.969   5.724   1.917  3.0087 -0.7939  0.0702
13557TIP3    H262163   3.956   5.622   2.028 -1.7137 -0.0359  0.4128
13558TIP3   OH262164   4.328   0.425   4.621  0.2179  0.2228 -0.1737
13558TIP3    H162165   4.392   0.458   4.683 -1.6646  0.4924  1.7486
13558TIP3    H262166   4.252   0.482   4.633 -1.8192 -2.4579  0.5805
13559TIP3   OH262167   4.087   4.528   6.004  0.3633  0.1890  0.5168
13559TIP3    H162168   4.098   4.524   6.099 -0.4289  2.2567  0.7410
13559TIP3    H262169   3.995   4.552   5.992  0.5697  0.3940 -0.7633
13560TIP3   OH262170   3.126   6.479   6.677 -0.3635 -0.0569  0.7130
13560TIP3    H162171   3.112   6.385   6.681 -0.8651 -0.0026  0.3590
13560TIP3    H262172   3.042   6.515   6.650 -0.0247  0.4459  0.2938
13561TIP3   OH262173   0.086   0.043   4.725  0.1034 -0.3153  0.7289
13561TIP3    H162174   0.038   0.007   4.799 -4.0949  0.9969 -1.0462
13561TIP3    H262175   0.112   0.131   4.754 -1.0860  0.0116  0.8444
13562TIP3   OH262176   4.162   6.467   2.080 -0.8476  0.5425  0.9560
13562TIP3    H162177   4.183   6.464   2.173  1.6178 -0.0186  0.4540
13562TIP3    H262178   4.204   6.547   2.048 -1.2049  0.4508  0.2322
13563TIP3   OH262179   6.263   6.091  13.348  0.1945  0.1815 -0.3037
13563TIP3    H162180   6.321   6.018  13.329  0.6877  0.9292 -1.8705
13563TIP3    H262181   6.203   6.094  13.273 -0.9892  0.2700  0.6246
13564TIP3   OH262182   6.015   3.681  13.066  0.3578  0.3521  0.3313
13564TIP3    H162183   6.020   3.588  13.044  3.0067  0.8979 -1.8352
13564TIP3    H262184   6.076   3.724  13.006 -2.6187  3.8570 -0.5889
13565TIP3   OH262185   0.834   3.686   0.097 -0.5330  0.5996  0.4948
13565TIP3    H162186   0.764   3.667   0.034  0.7973 -0.4360 -0.7171
13565TIP3    H262187   0.896   3.740   0.048  0.7677 -0.6402  0.7160
13566TIP3   OH262188   1.226   0.535  15.148  0.1849  0.3213 -0.5284
13566TIP3    H162189   1.318   0.527  15.126  0.8592  1.7931  1.4420
13566TIP3    H262190   1.181   0.472  15.091  2.5522 -1.6270 -0.3852
13567TIP3   OH262191   1.356   4.088  12.117 -0.0598  0.0814  0.2646
13567TIP3    H162192   1.364   3.994  12.099  0.5353 -0.1499  1.6312
13567TIP3    H262193   1.334   4.093  12.210  0.9876  1.3263  0.4684
13568TIP3   OH262194   4.395   1.861  11.949 -0.0368 -0.1381  0.1578
13568TIP3    H162195   4.462   1.794  11.959  0.3642  0.2468  0.1188
13568TIP3    H262196   4.336   1.828  11.882  0.1552 -0.4523  0.1442
13569TIP3   OH262197   2.856   1.035   1.745 -0.1117 -0.0061 -0.0433
13569TIP3    H162198   2.933   1.068   1.790 -0.9173  0.6548  0.8884
13569TIP3    H262199   2.799   1.002   1.815 -1.1207  0.4746 -0.6046
13570TIP3   OH262200   3.346   4.347  13.281 -0.0407 -0.0030  0.2278
13570TIP3    H162201   3.258   4.381  13.295 -0.0384  1.1120 -2.0762
13570TIP3    H262202   3.334   4.273  13.220  0.6407  0.5451 -0.5929
13571TIP3   OH262203   4.293   2.971  13.480 -0.0366 -0.4153 -0.2269
13571TIP3    H162204   4.277   2.977  13.385  0.0724 -1.4671 -0.3256
13571TIP3    H262205   4.221   3.019  13.520 -1.0113 -1.3579 -0.7966
13572TIP3   OH262206   4.986   1.162  15.025  0.8993 -0.1077  0.2005
13572TIP3    H162207   4.936   1.201  15.097  1.6383  1.5102 -0.1026
13572TIP3    H262208   4.938   1.082  15.003 -3.4912  2.7250 -2.0959
13573TIP3   OH262209   6.728   3.868   1.700  0.2519  0.5251  0.1493
13573TIP3    H162210   6.733   3.803   1.770 -0.3214 -0.4313 -0.6699
13573TIP3    H262211   6.677   3.940   1.738 -0.0402  0.0231  0.7274
13574TIP3   OH262212   3.319   0.446  16.942  0.5670 -0.2490  0.2412
13574TIP3    H162213   3.349   0.407  16.860 -1.6138  0.1780 -0.8416
13574TIP3    H262214   3.369   0.401  17.010  3.0840 -0.0140 -1.3020
13575TIP3   OH262215   0.501   2.192  12.003 -0.1529 -0.4219 -0.7630
13575TIP3    H162216   0.519   2.279  12.039 -0.0423  0.4601 -2.8349
13575TIP3    H262217   0.407   2.180  12.019 -0.2455  0.2264 -0.7532
13576TIP3   OH262218   4.908   6.719  16.985  0.6786  0.2455  0.4987
13576TIP3    H162219   4.851   6.724  16.909 -0.4344 -0.6167  1.2417
13576TIP3    H262220   4.995   6.701  16.949  0.0060 -1.1290 -0.5387
13577TIP3   OH262221   4.629   3.546  13.968 -0.0138 -0.0806  0.7553
13577TIP3    H162222   4.625   3.642  13.969  0.5527 -0.0572  0.5328
13577TIP3    H262223   4.557   3.520  13.910 -2.2155  0.0910  3.1825
13578TIP3   OH262224   1.562   2.323  12.770  0.0754  0.6155 -0.2008
13578TIP3    H162225   1.584   2.279  12.687  0.3935  0.0919  0.1491
13578TIP3    H262226   1.530   2.409  12.744 -2.1371 -0.3766 -1.0165
13579TIP3   OH262227   3.640   4.088  13.839 -0.2770  0.1128  0.3179
13579TIP3    H162228   3.677   4.130  13.916  0.3837 -0.7666  0.4938
13579TIP3    H262229   3.670   3.997  13.844 -1.0441 -0.1999 -0.4509
13580TIP3   OH262230   3.645   1.182   3.054 -0.1781 -0.2173 -0.1450
13580TIP3    H162231   3.660   1.219   3.141 -0.0898 -0.8592  0.1133
13580TIP3    H262232   3.690   1.098   3.055 -0.0460 -0.1569 -0.8676
13581TIP3   OH262233   3.440   1.788  11.581  0.2180  0.1652 -0.3816
13581TIP3    H162234   3.462   1.768  11.490  1.2962  0.9338 -0.3100
13581TIP3    H262235   3.460   1.881  11.591  1.8732 -0.2881  1.1179
13582TIP3   OH262236   4.431   0.822   2.132  0.2779  0.3570 -0.0905
13582TIP3    H162237   4.406   0.909   2.101 -0.1960 -0.2999 -1.6242
13582TIP3    H262238   4.463   0.837   2.221 -2.8059  1.6842  0.9526
13583TIP3   OH262239   1.956   3.211  16.516 -0.9076  0.2901  0.2723
13583TIP3    H162240   1.937   3.248  16.603 -0.7288 -1.8127  1.2595
13583TIP3    H262241   2.007   3.132  16.534 -2.0516 -0.9675 -1.6544
13584TIP3   OH262242   4.385   3.928   2.155  0.3436  0.2103 -0.1793
13584TIP3    H162243   4.340   3.855   2.198  0.5139  0.8859  1.2199
13584TIP3    H262244   4.451   3.957   2.219  1.0842  0.8228 -1.1877
13585TIP3   OH262245   6.518   4.822  16.002  0.7810  0.4660 -0.5969
13585TIP3    H162246   6.537   4.737  15.961 -1.7244  0.0445 -1.0373
13585TIP3    H262247   6.494   4.879  15.929 -1.1922  0.4494 -0.0046
13586TIP3   OH262248   5.870   4.220   3.219  0.3808  0.7387 -0.0340
13586TIP3    H162249   5.870   4.192   3.311  0.3649  0.5672 -0.0858
13586TIP3    H262250   5.918   4.151   3.173 -0.8503  0.0745 -0.3775
13587TIP3   OH262251   4.251   6.630  15.780  0.7663  0.3591 -0.3871
13587TIP3    H162252   4.233   6.691  15.851  0.7590 -0.3768  0.2489
13587TIP3    H262253   4.346   6.618  15.782  0.5122 -1.9049  1.4084
13588TIP3   OH262254   4.918   2.429  13.333  0.2527  0.0564  0.4233
13588TIP3    H162255   4.927   2.415  13.239  1.2332 -3.0062  0.8254
13588TIP3    H262256   4.993   2.484  13.357  1.9423 -1.8131 -0.2421
13589TIP3   OH262257   1.325   0.974  16.480  0.5107 -0.1884 -0.3056
13589TIP3    H162258   1.357   1.048  16.532  1.2045 -1.0727  0.5661
13589TIP3    H262259   1.266   1.013  16.416 -0.8680  0.9089  1.5440
13590TIP3   OH262260   4.492   5.079  13.939  0.9182 -0.5382 -0.1760
13590TIP3    H162261   4.549   5.043  14.008 -0.1745  0.7765  1.4881
13590TIP3    H262262   4.553   5.119  13.877  1.9255 -1.4407  0.1919
13591TIP3   OH262263   0.256   3.118   3.286 -0.4884  0.2233 -0.5413
13591TIP3    H162264   0.168   3.084   3.271  0.3143 -2.8641  0.9431
13591TIP3    H262265   0.313   3.064   3.231  0.5929  1.8117 -1.0823
13592TIP3   OH262266   1.239   1.112  12.436 -0.3564 -0.3565 -0.6009
13592TIP3    H162267   1.243   1.149  12.348 -0.3830 -0.0287 -0.4662
13592TIP3    H262268   1.149   1.081  12.446 -0.6105  0.4551 -0.3486
13593TIP3   OH262269   4.596   4.364   1.099 -0.5432 -0.1150 -0.5705
13593TIP3    H162270   4.523   4.346   1.039 -1.1365 -2.4020  0.6791
13593TIP3    H262271   4.673   4.328   1.055 -0.8693 -1.1987 -0.3040
13594TIP3   OH262272   5.174   1.030   2.491 -0.2547  1.3158 -0.1569
13594TIP3    H162273   5.151   0.992   2.406 -0.5417 -1.7091  1.1634
13594TIP3    H262274   5.118   0.984   2.554  3.2682 -0.1587  2.1956
13595TIP3   OH262275   1.007   5.817  14.111 -0.1586 -0.7808  0.2378
13595TIP3    H162276   1.086   5.872  14.119  0.9176 -2.3990  1.4911
13595TIP3    H262277   1.031   5.752  14.045 -0.9666 -0.5190 -0.3272
13596TIP3   OH262278   2.477   5.989  14.044  0.1592 -0.0320 -0.0076
13596TIP3    H162279   2.538   6.014  13.975 -0.7917  0.6476 -0.6193
13596TIP3    H262280   2.439   5.906  14.014  1.7574 -1.2202  1.0341
13597TIP3   OH262281   3.676   0.932  12.300  0.8186  0.0940 -0.0128
13597TIP3    H162282   3.762   0.957  12.334  1.0933  0.0255 -0.6601
13597TIP3    H262283   3.627   1.014  12.298  0.8983  0.1517  0.2500
13598TIP3   OH262284   2.945   4.605   0.759  0.0347 -0.0924  0.1643
13598TIP3    H162285   2.902   4.571   0.838  0.0821  0.5024  0.4478
13598TIP3    H262286   2.995   4.530   0.726 -1.5631 -0.9532 -0.4484
13599TIP3   OH262287   5.005   1.283   5.554  0.3709 -0.1498  0.3089
13599TIP3    H162288   4.956   1.252   5.477 -0.7657  1.1702  0.4724
13599TIP3    H262289   4.978   1.374   5.565 -0.3181 -0.5939  2.9047
13600TIP3   OH262290   4.956   3.478  13.165 -0.7319  0.5195 -0.4587
13600TIP3    H162291   4.907   3.398  13.186  0.0715 -0.0295 -0.6454
13600TIP3    H262292   4.890   3.547  13.168 -1.5415 -0.2115 -0.7585
13601TIP3   OH262293   1.858   5.996  12.289  0.5054 -0.0827 -0.0385
13601TIP3    H162294   1.791   6.004  12.357  0.2114  0.8563 -0.4173
13601TIP3    H262295   1.808   5.985  12.208  0.7978  0.8835 -0.3545
13602TIP3   OH262296   1.461   4.774   2.734 -0.0736  0.2891 -0.3874
13602TIP3    H162297   1.441   4.864   2.711  0.9910  0.5211 -0.4463
13602TIP3    H262298   1.388   4.747   2.791  0.3889  1.7073  0.9429
13603TIP3   OH262299   4.929   4.641  11.995 -0.5429  0.1370 -0.6109
13603TIP3    H162300   4.901   4.661  12.084 -0.1255 -1.1004 -0.1886
13603TIP3    H262301   4.851   4.657  11.941 -1.4451 -1.1660  0.2585
13604TIP3   OH262302   1.265   0.484   2.412 -0.2658  0.1997 -0.2876
13604TIP3    H162303   1.260   0.543   2.487  1.3994 -1.6102  1.3892
13604TIP3    H262304   1.175   0.478   2.380 -0.9141  1.5571  1.1392
13605TIP3   OH262305   5.096   6.268   4.502 -0.9351  0.1834 -1.1179
13605TIP3    H162306   5.120   6.230   4.417 -1.7055  0.9949 -1.7262
13605TIP3    H262307   5.167   6.244   4.561 -0.2557 -0.1724 -2.0659
13606TIP3   OH262308   6.782   1.505   0.016 -0.5134 -0.1278 -0.5382
13606TIP3    H162309   6.850   1.468   0.072 -1.6452 -0.5126  0.6345
13606TIP3    H262310   6.810   1.484  -0.073  0.6936 -0.6120 -0.0633
13607TIP3   OH262311   4.059   1.579  13.448 -0.1211 -0.0226  0.2363
13607TIP3    H162312   4.079   1.548  13.360  0.3642 -0.1571  0.3937
13607TIP3    H262313   4.116   1.528  13.505  1.5862  1.9748  0.4293
13608TIP3   OH262314   5.496   2.561   4.293 -0.4006 -0.2139  0.3198
13608TIP3    H162315   5.424   2.593   4.348  0.6706 -0.7447  2.0950
13608TIP3    H262316   5.537   2.640   4.259 -1.3339  0.1080 -0.1255
13609TIP3   OH262317   4.345   4.573   0.881  0.3477 -0.3508 -0.2578
13609TIP3    H162318   4.363   4.667   0.878  1.4076 -0.5405 -0.3993
13609TIP3    H262319   4.282   4.563   0.952 -0.9535  0.6217 -1.2214
13610TIP3   OH262320   0.108   0.715  15.692 -0.1821 -0.2282 -0.0705
13610TIP3    H162321   0.028   0.713  15.639 -0.3096  0.2498  0.1013
13610TIP3    H262322   0.077   0.717  15.782 -0.0258  1.6833 -0.0226
13611TIP3   OH262323   6.419   6.760  16.607 -0.6023  0.2499  0.0734
13611TIP3    H162324   6.436   6.749  16.701  0.3310  0.2915 -0.0774
13611TIP3    H262325   6.449   6.678  16.568 -1.1596  0.1586 -0.1709
13612TIP3   OH262326   0.511   5.406  14.463  0.2866  0.3428  0.7380
13612TIP3    H162327   0.570   5.344  14.507 -0.5280 -0.3090  0.9237
13612TIP3    H262328   0.435   5.412  14.520 -1.6364 -1.9630 -1.3909
13613TIP3   OH262329   0.782   5.283  12.433 -0.0815 -0.5879 -0.2070
13613TIP3    H162330   0.716   5.300  12.500  1.2762  0.0598  1.0286
13613TIP3    H262331   0.757   5.339  12.359 -1.4253 -1.0782 -0.1366
13614TIP3   OH262332   6.610   0.726   1.438 -0.0961  0.2618 -0.5614
13614TIP3    H162333   6.653   0.743   1.522 -1.3290  0.8517 -0.0338
13614TIP3    H262334   6.582   0.812   1.407 -2.1582 -0.2350 -0.1902
13615TIP3   OH262335   4.256   1.669   5.347 -1.2923 -1.0454 -0.1031
13615TIP3    H162336   4.206   1.732   5.398  0.7434  1.2166 -0.7163
13615TIP3    H262337   4.303   1.617   5.412  0.5290  1.1601  0.4590
13616TIP3   OH262338   6.125   3.318  15.785  0.4270 -0.1940 -0.1106
13616TIP3    H162339   6.071   3.362  15.850  1.9252  0.8123  0.5025
13616TIP3    H262340   6.131   3.380  15.713  1.9333  0.3374  0.4398
13617TIP3   OH262341   5.496   3.768   1.626 -0.0055  0.2653 -0.3623
13617TIP3    H162342   5.421   3.809   1.583  0.1477  0.7945 -0.1314
13617TIP3    H262343   5.477   3.773   1.719  0.4112  0.6118 -0.2879
13618TIP3   OH262344   1.190   2.005   2.290  0.0431  0.4197 -0.2451
13618TIP3    H162345   1.276   2.046   2.282 -0.4608  1.3504 -0.9650
13618TIP3    H262346   1.166   2.018   2.382 -0.8179  3.2497 -0.7849
13619TIP3   OH262347   1.658   4.140   5.695  0.1536  0.2744 -0.5612
13619TIP3    H162348   1.728   4.101   5.642  1.4177  1.7886 -0.0552
13619TIP3    H262349   1.703   4.190   5.763 -1.4343 -0.0136  0.7765
13620TIP3   OH262350   2.690   1.866   2.055  0.1037  0.3969  0.6327
13620TIP3    H162351   2.606   1.910   2.069 -0.7947 -1.4100  1.2107
13620TIP3    H262352   2.713   1.829   2.140  0.6883 -0.4704  0.1177
13621TIP3   OH262353   6.090   4.626  15.071 -0.3893  0.2081  0.5305
13621TIP3    H162354   6.104   4.687  14.999 -0.9223 -1.4571 -1.0497
13621TIP3    H262355   6.141   4.549  15.047  0.1445 -0.0657  2.4018
13622TIP3   OH262356   2.497   4.823  11.653  0.4152  0.5306 -0.1266
13622TIP3    H162357   2.437   4.792  11.720 -0.1547  0.1584 -0.7974
13622TIP3    H262358   2.583   4.789  11.681 -0.0794 -1.0980 -0.4643
13623TIP3   OH262359   1.738   5.540   2.687  0.4496  0.2001 -1.0372
13623TIP3    H162360   1.791   5.484   2.744 -0.1895 -0.3722 -0.9983
13623TIP3    H262361   1.695   5.601   2.746 -1.2902 -1.2624 -0.7236
13624TIP3   OH262362   2.149   2.300   4.647  0.1572 -0.4004 -0.0569
13624TIP3    H162363   2.103   2.333   4.571  0.2404 -0.0142  0.0607
13624TIP3    H262364   2.088   2.239   4.688  0.9559 -2.4518 -1.7355
13625TIP3   OH262365   2.774   6.490   3.090 -0.1105 -0.4929 -0.3539
13625TIP3    H162366   2.777   6.582   3.063 -0.4764 -1.1588 -2.8237
13625TIP3    H262367   2.683   6.464   3.077  0.2550 -1.5388 -0.8714
13626TIP3   OH262368   3.064   3.771  11.018 -0.0557  0.4027 -0.1311
13626TIP3    H162369   2.990   3.828  11.038 -0.5459  0.1761 -1.2486
13626TIP3    H262370   3.025   3.689  10.987  0.6562  0.1249 -0.3271
13627TIP3   OH262371   1.030   2.893   5.747  0.3738 -0.0514  0.4128
13627TIP3    H162372   1.063   2.834   5.679 -0.5355  1.0021 -1.0040
13627TIP3    H262373   1.095   2.962   5.752 -0.8652  1.3578 -1.4773
13628TIP3   OH262374   5.670   6.547  10.372 -0.4575 -0.1458 -0.3081
13628TIP3    H162375   5.737   6.612  10.393  1.6374 -1.4585 -2.3635
13628TIP3    H262376   5.665   6.493  10.451  2.0207 -0.8037 -0.4847
13629TIP3   OH262377   3.298   1.193   5.771 -0.4266  0.5516  0.0128
13629TIP3    H162378   3.383   1.158   5.744 -0.4212 -0.4674  1.2763
13629TIP3    H262379   3.245   1.191   5.691 -0.1444 -1.5310 -0.1806
13630TIP3   OH262380   6.527   3.683   5.065 -0.5215 -0.5396 -0.1706
13630TIP3    H162381   6.572   3.676   5.149 -0.2215  1.0719 -0.1749
13630TIP3    H262382   6.594   3.657   5.001 -0.4652 -0.8486  0.0079
13631TIP3   OH262383   0.305   1.748   5.153  0.8670 -0.2095 -0.2394
13631TIP3    H162384   0.236   1.720   5.214  0.8520  0.3245 -0.0013
13631TIP3    H262385   0.265   1.739   5.066  0.7461 -0.5880 -0.1482
13632TIP3   OH262386   5.049   1.450   3.965 -0.1573  0.5224 -0.3631
13632TIP3    H162387   5.059   1.382   3.899  0.7952 -0.0225  0.3261
13632TIP3    H262388   5.003   1.408   4.037 -0.5801  0.9254 -0.3918
13633TIP3   OH262389   6.366   2.623  12.646 -0.3695  0.1994  0.1667
13633TIP3    H162390   6.351   2.619  12.740  1.7822 -0.9877  0.5295
13633TIP3    H262391   6.279   2.626  12.607 -1.4175 -1.9996  2.1079
13634TIP3   OH262392   0.912   5.354  13.009  0.2241 -0.0832  0.2863
13634TIP3    H162393   0.818   5.356  13.030  0.1075 -1.0227 -0.0907
13634TIP3    H262394   0.935   5.445  12.993 -0.7565  0.1041 -0.1569
13635TIP3   OH262395   0.041   2.947  11.958 -0.1507 -0.0530 -0.1159
13635TIP3    H162396   0.045   2.947  12.054  0.3276 -0.8421 -0.1291
13635TIP3    H262397   0.058   2.856  11.933 -2.0703 -0.2350 -0.8910
13636TIP3   OH262398   6.800   0.887  12.226 -0.0994  0.6906 -0.3851
13636TIP3    H162399   6.822   0.963  12.280 -1.9191 -0.0289  1.4997
13636TIP3    H262400   6.857   0.817  12.259  1.5225  1.1452 -2.0711
13637TIP3   OH262401   3.423   5.509  13.508  0.9653  0.1564 -0.4197
13637TIP3    H162402   3.434   5.430  13.455  0.5499 -0.2084  0.0359
13637TIP3    H262403   3.336   5.500  13.546  2.1296 -0.7413  2.2568
13638TIP3   OH262404   6.694   1.729   2.698 -0.2722 -0.1582 -0.3457
13638TIP3    H162405   6.768   1.672   2.679  0.2691 -0.2368  1.7981
13638TIP3    H262406   6.714   1.769   2.782 -1.6029  1.6358 -0.8110
13639TIP3   OH262407   5.281   3.473  11.734  0.2619 -0.3493 -0.3731
13639TIP3    H162408   5.231   3.492  11.813  1.0811 -0.1893  0.1147
13639TIP3    H262409   5.338   3.549  11.723  0.2659 -0.4442 -1.0292
13640TIP3   OH262410   2.120   6.486   1.969  0.0520  0.8734  0.2298
13640TIP3    H162411   2.212   6.469   1.949 -0.3280 -1.2005  0.0924
13640TIP3    H262412   2.080   6.507   1.885  0.3952  1.9843  0.3173
13641TIP3   OH262413   0.853   2.475   5.542 -1.1647 -0.4146 -0.5418
13641TIP3    H162414   0.926   2.454   5.600 -1.0128  1.9381  0.2108
13641TIP3    H262415   0.788   2.516   5.599 -1.5289  0.8380 -1.8069
13642TIP3   OH262416   5.477   6.655  14.619  0.5295 -0.4894 -0.1403
13642TIP3    H162417   5.464   6.683  14.528  0.4526  0.2338  0.0831
13642TIP3    H262418   5.534   6.579  14.613  2.0379  0.6395 -0.6954
13643TIP3   OH262419   5.875   2.366  16.056 -0.3361  0.0171  0.1339
13643TIP3    H162420   5.809   2.425  16.017 -1.2730 -1.3372 -0.4027
13643TIP3    H262421   5.958   2.394  16.017 -0.9113  0.3070 -0.9192
13644TIP3   OH262422   1.516   4.733   4.840 -0.1060 -0.0423  0.5992
13644TIP3    H162423   1.550   4.760   4.926 -0.4797 -1.0005  1.0589
13644TIP3    H262424   1.538   4.806   4.782  0.6856  0.3581  1.3789
13645TIP3   OH262425   4.147   1.011   3.592 -0.7161  0.3447  0.0042
13645TIP3    H162426   4.242   1.021   3.591 -0.7013  0.2109  0.0312
13645TIP3    H262427   4.114   1.100   3.581 -0.5882  0.3965  0.0297
13646TIP3   OH262428   0.681   2.695   4.595  0.1382  0.0557  0.3819
13646TIP3    H162429   0.668   2.670   4.686  0.1121 -1.6731 -0.0599
13646TIP3    H262430   0.776   2.701   4.585  0.1260  0.8805  0.6566
13647TIP3   OH262431   5.130   5.885  13.274  0.4005  0.0794  0.3745
13647TIP3    H162432   5.218   5.900  13.240  0.9701 -1.1517  1.2476
13647TIP3    H262433   5.141   5.887  13.369 -0.7794  1.2760  0.5213
13648TIP3   OH262434   5.754   3.281  15.501 -0.0138  0.2009 -0.0781
13648TIP3    H162435   5.782   3.295  15.411  1.8781  0.4429  0.5033
13648TIP3    H262436   5.835   3.263  15.549 -1.1567 -2.1991  1.1866
13649TIP3   OH262437   0.746   5.110  11.285 -0.4997 -0.1078 -0.0224
13649TIP3    H162438   0.835   5.091  11.316 -0.9129 -1.6762  0.2985
13649TIP3    H262439   0.703   5.153  11.359 -0.0920  0.3856 -0.0732
13650TIP3   OH262440   0.614   0.790  13.378  0.0299 -0.4667 -0.6769
13650TIP3    H162441   0.596   0.877  13.414  0.6814 -0.5548 -0.1224
13650TIP3    H262442   0.672   0.806  13.304  2.0551 -0.5667  0.8074
13651TIP3   OH262443   3.682   1.124   5.246 -0.1630  0.1756  0.0368
13651TIP3    H162444   3.778   1.128   5.247 -0.0699 -1.3710  1.2835
13651TIP3    H262445   3.661   1.032   5.228 -1.5005  0.8817 -2.5159
13652TIP3   OH262446   6.775   6.739  12.797 -0.6030 -0.2274 -0.1528
13652TIP3    H162447   6.866   6.716  12.817 -0.1670  1.6241  0.1589
13652TIP3    H262448   6.723   6.683  12.855  0.3925 -0.3734  0.6371
13653TIP3   OH262449   4.907   6.236  17.141  0.5363  0.3075  0.0668
13653TIP3    H162450   4.855   6.155  17.136 -0.5642  0.9560  0.5323
13653TIP3    H262451   4.874   6.289  17.069 -0.7353  1.4215  1.3996
13654TIP3   OH262452   0.301   0.465   5.178 -0.3566 -0.0860  0.3788
13654TIP3    H162453   0.254   0.382   5.179  0.1487 -0.4976 -2.1704
13654TIP3    H262454   0.247   0.522   5.122  1.5728 -0.2943 -1.8906
13655TIP3   OH262455   2.552   1.448   1.540  0.5981 -0.5869 -0.3975
13655TIP3    H162456   2.546   1.373   1.599  0.3042  0.0649  0.4131
13655TIP3    H262457   2.472   1.498   1.555  0.9896  0.1301 -0.6080
13656TIP3   OH262458   2.143   6.609   2.675 -0.3589 -0.6707 -0.0699
13656TIP3    H162459   2.158   6.634   2.584  0.5896 -0.5169  0.1157
13656TIP3    H262460   2.087   6.679   2.709 -0.3323 -0.4770 -0.4125
13657TIP3   OH262461   2.311   3.680   4.676  0.1832 -0.2946  0.5210
13657TIP3    H162462   2.279   3.619   4.610  2.0307 -1.2919  0.4776
13657TIP3    H262463   2.244   3.749   4.680 -1.8373 -2.1391  0.3761
13658TIP3   OH262464   6.590   5.640  13.992 -0.9075  0.4498 -0.0442
13658TIP3    H162465   6.666   5.699  13.991  0.5140 -1.2834 -0.9165
13658TIP3    H262466   6.574   5.621  13.899  0.0409 -2.1327  0.2486
13659TIP3   OH262467   0.496   4.577  12.348 -0.1697 -0.6858 -0.1486
13659TIP3    H162468   0.447   4.511  12.396  0.6613 -0.7505  0.6461
13659TIP3    H262469   0.447   4.657  12.360  1.5268  0.0213  3.5097
13660TIP3   OH262470   3.231   2.047  16.802  0.2748  0.2701 -0.4021
13660TIP3    H162471   3.320   2.052  16.766  0.1870  2.1460 -0.4635
13660TIP3    H262472   3.243   2.019  16.893  0.8501 -0.2794 -0.6410
13661TIP3   OH262473   2.899   1.812   3.111  0.6345  0.1481  0.1437
13661TIP3    H162474   2.926   1.791   3.201  1.5766 -0.8671 -0.3553
13661TIP3    H262475   2.825   1.754   3.094 -1.7357  2.6036  1.3459
13662TIP3   OH262476   2.415   6.491  11.773  0.2215 -0.6904  0.4335
13662TIP3    H162477   2.392   6.451  11.857 -2.2650 -1.1559 -0.3898
13662TIP3    H262478   2.503   6.459  11.755  0.4416 -1.3484  2.4048
13663TIP3   OH262479   3.350   1.266  13.114  0.1799  0.8604 -0.2013
13663TIP3    H162480   3.316   1.197  13.057  1.8498 -0.7687  0.6970
13663TIP3    H262481   3.433   1.292  13.075  0.7102  0.6516  0.7564
13664TIP3   OH262482   1.087   6.522  12.072  0.5335 -0.1853  0.6848
13664TIP3    H162483   1.059   6.508  12.162  0.8616 -0.6665  0.7152
13664TIP3    H262484   1.172   6.566  12.080  0.4725 -0.0535  0.6090
13665TIP3   OH262485   1.256   2.180   4.455 -0.2292 -0.0367  0.2208
13665TIP3    H162486   1.263   2.261   4.404 -0.9558  0.5890  1.0561
13665TIP3    H262487   1.250   2.211   4.546  0.0302 -1.0632  0.5939
13666TIP3   OH262488   2.002   2.375  12.947 -0.2120 -0.4990  0.5368
13666TIP3    H162489   2.025   2.341  12.861  1.3802  1.2848  0.1784
13666TIP3    H262490   1.907   2.380  12.947 -0.3114  3.4850 -2.9314
13667TIP3   OH262491   1.687   4.410   0.277 -0.1624  0.1346  0.0525
13667TIP3    H162492   1.625   4.418   0.205 -0.8334  0.9430  0.6963
13667TIP3    H262493   1.653   4.338   0.331 -0.9126  0.9984  0.7485
13668TIP3   OH262494   1.011   1.859   5.204  0.1864  1.0256  0.2206
13668TIP3    H162495   0.991   1.771   5.173 -2.7036  1.3857  0.7837
13668TIP3    H262496   1.085   1.847   5.263  0.6271 -0.8365 -0.6325
13669TIP3   OH262497   2.480   2.021   1.362 -0.2273 -0.2115 -0.2105
13669TIP3    H162498   2.442   1.937   1.339 -0.7885 -0.0210  0.0073
13669TIP3    H262499   2.500   2.013   1.456  1.4913 -0.7720 -0.5886
13670TIP3   OH262500   0.359   1.255  14.712 -0.5848  0.7536  0.8186
13670TIP3    H162501   0.354   1.350  14.697  0.2690  0.7281  0.3424
13670TIP3    H262502   0.453   1.236  14.712 -0.7608 -0.1302  0.6595
13671TIP3   OH262503   6.121   4.603   1.273  0.4268 -0.3578  0.3327
13671TIP3    H162504   6.084   4.594   1.360 -2.1027  0.9884 -0.4938
13671TIP3    H262505   6.097   4.523   1.227 -1.5468  0.4744 -0.1721
13672TIP3   OH262506   0.433   6.638   6.128  0.1779 -0.4238  0.2950
13672TIP3    H162507   0.409   6.550   6.099 -3.2518  0.0726  1.1490
13672TIP3    H262508   0.448   6.628   6.222  0.1226 -0.1723  0.3297
13673TIP3   OH262509   0.043   3.574   0.360  0.2575 -0.4787 -0.0649
13673TIP3    H162510   0.070   3.663   0.382  0.3122 -0.5704  0.2439
13673TIP3    H262511  -0.049   3.582   0.335  0.6084 -0.1370 -1.2917
13674TIP3   OH262512   4.831   6.038  15.296  0.1134 -1.0327  0.0065
13674TIP3    H162513   4.850   5.972  15.229  0.8591 -0.0343 -0.7791
13674TIP3    H262514   4.784   5.989  15.364 -0.0147 -2.2173 -0.8976
13675TIP3   OH262515   6.094   2.583  16.314 -0.1227  0.4548 -0.3359
13675TIP3    H162516   6.005   2.597  16.344  0.9512  1.5229  2.7382
13675TIP3    H262517   6.130   2.672  16.304  1.7069  0.1779  2.5523
13676TIP3   OH262518   5.237   6.529   5.076  0.2228 -0.4686 -0.2444
13676TIP3    H162519   5.233   6.519   5.172  2.6783 -1.9284 -0.2168
13676TIP3    H262520   5.216   6.621   5.062  1.5455  0.2546  1.8992
13677TIP3   OH262521   0.161   2.494  14.158 -0.0911  0.4965  0.0184
13677TIP3    H162522   0.197   2.561  14.099 -0.2891 -0.3981 -1.1400
13677TIP3    H262523   0.211   2.505  14.239  1.9715  0.1000 -1.1396
13678TIP3   OH262524   1.047   4.614  12.495  0.4226 -0.2040 -0.3404
13678TIP3    H162525   0.968   4.636  12.445  0.6505 -0.0641 -0.6454
13678TIP3    H262526   1.017   4.608  12.585  0.2544  0.8587 -0.3131
13679TIP3   OH262527   0.947   2.202   0.129  0.3299 -0.2669 -0.2136
13679TIP3    H162528   1.005   2.255   0.184  0.5277 -0.4403 -0.2553
13679TIP3    H262529   1.005   2.143   0.083  0.1870  0.0169 -0.7670
13680TIP3   OH262530   0.305   5.134  15.577  0.5628  0.5304  0.2745
13680TIP3    H162531   0.346   5.196  15.638  0.0511  1.4296 -0.2770
13680TIP3    H262532   0.334   5.164  15.491  2.6666 -1.7252  0.0870
13681TIP3   OH262533   5.248   3.413   0.887  0.2771 -0.2879  0.0851
13681TIP3    H162534   5.289   3.335   0.924 -2.5999 -2.2258 -0.4939
13681TIP3    H262535   5.231   3.390   0.795 -2.3276  0.2268  0.3753
13682TIP3   OH262536   6.053   2.982  11.159  0.1745 -0.0312 -0.3059
13682TIP3    H162537   6.070   3.056  11.101 -0.7294 -0.1370 -0.7322
13682TIP3    H262538   6.001   2.922  11.105 -2.2574  0.6582  1.1195
13683TIP3   OH262539   3.065   3.388   6.529  0.0116 -0.4720  0.0724
13683TIP3    H162540   3.059   3.389   6.433 -0.2505  0.0110  0.0849
13683TIP3    H262541   3.067   3.481   6.553 -0.0608 -0.5895  0.5404
13684TIP3   OH262542   1.676   5.416   0.429 -0.5622  0.8702  0.8147
13684TIP3    H162543   1.665   5.323   0.408  0.3475  1.2578 -1.6794
13684TIP3    H262544   1.596   5.438   0.478 -1.3412 -0.9523  0.4766
13685TIP3   OH262545   3.934   4.072   4.823  0.4936 -0.2322 -0.0230
13685TIP3    H162546   4.011   4.034   4.781  0.9820  0.6711  0.0453
13685TIP3    H262547   3.962   4.159   4.852 -0.7335  0.3775 -0.5911
13686TIP3   OH262548   0.411   4.611  11.361  0.0364 -0.7644  0.6932
13686TIP3    H162549   0.482   4.574  11.413  1.2211 -0.4854 -0.6433
13686TIP3    H262550   0.357   4.536  11.337  0.7765 -1.2201  0.4144
13687TIP3   OH262551   0.990   0.468  13.878 -0.4238  0.2416 -0.1876
13687TIP3    H162552   0.948   0.470  13.964  1.0569  0.1909  0.5594
13687TIP3    H262553   1.047   0.545  13.878 -0.8574  0.5782 -1.3730
13688TIP3   OH262554   3.792   3.357   0.866 -0.5020  0.0492 -0.3277
13688TIP3    H162555   3.763   3.426   0.806  1.2794  2.1419  1.0266
13688TIP3    H262556   3.747   3.377   0.948 -0.1311 -0.5433  0.0260
13689TIP3   OH262557   4.843   6.195   3.817 -0.5980  0.2929  0.1645
13689TIP3    H162558   4.773   6.149   3.770  0.0791 -0.8243  0.2253
13689TIP3    H262559   4.853   6.147   3.899  0.6140  0.1046 -0.0794
13690TIP3   OH262560   1.394   0.354   5.338 -0.6616 -0.0630 -0.2795
13690TIP3    H162561   1.332   0.385   5.272 -1.4711 -1.7899 -0.3786
13690TIP3    H262562   1.468   0.322   5.287 -0.2093  0.8404 -0.2138
13691TIP3   OH262563   4.340   2.217  14.289  0.6641  0.3869  0.0081
13691TIP3    H162564   4.401   2.145  14.273 -0.3971 -0.3374 -0.9411
13691TIP3    H262565   4.393   2.296  14.281  1.3230 -0.1759 -1.8276
13692TIP3   OH262566   2.187   2.229  15.543 -0.1295 -0.2221 -0.1692
13692TIP3    H162567   2.234   2.282  15.608 -0.6236 -1.0468  0.8849
13692TIP3    H262568   2.150   2.293  15.482  0.7627  0.5385  0.0599
13693TIP3   OH262569   3.182   5.738  13.779  0.0948  0.4158  0.0662
13693TIP3    H162570   3.117   5.670  13.762 -0.8990  1.5360 -0.8535
13693TIP3    H262571   3.185   5.790  13.699  3.4342 -0.5638 -0.5991
13694TIP3   OH262572   0.379   1.264   5.096  0.0629 -0.7149  0.1134
13694TIP3    H162573   0.332   1.315   5.162 -1.2308  1.0634 -2.0346
13694TIP3    H262574   0.457   1.315   5.077 -0.1261 -0.6392 -0.4828
13695TIP3   OH262575   5.191   4.896  15.533 -0.1539  0.5219  0.4803
13695TIP3    H162576   5.144   4.946  15.600 -0.0471  0.9517  0.2375
13695TIP3    H262577   5.198   4.956  15.459 -0.0910  0.1187  0.1568
13696TIP3   OH262578   3.057   5.122  14.059 -0.1884  0.5896  0.4020
13696TIP3    H162579   2.978   5.069  14.074 -0.7484  1.2502 -0.1568
13696TIP3    H262580   3.109   5.070  13.998  0.0050 -0.0232  1.0633
13697TIP3   OH262581   2.375   3.786  15.831 -0.6479  0.2890  0.6906
13697TIP3    H162582   2.307   3.804  15.895 -0.9848 -2.6770  1.3089
13697TIP3    H262583   2.335   3.808  15.747 -2.3888 -1.2404  1.0540
13698TIP3   OH262584   2.722   1.068  15.953  0.0126  0.2608  0.0006
13698TIP3    H162585   2.705   1.108  15.868  1.4464 -2.3902 -1.6896
13698TIP3    H262586   2.666   1.116  16.014 -1.1122  2.2568 -2.4155
13699TIP3   OH262587   0.008   6.310   2.734 -0.1554 -0.7022  0.1108
13699TIP3    H162588   0.092   6.355   2.742 -0.4623 -0.1459  0.2581
13699TIP3    H262589  -0.033   6.321   2.820 -1.5692  1.4553 -0.7648
13700TIP3   OH262590   6.442   1.698  15.631 -0.7882  0.1393  0.7688
13700TIP3    H162591   6.481   1.653  15.706 -0.5451 -2.1660 -0.6574
13700TIP3    H262592   6.348   1.685  15.641 -0.7178 -0.7713  0.3461
13701TIP3   OH262593   3.137   3.068   0.849 -0.4188  0.3670 -0.9497
13701TIP3    H162594   3.065   3.093   0.906  0.8671  1.0657  0.4254
13701TIP3    H262595   3.190   3.147   0.840  1.0607 -0.5341 -0.5599
13702TIP3   OH262596   5.687   4.023   4.463  0.0168 -0.8169  0.0356
13702TIP3    H162597   5.637   4.053   4.539 -1.3092  1.7920 -1.7122
13702TIP3    H262598   5.774   4.061   4.474 -0.3210 -0.0251  0.0604
13703TIP3   OH262599   5.556   1.569   2.863  0.0184 -0.3695  0.1927
13703TIP3    H162600   5.522   1.657   2.849 -0.9008 -0.5322  1.2894
13703TIP3    H262601   5.651   1.579   2.855  0.3247  1.5064  3.8868
13704TIP3   OH262602   2.372   4.148   1.754 -0.4239  0.3547 -0.4011
13704TIP3    H162603   2.359   4.202   1.676 -0.3960  1.0712  0.0835
13704TIP3    H262604   2.457   4.174   1.788 -1.1106  1.2000  0.7507
13705TIP3   OH262605   2.468   6.733  11.307  0.0602  0.2966 -0.5897
13705TIP3    H162606   2.504   6.662  11.255 -1.0163 -0.7096 -0.0193
13705TIP3    H262607   2.381   6.748  11.269 -0.2283  0.4196  0.1066
13706TIP3   OH262608   0.283   2.785   0.627 -0.0213 -0.4541  0.4316
13706TIP3    H162609   0.353   2.842   0.597  1.5701 -3.0192 -1.1414
13706TIP3    H262610   0.203   2.823   0.590  1.4288 -1.4867 -4.4633
13707TIP3   OH262611   6.751   3.256   2.351 -0.7837 -0.1619  0.5675
13707TIP3    H162612   6.670   3.291   2.389  0.4724  1.8891  1.5306
13707TIP3    H262613   6.721   3.198   2.281 -3.0673  1.8619 -0.2638
13708TIP3   OH262614   5.106   0.523  17.074  0.0119  0.2993  0.2636
13708TIP3    H162615   5.172   0.463  17.110  0.1421  1.6080  2.4006
13708TIP3    H262616   5.028   0.507  17.127 -0.9252 -0.1018 -1.1857
13709TIP3   OH262617   2.049   5.589   1.351  0.5257  0.3421  0.1425
13709TIP3    H162618   2.029   5.666   1.403 -0.5738  0.2769 -0.1453
13709TIP3    H262619   2.010   5.608   1.265 -1.0832 -1.1165  0.4984
13710TIP3   OH262620   5.960   2.549  14.225  0.8607  0.6541  0.1662
13710TIP3    H162621   5.959   2.471  14.170  0.9207  1.3544 -0.8564
13710TIP3    H262622   6.007   2.615  14.174  1.6283  1.1029  1.3932
13711TIP3   OH262623   5.121   1.296  11.876  0.1342 -0.7286  0.0706
13711TIP3    H162624   5.033   1.312  11.843  0.4707 -0.9928 -0.9808
13711TIP3    H262625   5.118   1.326  11.967 -1.4703 -2.1875  0.5396
13712TIP3   OH262626   2.591   2.453   3.564 -0.1541  0.1564  0.7096
13712TIP3    H162627   2.676   2.494   3.580 -0.3588  0.2233  1.7105
13712TIP3    H262628   2.597   2.420   3.475  0.7721  0.5284  0.6188
13713TIP3   OH262629   1.975   6.035   2.288 -0.4759  0.2845  0.6705
13713TIP3    H162630   1.902   5.975   2.306 -0.6893  1.4462  4.8888
13713TIP3    H262631   1.934   6.121   2.282  0.3367  0.7265  1.2091
13714TIP3   OH262632   3.017   5.575  14.046 -0.6610  0.0131 -0.2068
13714TIP3    H162633   2.958   5.548  14.116 -1.7552 -0.7421 -1.3714
13714TIP3    H262634   2.989   5.663  14.024  0.9606  1.0514  1.5672
13715TIP3   OH262635   6.475   0.563  16.276  0.1187  0.1626 -0.0309
13715TIP3    H162636   6.493   0.469  16.274 -1.3487 -0.2225  1.7820
13715TIP3    H262637   6.392   0.570  16.324 -0.4221  2.3158 -1.1594
13716TIP3   OH262638   2.290   6.609   0.495  0.3487  0.0514  0.6303
13716TIP3    H162639   2.243   6.617   0.577  0.3609 -0.1207  0.6558
13716TIP3    H262640   2.336   6.525   0.502 -0.7097 -0.6134 -0.0879
13717TIP3   OH262641   0.351   1.209   3.104 -0.1696 -0.2694 -0.5791
13717TIP3    H162642   0.425   1.181   3.049  1.1225  1.4967  0.1405
13717TIP3    H262643   0.358   1.156   3.183  0.7057  0.2558 -0.2841
13718TIP3   OH262644   4.523   6.459   3.862 -0.4474  0.6589 -0.4398
13718TIP3    H162645   4.563   6.522   3.801 -0.4167  1.7175  0.6446
13718TIP3    H262646   4.464   6.512   3.916  0.5426 -0.0027  1.3594
13719TIP3   OH262647   3.636   4.501   2.220 -0.0154 -0.4534  1.0115
13719TIP3    H162648   3.573   4.569   2.195 -0.0126 -0.5609  0.7037
13719TIP3    H262649   3.604   4.468   2.304 -0.9336 -1.1873  0.4008
13720TIP3   OH262650   4.084   3.527   2.333  0.0628  0.3047 -0.5032
13720TIP3    H162651   4.141   3.450   2.341  0.8457  0.9943  0.8485
13720TIP3    H262652   4.027   3.523   2.410 -0.6639  0.4905 -1.0166
13721TIP3   OH262653   0.379   4.400   6.078  0.0058 -0.4810  0.1068
13721TIP3    H162654   0.395   4.485   6.118 -0.0568 -0.3603 -0.1246
13721TIP3    H262655   0.460   4.379   6.031 -0.2007 -0.2584 -0.3588
13722TIP3   OH262656   5.522   2.290  16.291  0.0866 -0.1497  0.5851
13722TIP3    H162657   5.441   2.238  16.289  2.0323 -3.5398 -2.5715
13722TIP3    H262658   5.536   2.314  16.199  2.4337  0.7820  1.1327
13723TIP3   OH262659   2.966   1.304   1.533  0.1488  0.3102 -0.3443
13723TIP3    H162660   3.008   1.229   1.490 -0.2562  0.1266 -0.4227
13723TIP3    H262661   2.941   1.270   1.619  2.0949  1.0274  0.5593
13724TIP3   OH262662   4.195   6.740   6.368 -0.0288  0.3750  0.1352
13724TIP3    H162663   4.132   6.803   6.403 -0.0190  0.3928  0.1212
13724TIP3    H262664   4.269   6.794   6.339 -0.0534  0.3640  0.0508
13725TIP3   OH262665   6.651   2.990  13.792 -0.6248  0.5317  0.0645
13725TIP3    H162666   6.652   2.905  13.748 -1.6784  0.1218  0.7692
13725TIP3    H262667   6.562   3.024  13.777 -0.2461  1.4794 -0.1375
13726TIP3   OH262668   6.818   3.563   3.429 -0.0525 -0.0108 -0.0768
13726TIP3    H162669   6.767   3.563   3.348  0.8420  0.6607 -0.6568
13726TIP3    H262670   6.784   3.489   3.478  0.0679 -1.0591 -1.5042
13727TIP3   OH262671   1.248   5.749   5.301  0.2830  0.3724  0.2461
13727TIP3    H162672   1.295   5.823   5.261  0.6183  0.3790  0.6510
13727TIP3    H262673   1.295   5.732   5.382 -0.3250  0.2794  0.5848
13728TIP3   OH262674   5.357   2.639  14.870 -0.0092 -0.0079  0.7428
13728TIP3    H162675   5.410   2.673  14.942  0.3376 -0.8386  0.8901
13728TIP3    H262676   5.281   2.697  14.867  1.0967  1.5028  0.2226
13729TIP3   OH262677   4.598   3.968   1.850  0.2372  0.2246  0.0901
13729TIP3    H162678   4.603   3.874   1.867  0.4763  0.1324 -0.4557
13729TIP3    H262679   4.690   3.996   1.843  0.1621  0.4531  0.0188
13730TIP3   OH262680   0.772   5.038   4.429  0.4098  0.0949  0.0338
13730TIP3    H162681   0.748   4.949   4.456  0.5404 -0.2095 -0.8359
13730TIP3    H262682   0.812   5.076   4.508  1.5180 -1.0536  0.0536
13731TIP3   OH262683   6.070   6.383   0.962  0.0036  0.0621  0.1183
13731TIP3    H162684   6.017   6.463   0.968 -1.9481 -1.2423  1.6644
13731TIP3    H262685   6.161   6.414   0.971 -0.8015  1.9599  3.4220
13732TIP3   OH262686   6.784   2.355   3.361 -0.4332  0.1621 -0.0995
13732TIP3    H162687   6.698   2.368   3.321 -0.5979  0.7602  0.4441
13732TIP3    H262688   6.846   2.379   3.292 -0.7179  1.4015  0.0573
13733TIP3   OH262689   3.033   2.757  11.226 -0.2673 -0.2554 -0.0527
13733TIP3    H162690   3.055   2.751  11.133 -0.0149 -1.8540  0.0739
13733TIP3    H262691   2.957   2.815  11.229  0.4645  0.7981 -1.1100
13734TIP3   OH262692   0.252   5.772  15.451  0.1659 -0.0618  0.6135
13734TIP3    H162693   0.169   5.728  15.471  0.0715  0.4107  1.2859
13734TIP3    H262694   0.309   5.749  15.525  0.1497  0.8656  0.9173
13735TIP3   OH262695   5.236   0.325   0.514 -0.4295  0.0753 -0.0404
13735TIP3    H162696   5.233   0.385   0.588 -0.8980 -0.1437  0.1264
13735TIP3    H262697   5.304   0.262   0.537  0.4649  0.8650 -0.4756
13736TIP3   OH262698   6.516   4.321   3.610 -0.2851 -0.3395 -0.1025
13736TIP3    H162699   6.598   4.335   3.658 -1.2843  1.5645  1.2051
13736TIP3    H262700   6.530   4.362   3.525  0.4806 -1.0231 -0.3162
13737TIP3   OH262701   6.068   2.687   4.209  0.5445 -0.1764 -0.6340
13737TIP3    H162702   6.090   2.662   4.298  0.7631  0.9032 -0.3716
13737TIP3    H262703   6.134   2.644   4.155  1.1758  0.1700 -0.1542
13738TIP3   OH262704   2.305   3.937   2.955 -0.7402  0.0652 -0.2357
13738TIP3    H162705   2.304   3.903   3.044 -1.2592 -1.5113 -0.8096
13738TIP3    H262706   2.236   4.003   2.954 -0.2996  0.5620  0.6797
13739TIP3   OH262707   2.927   2.588  11.864 -0.3001  0.4488  0.2201
13739TIP3    H162708   2.944   2.655  11.798 -0.8625  1.1101  0.7386
13739TIP3    H262709   2.835   2.564  11.851 -0.4518  0.6797  0.8488
13740TIP3   OH262710   4.412   2.628  14.295 -0.3742  0.0659  0.7007
13740TIP3    H162711   4.357   2.571  14.242  0.2068  2.0310 -2.2812
13740TIP3    H262712   4.355   2.702  14.317  0.3700  1.0487 -0.5081
13741TIP3   OH262713   0.239   2.553  10.463 -0.1775 -0.4227 -0.7867
13741TIP3    H162714   0.268   2.643  10.447  1.4974 -0.5736  1.0224
13741TIP3    H262715   0.285   2.501  10.398 -0.0981 -0.1301 -0.9687
13742TIP3   OH262716   3.247   6.276   0.274  0.2867  0.0954  0.3058
13742TIP3    H162717   3.207   6.198   0.313  3.0990 -1.9956 -0.6731
13742TIP3    H262718   3.293   6.243   0.197  2.6314  2.5137  0.5255
13743TIP3   OH262719   4.106   3.084   0.147 -0.5811  0.1262  0.0372
13743TIP3    H162720   4.079   3.115   0.061  1.3351 -1.0362 -1.0530
13743TIP3    H262721   4.136   3.164   0.192 -2.1202  0.8261 -0.0992
13744TIP3   OH262722   6.598   4.528  12.672 -0.1829  0.2587 -0.9616
13744TIP3    H162723   6.675   4.527  12.728 -0.3639  0.4226 -0.7064
13744TIP3    H262724   6.598   4.442  12.629 -2.8332 -2.1737  3.1849
13745TIP3   OH262725   1.662   5.542   0.753 -0.6584  0.2860 -0.7673
13745TIP3    H162726   1.580   5.551   0.802  0.8987  1.1142  1.8559
13745TIP3    H262727   1.672   5.625   0.707 -0.3257  0.9835  0.5322
13746TIP3   OH262728   5.301   0.177   3.610  0.0501  0.1113 -0.0805
13746TIP3    H162729   5.346   0.244   3.559 -1.5567  2.1587  1.0790
13746TIP3    H262730   5.234   0.224   3.659 -0.9693 -2.3136  1.0209
13747TIP3   OH262731   6.557   1.100   5.245 -0.0653 -0.2301 -0.3779
13747TIP3    H162732   6.626   1.160   5.273  0.9867 -2.0889  1.2711
13747TIP3    H262733   6.489   1.109   5.312  0.2953 -1.1644  0.1258
13748TIP3   OH262734   5.888   6.101   1.436 -0.2040  0.1948 -0.1044
13748TIP3    H162735   5.918   6.098   1.527  1.6766  1.0025 -0.6388
13748TIP3    H262736   5.931   6.178   1.400 -1.8442  0.5471 -1.3882
13749TIP3   OH262737   5.011   1.751  16.668 -0.2347  0.4332  0.1696
13749TIP3    H162738   4.926   1.770  16.707  0.7396  0.7654  2.2924
13749TIP3    H262739   5.065   1.722  16.742  1.9171  1.6268 -0.8461
13750TIP3   OH262740   2.637   0.041  16.447  0.2553  0.5999 -0.2503
13750TIP3    H162741   2.545   0.066  16.438 -0.4513 -1.9206 -0.8601
13750TIP3    H262742   2.658  -0.001  16.364  1.6100  0.1400  0.3073
13751TIP3   OH262743   1.409   1.404  15.840 -0.2810  0.3492 -0.4945
13751TIP3    H162744   1.384   1.416  15.749 -1.5550 -3.1296 -0.7518
13751TIP3    H262745   1.398   1.311  15.856  2.7332  0.3116  2.4513
13752TIP3   OH262746   6.105   5.494   3.342 -0.1538 -0.2948 -0.0036
13752TIP3    H162747   6.154   5.443   3.407 -2.0520 -1.0538  0.8815
13752TIP3    H262748   6.093   5.580   3.384  0.2324 -0.1588 -0.1585
13753TIP3   OH262749   4.416   0.364  15.062 -0.7187 -0.3508 -0.0501
13753TIP3    H162750   4.426   0.269  15.059 -0.1231 -0.2896 -0.1429
13753TIP3    H262751   4.459   0.394  14.982 -2.2091 -0.1085 -0.7916
13754TIP3   OH262752   3.897   1.178   4.982 -0.7049  0.1579  0.0731
13754TIP3    H162753   3.862   1.102   4.937 -0.0474  0.2190 -0.5554
13754TIP3    H262754   3.820   1.231   5.003 -0.9766  0.4277 -1.5319
13755TIP3   OH262755   6.027   0.592  11.795  0.2389 -0.1461  0.0826
13755TIP3    H162756   5.950   0.560  11.748  0.7903  0.0662 -1.0011
13755TIP3    H262757   6.015   0.687  11.800  0.1052 -0.1820  0.5349
13756TIP3   OH262758   1.421   2.475   2.587 -0.6557 -0.4601 -0.6666
13756TIP3    H162759   1.445   2.532   2.515  2.8491 -1.5679 -0.5880
13756TIP3    H262760   1.403   2.390   2.546 -0.8568 -0.5409 -0.4158
13757TIP3   OH262761   2.509   4.138  16.265 -0.2782 -0.3082 -0.0644
13757TIP3    H162762   2.504   4.131  16.360 -0.3281  1.9953  0.1615
13757TIP3    H262763   2.586   4.193  16.249 -0.5223 -0.2940 -1.3286
13758TIP3   OH262764   1.074   3.994  13.697  0.0620  0.3150  0.0707
13758TIP3    H162765   1.018   3.917  13.701  0.1820  0.2147 -0.2185
13758TIP3    H262766   1.137   3.982  13.769 -1.0380  1.0195  1.2027
13759TIP3   OH262767   6.419   3.729   4.558 -0.7596  0.3285  0.1593
13759TIP3    H162768   6.354   3.775   4.504  1.6277  1.1273 -2.2691
13759TIP3    H262769   6.390   3.638   4.557 -1.0664  0.3797 -2.2231
13760TIP3   OH262770   0.207   6.305  13.311  0.0217  0.5027 -0.1511
13760TIP3    H162771   0.127   6.257  13.335  0.6858 -0.3149  0.5034
13760TIP3    H262772   0.211   6.297  13.215  0.7583 -1.8713  0.0193
13761TIP3   OH262773   5.179   2.198   1.600  0.6911  0.1254 -0.2712
13761TIP3    H162774   5.255   2.182   1.655  0.7086 -2.8533 -0.9599
13761TIP3    H262775   5.106   2.206   1.661  1.1223 -0.2308  0.2950
13762TIP3   OH262776   4.444   3.889   6.087 -0.5104  0.4152 -0.0866
13762TIP3    H162777   4.495   3.820   6.045 -0.0537 -0.0494  1.1781
13762TIP3    H262778   4.394   3.844   6.155  0.8712  1.4470  1.7374
13763TIP3   OH262779   1.859   5.787   3.945  0.8352 -0.5002 -0.3065
13763TIP3    H162780   1.800   5.743   3.884  0.1303 -0.6945  0.4899
13763TIP3    H262781   1.938   5.734   3.945  0.9065 -0.4125 -1.1550
13764TIP3   OH262782   1.207   3.283   2.123  0.0472  0.1675  0.2380
13764TIP3    H162783   1.290   3.244   2.153 -1.1366 -1.9005  1.0133
13764TIP3    H262784   1.172   3.326   2.201  0.5679  1.4611 -0.2096
13765TIP3   OH262785   6.563   4.815   0.412 -0.3856  0.2078 -0.3335
13765TIP3    H162786   6.636   4.760   0.385 -0.4191  0.0413 -0.0864
13765TIP3    H262787   6.594   4.905   0.398 -0.2833  0.1284 -0.6068
13766TIP3   OH262788   0.221   4.419  13.262  0.2564  0.4199 -0.2502
13766TIP3    H162789   0.232   4.333  13.221  0.9913  0.5631 -0.3753
13766TIP3    H262790   0.137   4.414  13.308  0.0828 -0.2097 -0.6288
13767TIP3   OH262791   5.582   1.916   4.129 -0.2465 -1.1268 -0.0584
13767TIP3    H162792   5.535   1.987   4.084 -1.4544 -1.7792  0.1245
13767TIP3    H262793   5.567   1.933   4.222  1.2095 -0.4758  0.0803
13768TIP3   OH262794   1.116   5.167   1.272  0.0709 -0.4854 -0.0599
13768TIP3    H162795   1.137   5.261   1.281 -0.9735 -0.2021 -0.4510
13768TIP3    H262796   1.188   5.132   1.220 -1.5341  0.9720 -3.5562
13769TIP3   OH262797   1.618   2.249   5.714 -0.4939 -0.3258 -0.4712
13769TIP3    H162798   1.689   2.202   5.671  0.6717 -0.1486  1.1730
13769TIP3    H262799   1.623   2.338   5.679 -0.1684 -0.4294 -0.6856
13770TIP3   OH262800   1.024   0.419   1.753 -0.0158 -0.0788  0.3068
13770TIP3    H162801   1.042   0.434   1.660 -1.5790  0.3433  0.0558
13770TIP3    H262802   1.056   0.497   1.797 -3.6835  2.0794 -0.4676
13771TIP3   OH262803   5.564   4.048   3.690 -0.3583 -0.4079 -0.1842
13771TIP3    H162804   5.536   4.104   3.618  1.1443  0.2115 -0.3063
13771TIP3    H262805   5.656   4.070   3.704 -0.9659  0.5567  2.9096
13772TIP3   OH262806   1.679   4.722  12.045  0.7950 -0.3030  0.2848
13772TIP3    H162807   1.659   4.706  11.953  1.1856 -0.1723  0.1754
13772TIP3    H262808   1.666   4.816  12.057  0.2885 -0.3941  0.4796
13773TIP3   OH262809   0.026   6.439   2.220  0.1437 -0.0107  0.4433
13773TIP3    H162810   0.064   6.352   2.207  3.4694  1.2742  0.6958
13773TIP3    H262811  -0.011   6.436   2.308  1.0936 -0.8660  0.8302
13774TIP3   OH262812   4.764   3.212  11.242 -0.2954 -0.1083  0.3111
13774TIP3    H162813   4.764   3.212  11.337 -1.3786 -1.3880  0.3392
13774TIP3    H262814   4.816   3.135  11.217 -1.8255 -1.0642 -0.0630
13775TIP3   OH262815   0.825   2.885  12.753 -0.0630  0.7976 -0.3073
13775TIP3    H162816   0.756   2.829  12.789 -1.0970  2.1591 -0.0935
13775TIP3    H262817   0.782   2.933  12.682  0.3127  2.5379  0.5923
13776TIP3   OH262818   3.076   3.365   2.724 -0.4820 -0.4029 -0.1866
13776TIP3    H162819   3.158   3.364   2.774 -0.0046 -1.4140 -0.9720
13776TIP3    H262820   3.090   3.433   2.658  0.2769 -1.4934 -1.1874
13777TIP3   OH262821   3.850   1.741  16.985 -0.4491 -0.4354  0.1518
13777TIP3    H162822   3.865   1.769  17.076  0.1098  0.5689 -0.2333
13777TIP3    H262823   3.758   1.717  16.982 -0.4601 -0.5303  1.0037
13778TIP3   OH262824   1.232   6.339   1.579  0.3881  1.0791  0.4212
13778TIP3    H162825   1.324   6.360   1.590  0.6724  0.2975 -0.3913
13778TIP3    H262826   1.188   6.385   1.651  1.3480  1.8259  0.5429
13779TIP3   OH262827   5.378   1.460   3.284  0.4939  0.1163  0.0762
13779TIP3    H162828   5.368   1.429   3.194 -0.9103  0.0542  0.2282
13779TIP3    H262829   5.405   1.551   3.276  0.7170  0.0070 -0.4099
13780TIP3   OH262830   2.122   1.460   4.656 -0.4480  0.0826  0.1591
13780TIP3    H162831   2.137   1.553   4.643  0.2692 -0.1000 -0.4156
13780TIP3    H262832   2.210   1.423   4.664 -0.5631 -0.8965 -2.2239
13781TIP3   OH262833   4.556   1.013   4.965 -0.4088  0.5778  0.3608
13781TIP3    H162834   4.576   0.919   4.973 -1.4993  0.2791 -0.1618
13781TIP3    H262835   4.573   1.048   5.052 -0.7346 -0.2659  0.7815
13782TIP3   OH262836   4.652   4.711   2.337  0.1481 -0.4583 -0.2266
13782TIP3    H162837   4.697   4.762   2.270  0.8347 -0.9484 -0.1458
13782TIP3    H262838   4.711   4.714   2.413 -0.7884  0.4178  0.5056
13783TIP3   OH262839   1.873   1.798   4.864 -0.1107 -0.1348  0.2432
13783TIP3    H162840   1.958   1.794   4.821 -2.2700 -0.4144 -4.6784
13783TIP3    H262841   1.853   1.892   4.868  0.2597 -0.0894  0.9935
13784TIP3   OH262842   4.276   3.677   4.669 -0.0717  0.5285 -0.4277
13784TIP3    H162843   4.336   3.750   4.651 -0.8462  1.2583 -0.0798
13784TIP3    H262844   4.189   3.713   4.657 -0.4724 -0.3899 -0.3984
13785TIP3   OH262845   5.533   3.294  13.432  0.1175  0.1951  0.1997
13785TIP3    H162846   5.618   3.282  13.474  0.8138 -1.4614 -1.4939
13785TIP3    H262847   5.477   3.331  13.500  1.7362 -0.2621  1.8751
13786TIP3   OH262848   4.934   4.557  11.409  0.1612 -0.0707 -1.2239
13786TIP3    H162849   4.964   4.490  11.471  0.1084  0.2781 -0.8149
13786TIP3    H262850   5.010   4.575  11.354  0.1633 -0.4924 -1.3602
13787TIP3   OH262851   4.060   2.138   5.212  0.0012  0.2640  0.2309
13787TIP3    H162852   4.084   2.223   5.174 -0.8537  1.9169  3.1467
13787TIP3    H262853   4.141   2.106   5.252  0.2630 -0.2257 -0.6588
13788TIP3   OH262854   2.277   5.087  12.160 -0.0776  0.2525  0.6591
13788TIP3    H162855   2.245   4.997  12.154 -1.5077  0.8108 -1.9028
13788TIP3    H262856   2.215   5.130  12.218  0.2083 -0.2538  1.3484
13789TIP3   OH262857   4.133   0.126  14.591 -0.4899 -0.3278  0.6046
13789TIP3    H162858   4.080   0.066  14.538 -0.1855  0.1580 -0.2802
13789TIP3    H262859   4.223   0.095  14.582 -0.4052 -0.0958  0.6294
13790TIP3   OH262860   3.807   3.417   5.141  0.8851  0.6467  0.4564
13790TIP3    H162861   3.898   3.409   5.172  1.0832 -4.1077 -0.6311
13790TIP3    H262862   3.814   3.413   5.046 -0.5009  0.4922  0.3524
13791TIP3   OH262863   5.353   2.613  15.310 -0.4144 -0.3857 -0.8131
13791TIP3    H162864   5.371   2.670  15.384 -1.0810 -0.5672 -0.5070
13791TIP3    H262865   5.276   2.650  15.268 -0.9433 -1.1345 -0.5256
13792TIP3   OH262866   2.521   1.555   6.340  0.1254 -0.1276  0.1577
13792TIP3    H162867   2.611   1.523   6.343  0.3912  0.5615 -0.4109
13792TIP3    H262868   2.491   1.550   6.431  0.1701 -1.9116  0.1127
13793TIP3   OH262869   1.695   5.610   3.809 -0.3210 -0.0357  0.2284
13793TIP3    H162870   1.611   5.657   3.814 -0.1924  0.2198  0.0048
13793TIP3    H262871   1.690   5.561   3.727 -0.0807  0.3195 -0.0056
13794TIP3   OH262872   5.997   6.691  14.675 -0.3945 -0.4615 -0.1673
13794TIP3    H162873   6.058   6.692  14.749  1.0748  0.7176 -1.3142
13794TIP3    H262874   5.998   6.600  14.645 -0.1066 -0.7045  0.5439
13795TIP3   OH262875   5.638   2.884   1.625 -0.0417  0.4657  0.3596
13795TIP3    H162876   5.687   2.895   1.543  1.7517  0.5595  1.3917
13795TIP3    H262877   5.646   2.791   1.645  0.9601  0.7240  1.2455
13796TIP3   OH262878   0.718   6.433  16.024  0.3331  0.7272 -0.4567
13796TIP3    H162879   0.750   6.462  16.110  1.7824 -1.3362 -0.2115
13796TIP3    H262880   0.700   6.340  16.036  0.3317  0.4551 -2.3487
13797TIP3   OH262881   5.256   2.978  13.731 -0.3289 -0.3222 -0.1637
13797TIP3    H162882   5.218   2.998  13.645  0.2186  0.4912 -0.2305
13797TIP3    H262883   5.183   2.987  13.792  0.1547  4.0855  0.1015
13798TIP3   OH262884   0.146   3.077   1.822 -0.2766  0.0555 -0.5980
13798TIP3    H162885   0.062   3.047   1.858  0.0961  0.8056  0.9502
13798TIP3    H262886   0.122   3.148   1.762 -0.6775  1.3327  1.0088
13799TIP3   OH262887   4.465   3.900  11.352  0.0610 -0.0573  0.2193
13799TIP3    H162888   4.482   3.834  11.285 -0.4638  0.6846 -0.6554
13799TIP3    H262889   4.375   3.881  11.381  0.0448  0.0397  0.2329
13800TIP3   OH262890   0.881   1.862   0.678  1.0526 -0.0143 -0.4321
13800TIP3    H162891   0.824   1.811   0.621  0.3103  0.0680  0.2153
13800TIP3    H262892   0.932   1.916   0.619 -1.3820  1.8606 -0.9651
13801TIP3   OH262893   5.033   5.972  15.998 -0.0115  0.7603  0.0279
13801TIP3    H162894   5.028   6.003  16.088 -1.5096 -1.0480  0.6409
13801TIP3    H262895   5.015   6.050  15.945 -1.3160  1.4342  1.3797
13802TIP3   OH262896   0.045   0.768   4.855  0.2914  0.0793  0.0863
13802TIP3    H162897   0.005   0.833   4.913  0.3619  1.2698 -1.1291
13802TIP3    H262898   0.072   0.819   4.778  1.5015 -1.1986 -0.3707
13803TIP3   OH262899   2.247   0.205  15.380  0.2916 -0.1750  0.3988
13803TIP3    H162900   2.303   0.143  15.425 -0.3665 -1.3903 -0.3846
13803TIP3    H262901   2.304   0.279  15.359  1.0854 -0.4946  1.3760
13804TIP3   OH262902   3.503   1.333   3.972 -0.4352 -0.2637 -0.3064
13804TIP3    H162903   3.574   1.352   3.912  0.2562 -0.2036  0.5156
13804TIP3    H262904   3.470   1.247   3.945  0.0879 -0.3836 -0.5587
13805TIP3   OH262905   6.000   0.165  14.860 -0.2459  0.1951  0.0614
13805TIP3    H162906   6.064   0.094  14.861  0.8118  1.1244 -0.2440
13805TIP3    H262907   5.927   0.129  14.809  1.1406  0.0321 -1.9723
13806TIP3   OH262908   3.071   6.285   4.482  0.3404  0.2803  0.1610
13806TIP3    H162909   3.156   6.328   4.491  1.0632 -0.8546 -0.9134
13806TIP3    H262910   3.054   6.286   4.387  0.5294 -2.0038  0.0593
13807TIP3   OH262911   0.265   1.383  16.166 -0.0034  0.0129  0.6951
13807TIP3    H162912   0.243   1.468  16.203 -1.6480  0.5119 -1.2399
13807TIP3    H262913   0.284   1.400  16.074  2.9770 -1.3028  0.9362
13808TIP3   OH262914   4.673   0.275  14.073  0.4566  0.4775  0.2137
13808TIP3    H162915   4.587   0.241  14.096 -0.5832  2.8139 -0.0014
13808TIP3    H262916   4.717   0.288  14.157  0.6788 -0.8174  0.3192
13809TIP3   OH262917   5.727   6.220  16.448  0.3870  0.2048  0.1276
13809TIP3    H162918   5.715   6.287  16.381  1.0972 -0.0560 -0.2750
13809TIP3    H262919   5.822   6.214  16.459  0.3500 -0.9710 -0.0855
13810TIP3   OH262920   2.822   1.594  13.608  0.0374 -0.4613 -0.0396
13810TIP3    H162921   2.763   1.623  13.677  0.2178 -1.0222  0.3584
13810TIP3    H262922   2.813   1.499  13.607 -1.3750 -0.3857 -2.0465
13811TIP3   OH262923   0.424   5.307  16.533  0.1255  0.1752 -0.0082
13811TIP3    H162924   0.356   5.353  16.581  0.7067 -0.4671  1.4851
13811TIP3    H262925   0.430   5.353  16.449 -1.3876  0.8929  0.2508
13812TIP3   OH262926   4.026   2.963   5.147  0.2705  0.2800 -0.1430
13812TIP3    H162927   4.106   2.922   5.179  0.0490  0.3195  0.4837
13812TIP3    H262928   4.004   2.915   5.067 -0.6461 -1.6968  1.2026
13813TIP3   OH262929   4.705   1.855   0.544 -0.4780 -0.0814  0.3292
13813TIP3    H162930   4.625   1.882   0.500 -0.8190 -0.0299  0.9806
13813TIP3    H262931   4.693   1.762   0.562  0.0648 -0.3401 -0.5370
13814TIP3   OH262932   5.515   6.634   5.208 -0.2454 -0.1165  0.1227
13814TIP3    H162933   5.468   6.556   5.240 -1.0913  0.3463  0.0334
13814TIP3    H262934   5.446   6.691   5.173  0.5398 -0.0944 -1.4748
13815TIP3   OH262935   5.882   2.702   2.231  0.5033 -0.2458 -0.0420
13815TIP3    H162936   5.885   2.623   2.178  0.5071 -0.0737 -0.2952
13815TIP3    H262937   5.804   2.691   2.286 -0.5057  0.3474 -1.2896
13816TIP3   OH262938   0.347   2.918   4.279 -0.2545 -0.0738 -0.3125
13816TIP3    H162939   0.402   2.996   4.290 -0.3232 -0.2540  1.6204
13816TIP3    H262940   0.402   2.845   4.307 -1.1276 -0.3654  0.7052
13817TIP3   OH262941   2.958   6.549   2.819 -0.8728 -0.2732 -0.3637
13817TIP3    H162942   3.014   6.532   2.743  1.2360 -0.1684  1.0828
13817TIP3    H262943   2.937   6.462   2.853  0.7367 -0.2920  0.6616
13818TIP3   OH262944   3.102   4.794   5.810  0.6122  0.2125 -0.1988
13818TIP3    H162945   3.095   4.699   5.799 -0.2952  0.1591  0.6941
13818TIP3    H262946   3.025   4.818   5.862  2.3931  0.9823  2.2568
13819TIP3   OH262947   5.620   3.633   4.210  0.4477  0.4696  0.2135
13819TIP3    H162948   5.673   3.562   4.175 -1.2920 -0.2560 -1.0698
13819TIP3    H262949   5.683   3.694   4.248  2.1938 -0.2315 -1.4457
13820TIP3   OH262950   0.669   4.906  11.489 -0.0822  0.2858 -0.4598
13820TIP3    H162951   0.731   4.833  11.485 -0.5848 -0.1136 -1.4628
13820TIP3    H262952   0.621   4.900  11.406 -0.2200  1.6837 -0.4957
13821TIP3   OH262953   6.298   0.047  14.400  0.6283 -0.3253 -0.2359
13821TIP3    H162954   6.387   0.027  14.429  1.0457  2.0334  0.3526
13821TIP3    H262955   6.260   0.098  14.472 -0.9754 -0.6663 -0.7841
13822TIP3   OH262956   6.464   6.273  13.377  0.3636 -0.2918 -0.2450
13822TIP3    H162957   6.391   6.212  13.372  0.7189 -0.6758 -0.8772
13822TIP3    H262958   6.448   6.323  13.457 -0.8075 -0.0776 -0.5899
13823TIP3   OH262959   3.392   6.401  15.238 -0.3414 -0.1267 -0.1061
13823TIP3    H162960   3.300   6.378  15.254 -1.4659  2.4539 -2.1672
13823TIP3    H262961   3.418   6.343  15.166 -1.7870  1.8304 -2.3554
13824TIP3   OH262962   3.347   4.473  11.208 -0.0190  0.5588 -0.0430
13824TIP3    H162963   3.255   4.475  11.232 -0.2465  0.8571 -0.9183
13824TIP3    H262964   3.362   4.555  11.162  1.1000  1.3039  1.5333
13825TIP3   OH262965   2.298   1.210   3.238 -0.1228  0.4698 -0.5744
13825TIP3    H162966   2.335   1.251   3.159  0.6968 -1.7446 -1.4195
13825TIP3    H262967   2.373   1.169   3.281 -0.5101  1.8458  1.5677
13826TIP3   OH262968   0.619   3.079  15.115  0.5453 -0.0605 -0.1604
13826TIP3    H162969   0.571   3.055  15.194  0.4012  1.6980  0.3240
13826TIP3    H262970   0.637   2.995  15.072  0.4094 -1.0396  1.5882
13827TIP3   OH262971   6.688   5.449   0.449  0.5863 -0.4705  0.5166
13827TIP3    H162972   6.742   5.524   0.424 -0.0298 -0.2710 -0.2531
13827TIP3    H262973   6.745   5.373   0.440  0.1443 -0.5458 -2.5812
13828TIP3   OH262974   2.229   3.003   5.783 -0.2677 -0.4001  0.1262
13828TIP3    H162975   2.266   3.086   5.754  0.0919 -1.0054 -1.2234
13828TIP3    H262976   2.257   2.939   5.717 -0.8843 -1.5193  0.9005
13829TIP3   OH262977   5.868   5.453   5.880 -0.2756 -0.0527 -0.4646
13829TIP3    H162978   5.826   5.524   5.928 -1.9869  0.1722 -2.1960
13829TIP3    H262979   5.875   5.485   5.790  1.3988 -1.0687 -0.7437
13830TIP3   OH262980   6.122   5.027   0.976 -0.2983 -0.2452 -0.3478
13830TIP3    H162981   6.144   4.978   1.055  1.0123  0.7878 -0.0187
13830TIP3    H262982   6.182   4.993   0.909 -0.6883 -0.4033 -0.6168
13831TIP3   OH262983   1.279   6.563  14.287  0.2182 -0.0487  0.1366
13831TIP3    H162984   1.341   6.618  14.239  0.4261 -1.6287 -1.5302
13831TIP3    H262985   1.200   6.563  14.234 -0.2470 -0.2729  0.8119
13832TIP3   OH262986   6.750   4.255   5.413 -0.3148  0.4054 -0.3345
13832TIP3    H162987   6.735   4.171   5.371 -0.8018 -0.1340  0.8759
13832TIP3    H262988   6.838   4.247   5.450 -0.5747  0.2101  0.2541
13833TIP3   OH262989   5.819   1.782   4.694  0.1830  0.1736  0.1191
13833TIP3    H162990   5.734   1.810   4.662  0.0862  2.1280  1.8726
13833TIP3    H262991   5.800   1.710   4.754 -0.3999  1.2236  1.2515
13834TIP3   OH262992   3.566   6.308   3.204 -0.1538  0.1862  0.2331
13834TIP3    H162993   3.512   6.240   3.163  2.1298 -2.0784  0.7005
13834TIP3    H262994   3.536   6.390   3.164 -1.4149 -1.3447 -2.2029
13835TIP3   OH262995   0.577   0.402  13.303  0.3470 -0.8057 -0.0735
13835TIP3    H162996   0.494   0.425  13.345 -1.0210 -2.8670 -1.4754
13835TIP3    H262997   0.644   0.435  13.364 -1.4789 -0.2731  1.7781
13836TIP3   OH262998   6.399   1.289   0.249  0.4542 -0.1902  0.6085
13836TIP3    H162999   6.377   1.202   0.216  0.9907 -1.2314  2.7700
13836TIP3    H263000   6.315   1.326   0.275  0.1632  0.1834 -0.7892
13837TIP3   OH263001   2.305   3.667  15.397  0.1861  0.2879  0.0159
13837TIP3    H163002   2.308   3.595  15.460 -1.0650  1.1830  1.1758
13837TIP3    H263003   2.377   3.724  15.423 -0.3423  0.6677  0.6960
13838TIP3   OH263004   1.209   0.783  12.662 -0.1622  0.4660  0.1889
13838TIP3    H163005   1.160   0.744  12.734  0.8417 -2.3465 -0.4975
13838TIP3    H263006   1.297   0.798  12.698  0.2632 -0.6864 -0.3140
13839TIP3   OH263007   2.152   3.737  15.999 -0.6608  0.3225  0.0266
13839TIP3    H163008   2.136   3.820  15.954  1.3980  1.8524  1.9399
13839TIP3    H263009   2.126   3.753  16.090  0.6369 -0.8232  0.6219
13840TIP3   OH263010   4.461   1.697  12.728  0.0068 -0.1580 -0.4008
13840TIP3    H163011   4.522   1.771  12.730 -0.1083 -0.0326 -1.2108
13840TIP3    H263012   4.437   1.684  12.820  1.0300 -0.0305 -0.1016
13841TIP3   OH263013   0.574   4.100   0.359  0.1154  0.2363  0.4461
13841TIP3    H163014   0.595   4.078   0.269 -0.6727 -1.4956  0.6462
13841TIP3    H263015   0.478   4.104   0.361  0.1235  0.1484  1.2280
13842TIP3   OH263016   6.370   2.772  14.596  0.3133 -0.0065  0.3363
13842TIP3    H163017   6.324   2.781  14.513 -0.1993  3.0074  0.8480
13842TIP3    H263018   6.305   2.736  14.656 -0.1108  0.3071  0.0636
13843TIP3   OH263019   3.162   1.977  12.090  0.2550  0.6872  0.0081
13843TIP3    H163020   3.079   1.935  12.114 -0.1586  1.2024 -0.4938
13843TIP3    H263021   3.173   2.046  12.156  0.3546  0.5307  0.1559
13844TIP3   OH263022   2.017   2.940  14.753  0.4628 -0.1248  0.1500
13844TIP3    H163023   1.923   2.955  14.746  0.4150 -0.7054 -0.5653
13844TIP3    H263024   2.050   2.957  14.665  1.3114  1.8938  0.7958
13845TIP3   OH263025   1.037   3.704   1.349  0.4628  0.2450  0.3978
13845TIP3    H163026   1.053   3.713   1.255 -1.1416  0.7042  0.1455
13845TIP3    H263027   1.022   3.611   1.363 -0.7385  0.3496 -0.0724
13846TIP3   OH263028   2.871   1.730  13.329  0.0130  0.8082  0.1885
13846TIP3    H163029   2.966   1.720  13.327 -0.0787 -0.3216  0.9182
13846TIP3    H263030   2.845   1.697  13.415 -1.0983  0.5673 -0.2261
13847TIP3   OH263031   4.522   0.094   3.609 -0.4522 -0.3105  0.3618
13847TIP3    H163032   4.439   0.142   3.598 -1.2623 -1.7584 -0.0944
13847TIP3    H263033   4.590   0.159   3.590 -1.5569  0.3341 -1.6589
13848TIP3   OH263034   3.013   3.503   4.340 -0.2115 -0.2349  0.2694
13848TIP3    H163035   2.933   3.489   4.391  0.9718 -2.4103  1.6987
13848TIP3    H263036   3.035   3.417   4.306  2.6130 -0.2202  1.7112
13849TIP3   OH263037   4.352   0.607   2.738  0.3037  0.5779 -0.7437
13849TIP3    H163038   4.429   0.551   2.736 -0.3216 -0.3872  0.7408
13849TIP3    H263039   4.387   0.696   2.735  1.5367  0.1759  0.6682
13850TIP3   OH263040   1.981   3.889  11.400 -0.4776  0.2617  0.6577
13850TIP3    H163041   2.004   3.805  11.359  0.0225 -0.8969  3.1346
13850TIP3    H263042   1.886   3.895  11.389 -0.5875 -0.8782  0.8127
13851TIP3   OH263043   3.243   3.785  17.094  0.7013 -0.1746 -0.0394
13851TIP3    H163044   3.169   3.797  17.153  0.1921 -0.2926 -0.6415
13851TIP3    H263045   3.271   3.695  17.110  0.3461 -0.3198 -0.2205
13852TIP3   OH263046   5.840   3.771  16.946  0.2190  0.0132  0.0421
13852TIP3    H163047   5.841   3.863  16.920 -0.2356 -0.4645 -1.8157
13852TIP3    H263048   5.752   3.741  16.926  0.6111 -1.0355 -0.2148
13853TIP3   OH263049   3.263   3.065   3.714 -0.2086 -0.1400  0.6539
13853TIP3    H163050   3.179   3.031   3.682 -0.2306  1.1100 -0.7314
13853TIP3    H263051   3.327   3.032   3.651  0.0465  0.6036  0.5136
13854TIP3   OH263052   5.705   0.119   2.999  0.1642  0.0312  0.7470
13854TIP3    H163053   5.740   0.171   3.071 -0.2716 -1.1424  1.8507
13854TIP3    H263054   5.611   0.111   3.018  0.0292 -0.2328  0.0114
13855TIP3   OH263055   4.989   3.256  15.702  0.0175  0.3846  0.2100
13855TIP3    H163056   4.968   3.279  15.793  1.6895 -0.7136  0.9193
13855TIP3    H263057   5.073   3.298  15.685 -0.4165  0.8257 -0.9593
13856TIP3   OH263058   0.679   4.642   1.092 -0.4324  0.1240 -0.2132
13856TIP3    H163059   0.596   4.686   1.109  0.1363  0.2412  2.7465
13856TIP3    H263060   0.736   4.712   1.059 -0.9880  0.4210 -0.5680
13857TIP3   OH263061   5.091   5.553   6.445 -0.0803 -0.1654  0.5894
13857TIP3    H163062   4.996   5.545   6.435 -0.6118 -0.3496  4.5259
13857TIP3    H263063   5.109   5.646   6.431 -0.5748 -0.3225 -1.4056
13858TIP3   OH263064   1.788   2.669   0.890  0.2015 -0.0533  0.4038
13858TIP3    H163065   1.838   2.633   0.817  0.3901 -2.2633  1.5448
13858TIP3    H263066   1.854   2.687   0.957 -0.3115 -1.4132  1.3090
13859TIP3   OH263067   2.868   6.549   4.921 -0.2754  0.1836  0.3909
13859TIP3    H163068   2.934   6.603   4.878 -0.5557 -0.5398 -0.9913
13859TIP3    H263069   2.847   6.481   4.857 -2.4995  0.5057  0.7257
13860TIP3   OH263070   4.143   4.892  12.957  0.4397  0.0283 -0.8762
13860TIP3    H163071   4.165   4.802  12.980  1.0276  0.5091  0.5476
13860TIP3    H263072   4.088   4.923  13.029  1.1036  1.1355 -0.8228
13861TIP3   OH263073   6.128   2.154  13.300 -0.7056 -0.5279  0.0606
13861TIP3    H163074   6.120   2.080  13.240 -0.8340  0.5529 -1.2971
13861TIP3    H263075   6.169   2.116  13.378 -3.3065 -2.6293  0.5767
13862TIP3   OH263076   4.154   1.853  11.790 -0.0248 -0.2764  0.1046
13862TIP3    H163077   4.111   1.792  11.850 -1.2638  0.4718 -0.0059
13862TIP3    H263078   4.098   1.855  11.713  1.5924 -1.3032 -1.1941
13863TIP3   OH263079   0.128   2.855   3.552 -0.6511  0.2070 -0.4011
13863TIP3    H163080   0.126   2.924   3.619 -1.4309  1.5919 -1.7849
13863TIP3    H263081   0.171   2.781   3.595 -0.0357  1.4523  1.2309
13864TIP3   OH263082   1.896   6.788  10.806  0.6066 -0.0845  0.7192
13864TIP3    H163083   1.925   6.875  10.781  1.2414 -0.3420  0.5383
13864TIP3    H263084   1.800   6.794  10.810  0.7085  1.1421  2.6079
13865TIP3   OH263085   1.488   0.385   0.586  0.1832 -0.0599 -0.5165
13865TIP3    H163086   1.553   0.334   0.635 -0.4690  0.1883  0.6343
13865TIP3    H263087   1.426   0.320   0.553  0.2051 -0.1505 -0.3765
13866TIP3   OH263088   2.728   6.346  15.218  0.2644 -0.1217 -0.3234
13866TIP3    H163089   2.733   6.251  15.223  0.0971 -0.2529 -1.9288
13866TIP3    H263090   2.634   6.365  15.218  0.2907  0.0110 -0.2851
13867TIP3   OH263091   2.609   1.394   3.299  0.0015 -0.2254  0.0613
13867TIP3    H163092   2.567   1.312   3.327 -0.6561  0.1003  0.0534
13867TIP3    H263093   2.586   1.457   3.367 -0.2912  0.1829 -0.4075
13868TIP3   OH263094   0.873   5.605  14.727 -0.7893  0.3633  0.1145
13868TIP3    H163095   0.851   5.645  14.643 -1.4601  0.1300  0.1778
13868TIP3    H263096   0.940   5.540  14.706 -0.6148  0.6295 -0.1670
13869TIP3   OH263097   6.562   6.361   4.128  0.7804  0.0769 -0.5761
13869TIP3    H163098   6.525   6.300   4.065 -0.4697  0.0237  0.1834
13869TIP3    H263099   6.627   6.309   4.176 -0.2347 -0.6473  0.0283
13870TIP3   OH263100   4.343   4.107   1.014 -0.0354  0.0392 -0.3366
13870TIP3    H163101   4.408   4.039   0.993  0.1080  0.3386 -0.8765
13870TIP3    H263102   4.351   4.170   0.942  0.7926  1.3450  0.8612
13871TIP3   OH263103   2.503   0.402   3.529 -0.1283  0.1460  0.0816
13871TIP3    H163104   2.536   0.454   3.602  2.8255 -2.2046  0.5932
13871TIP3    H263105   2.422   0.363   3.562  1.6374 -1.6547  2.5888
13872TIP3   OH263106   4.914   2.816  13.538  0.3896  0.1862 -0.2287
13872TIP3    H163107   4.885   2.897  13.578  0.0002 -0.1136  0.1035
13872TIP3    H263108   4.950   2.765  13.611  0.3921 -0.0451 -0.3899
13873TIP3   OH263109   3.158   2.195   0.671  0.6671 -0.0662  0.1704
13873TIP3    H163110   3.161   2.136   0.596  1.0158  1.6020 -1.2089
13873TIP3    H263111   3.172   2.282   0.633  2.9952  0.6696  2.3978
13874TIP3   OH263112   3.062   0.780  11.400 -0.1080 -0.1650  0.4161
13874TIP3    H163113   3.151   0.751  11.421 -1.3951 -4.0621  1.2832
13874TIP3    H263114   3.034   0.829  11.477  1.0971  0.7344  0.3096
13875TIP3   OH263115   6.329   5.275  11.121 -0.4234 -0.1231  0.2249
13875TIP3    H163116   6.247   5.234  11.148 -0.3529 -0.4224 -0.0017
13875TIP3    H263117   6.323   5.277  11.025  0.1688 -0.8749  0.1597
13876TIP3   OH263118   1.687   3.912  15.939  0.0539 -0.3066  0.2867
13876TIP3    H163119   1.745   3.967  15.887 -2.0335  0.4440 -1.4116
13876TIP3    H263120   1.697   3.824  15.901  2.2646 -0.8648  2.0103
13877TIP3   OH263121   1.656   4.676  13.592  0.2043  0.3481  0.0780
13877TIP3    H163122   1.613   4.750  13.634 -0.1980 -0.4850  1.1863
13877TIP3    H263123   1.607   4.662  13.512  0.4944  1.4806 -0.3168
13878TIP3   OH263124   5.602   1.410   4.600  0.0653 -0.5417 -0.2108
13878TIP3    H163125   5.645   1.458   4.671  0.6638 -1.7390  0.2590
13878TIP3    H263126   5.521   1.458   4.584  0.0575 -0.0846  1.0894
13879TIP3   OH263127   4.399   0.081   6.242  0.2406 -0.3546 -0.1755
13879TIP3    H163128   4.456   0.137   6.295  0.6218 -0.6890 -0.2274
13879TIP3    H263129   4.453   0.005   6.221 -0.1189 -0.5214 -0.5062
13880TIP3   OH263130   2.618   1.388  12.455  0.2989  0.3194 -0.0268
13880TIP3    H163131   2.648   1.399  12.545  2.3096  1.1933 -0.7334
13880TIP3    H263132   2.617   1.477  12.419 -2.3100  0.2243 -0.3943
13881TIP3   OH263133   5.767   3.242   3.952  0.6860  0.4300  0.6085
13881TIP3    H163134   5.675   3.217   3.948  0.8994 -0.5935  1.4697
13881TIP3    H263135   5.783   3.289   3.871 -0.7207  1.0928  0.6927
13882TIP3   OH263136   1.021   3.566  15.026 -0.3682  0.3565 -0.3079
13882TIP3    H163137   1.015   3.480  14.984  0.1170 -0.2658  0.8667
13882TIP3    H263138   0.937   3.576  15.072  0.2547 -0.2845  1.0100
13883TIP3   OH263139   2.424   0.762   4.543  0.6166  0.0315  0.1844
13883TIP3    H163140   2.491   0.828   4.528  0.3013 -0.0127 -1.7421
13883TIP3    H263141   2.344   0.813   4.562  0.6321  0.1720 -0.1214
13884TIP3   OH263142   5.987   4.179  11.605 -0.1437  0.2085 -0.2315
13884TIP3    H163143   6.014   4.258  11.558 -0.8953  0.6048 -0.0187
13884TIP3    H263144   6.043   4.110  11.570  1.4256  1.0676  0.5214
13885TIP3   OH263145   1.892   6.712   3.733 -0.1164  0.0058  0.3639
13885TIP3    H163146   1.964   6.664   3.691 -0.4201 -0.0763 -0.0681
13885TIP3    H263147   1.858   6.652   3.799  0.5492  0.2428  0.9346
13886TIP3   OH263148   0.706   5.622   0.532 -0.8501  0.1025  0.1066
13886TIP3    H163149   0.782   5.584   0.577  0.3568  0.4982 -1.5047
13886TIP3    H263150   0.644   5.550   0.524 -0.2670 -0.4757  0.6402
13887TIP3   OH263151   0.836   1.947   3.846  0.0454  0.1772  0.0403
13887TIP3    H163152   0.763   1.979   3.898 -0.6440  1.0054 -1.3900
13887TIP3    H263153   0.913   1.959   3.902 -0.9744 -1.6502  1.9734
13888TIP3   OH263154   0.454   3.492   6.009 -0.3635 -0.2868 -0.1718
13888TIP3    H163155   0.379   3.485   5.949 -0.2116 -0.8421 -0.3072
13888TIP3    H263156   0.520   3.434   5.971 -0.2286 -0.5725  0.4869
13889TIP3   OH263157   6.413   2.878  15.300  0.0179 -0.2000 -0.4492
13889TIP3    H163158   6.492   2.828  15.321  0.8495  2.0231  2.3848
13889TIP3    H263159   6.434   2.922  15.218  1.4946 -0.1506 -0.0780
13890TIP3   OH263160   3.922   0.751  13.621  0.3173 -0.3207  0.7249
13890TIP3    H163161   4.004   0.766  13.575  0.6942 -1.8577  0.8345
13890TIP3    H263162   3.914   0.826  13.680  1.5804 -0.0841  0.6249
13891TIP3   OH263163   1.712   0.710  12.904 -0.1850  0.2840  0.7461
13891TIP3    H163164   1.665   0.627  12.899  2.2080 -1.1360  0.2764
13891TIP3    H263165   1.734   0.730  12.813  0.0278  0.9786  0.9428
13892TIP3   OH263166   6.092   5.260   4.555  0.6583  0.3037 -0.3184
13892TIP3    H163167   6.107   5.278   4.647  3.0511  1.1927 -0.8179
13892TIP3    H263168   6.108   5.166   4.546  0.0864  0.1521  0.2144
13893TIP3   OH263169   3.049   5.719   5.684 -0.2606 -0.6591 -0.5217
13893TIP3    H163170   2.994   5.714   5.763 -0.5400  0.4119 -0.6235
13893TIP3    H263171   3.089   5.633   5.677 -0.5999 -0.9239  0.5315
13894TIP3   OH263172   4.680   2.243  13.163  0.1532 -0.1932 -0.3445
13894TIP3    H163173   4.634   2.165  13.132  0.3593 -0.1216 -0.8408
13894TIP3    H263174   4.747   2.209  13.223  0.1566 -0.3857 -0.4557
13895TIP3   OH263175   4.507   4.908  13.610 -0.0314 -0.3216  0.1691
13895TIP3    H163176   4.416   4.900  13.637 -1.1249 -0.4336 -3.1033
13895TIP3    H263177   4.544   4.821  13.624 -0.9012 -0.7230  0.0317
13896TIP3   OH263178   0.194   2.690   1.700  0.4794 -0.4970 -0.0190
13896TIP3    H163179   0.229   2.608   1.666  1.7950  0.7998 -2.0209
13896TIP3    H263180   0.152   2.666   1.782  0.9947 -3.1198 -0.4327
13897TIP3   OH263181   0.645   2.124   2.188 -0.1582  0.2739  0.2395
13897TIP3    H163182   0.707   2.083   2.128 -1.2493 -0.3809 -0.4774
13897TIP3    H263183   0.698   2.187   2.237  0.7238  1.0923 -1.6317
13898TIP3   OH263184   5.960   2.115   2.835 -0.0768  0.0444  0.1515
13898TIP3    H163185   5.941   2.021   2.841  0.7503 -0.0822  0.9363
13898TIP3    H263186   5.901   2.147   2.767 -0.5983 -0.9845  0.1035
13899TIP3   OH263187   0.831   0.013  11.756  0.2243 -0.3111 -0.5793
13899TIP3    H163188   0.835  -0.080  11.779  0.9136 -0.1772 -0.1400
13899TIP3    H263189   0.910   0.028  11.703 -0.5445 -0.2655 -1.7470
13900TIP3   OH263190   3.971   5.866  17.144 -0.4860 -0.3610 -0.5360
13900TIP3    H163191   3.890   5.862  17.092 -0.3482  1.3132 -0.9451
13900TIP3    H263192   3.956   5.938  17.206  1.3981  1.4108 -1.9853
13901TIP3   OH263193   2.596   4.488  11.353  0.3367 -0.2435 -0.3535
13901TIP3    H163194   2.563   4.457  11.269 -1.2659 -1.1781  0.5623
13901TIP3    H263195   2.544   4.565  11.373  1.1517  0.3528 -0.4936
13902TIP3   OH263196   6.175   1.727  15.182 -0.2858  0.4311 -0.0384
13902TIP3    H163197   6.085   1.707  15.156 -0.6640  0.6872  1.0178
13902TIP3    H263198   6.228   1.704  15.106 -1.4092  1.8100 -1.3055
13903TIP3   OH263199   3.644   6.112  14.986 -0.3655  1.0128  0.0086
13903TIP3    H163200   3.604   6.039  14.938 -0.6716  0.8720  0.4707
13903TIP3    H263201   3.723   6.133  14.936 -0.0018  0.0289  0.1443
13904TIP3   OH263202   2.490   0.889   1.581  0.5167 -1.2513 -0.1309
13904TIP3    H163203   2.567   0.926   1.537  0.2325  0.0369  0.3876
13904TIP3    H263204   2.499   0.794   1.571  2.6788 -1.1986  0.7056
13905TIP3   OH263205   6.784   5.881  17.180  0.2215  0.6643  0.5350
13905TIP3    H163206   6.822   5.813  17.125 -0.2428  1.8485 -1.3567
13905TIP3    H263207   6.689   5.870  17.169  0.0482 -0.0925  2.4521
13906TIP3   OH263208   2.598   2.256   2.205  0.1900 -0.1994  0.3715
13906TIP3    H163209   2.691   2.231   2.197  0.3229  0.0139  1.1512
13906TIP3    H263210   2.566   2.204   2.278 -0.4333 -0.6087 -0.1886
13907TIP3   OH263211   2.459   4.110   2.486 -0.0929  0.6852  0.1588
13907TIP3    H163212   2.440   4.078   2.398  0.8718  0.4400  0.0334
13907TIP3    H263213   2.380   4.089   2.536  0.2456 -1.3143 -0.0792
13908TIP3   OH263214   0.698   1.989   4.092 -0.6502 -0.3569 -0.3341
13908TIP3    H163215   0.627   2.053   4.083 -0.5142  0.1383  1.6203
13908TIP3    H263216   0.664   1.925   4.155  0.8830  0.3648  1.3456
13909TIP3   OH263217   3.173   1.175   6.492 -0.3692 -0.2285 -0.1887
13909TIP3    H163218   3.103   1.232   6.459 -0.8230  0.0939  1.2635
13909TIP3    H263219   3.254   1.222   6.473 -0.7238  0.8022  0.7303
13910TIP3   OH263220   1.828   0.630   2.960  0.1524 -0.3989 -0.2211
13910TIP3    H163221   1.831   0.722   2.933 -0.8492 -0.8118 -1.9273
13910TIP3    H263222   1.893   0.587   2.904 -1.9045 -1.2644 -2.1335
13911TIP3   OH263223   0.537   0.984   3.900  0.7001  0.6219  0.2818
13911TIP3    H163224   0.505   1.009   3.987  1.6274  2.2149  0.2111
13911TIP3    H263225   0.489   1.040   3.840 -3.1680 -3.3000 -0.8354
13912TIP3   OH263226   0.337   5.656  14.108 -0.3144  0.3023 -0.0486
13912TIP3    H163227   0.391   5.581  14.131  0.6550  1.6045  2.2204
13912TIP3    H263228   0.247   5.628  14.126  0.0242 -0.3722  0.6506
13913TIP3   OH263229   3.218   6.221  16.581 -0.1620 -0.2348 -0.1055
13913TIP3    H163230   3.127   6.244  16.599  0.0932  2.3923 -1.7394
13913TIP3    H263231   3.218   6.125  16.573 -2.8920 -0.2478 -0.6584
13914TIP3   OH263232   5.390   5.307  15.612  0.5563  0.2664 -0.4699
13914TIP3    H163233   5.335   5.346  15.544 -1.7488 -0.6761  0.7399
13914TIP3    H263234   5.328   5.265  15.672  2.6252 -0.8596  1.0126
13915TIP3   OH263235   3.244   4.231  16.220  0.0874  0.6109 -0.4739
13915TIP3    H163236   3.264   4.261  16.131 -1.8455  0.7138 -0.9049
13915TIP3    H263237   3.248   4.310  16.273 -0.0002  0.7665 -0.6937
13916TIP3   OH263238   5.548   0.881  13.760  0.4602  0.5588 -0.3836
13916TIP3    H163239   5.591   0.862  13.843 -1.8007 -0.4031  0.6571
13916TIP3    H263240   5.600   0.951  13.721  1.4870  1.1843  1.9364
13917TIP3   OH263241   3.432   5.990   2.277 -0.0798 -0.1898 -0.1295
13917TIP3    H163242   3.501   6.052   2.251  0.9183 -0.8788  0.7862
13917TIP3    H263243   3.388   6.032   2.350  0.6645 -0.5790  0.5587
13918TIP3   OH263244   0.980   4.015   0.439 -0.2767 -0.2799  0.4832
13918TIP3    H163245   1.048   4.073   0.474 -1.0782  1.5068 -0.7899
13918TIP3    H263246   1.028   3.938   0.409  1.2207  0.8994 -0.3301
13919TIP3   OH263247   0.855   4.403  16.105  0.4316 -0.2215 -0.4832
13919TIP3    H163248   0.932   4.384  16.050  1.3003 -1.1852  0.9820
13919TIP3    H263249   0.797   4.328  16.090  1.5692 -1.5666  1.3634
13920TIP3   OH263250   4.300   3.917   3.726  0.0506  0.0692  0.1054
13920TIP3    H163251   4.360   3.847   3.752 -1.0164 -1.6624 -1.8373
13920TIP3    H263252   4.265   3.950   3.808  2.3026 -0.0546  1.1985
13921TIP3   OH263253   3.631   3.028   1.533  0.4464 -0.3220 -0.2006
13921TIP3    H163254   3.617   3.066   1.620 -0.8051  0.9615 -0.9138
13921TIP3    H263255   3.713   3.069   1.503  0.0341  0.4848 -0.2533
13922TIP3   OH263256   0.428   0.442  12.766 -0.1914 -0.7515  0.1712
13922TIP3    H163257   0.353   0.430  12.708 -1.1035 -0.0234  1.1634
13922TIP3    H263258   0.409   0.385  12.841  0.7273 -1.2924  0.0069
13923TIP3   OH263259   1.427   5.443  11.932 -0.1859 -0.4415  0.6199
13923TIP3    H163260   1.397   5.533  11.922  0.0759 -0.0931  2.5356
13923TIP3    H263261   1.360   5.390  11.888 -0.3524  0.6754 -0.4929
13924TIP3   OH263262   0.936   6.203   2.352  0.2384 -0.2185  0.0665
13924TIP3    H163263   0.989   6.229   2.276  0.0117 -1.7421 -0.6519
13924TIP3    H263264   0.999   6.192   2.423  0.6933 -0.5303 -0.3813
13925TIP3   OH263265   1.775   5.708  15.277 -0.4312  0.2696 -0.1110
13925TIP3    H163266   1.824   5.708  15.359 -0.7372 -0.4783  0.0778
13925TIP3    H263267   1.834   5.668  15.213 -0.2445  0.7272 -0.2305
13926TIP3   OH263268   0.345   5.408   0.303  0.3802  0.3849 -0.5175
13926TIP3    H163269   0.354   5.499   0.330  0.9074  0.1743  0.0471
13926TIP3    H263270   0.251   5.395   0.292  0.1465  0.5179  1.1420
13927TIP3   OH263271   6.634   4.657  12.404 -0.8843 -0.3369 -0.0141
13927TIP3    H163272   6.663   4.747  12.395  2.3373 -1.3083 -0.5313
13927TIP3    H263273   6.592   4.653  12.490 -0.6090  1.5148  0.2466
13928TIP3   OH263274   2.957   1.160  13.970 -0.5085  0.5320 -0.4990
13928TIP3    H163275   2.995   1.179  14.056  0.8787 -1.4339 -0.6347
13928TIP3    H263276   2.863   1.177  13.982 -0.5088 -0.6519  1.7176
13929TIP3   OH263277   5.849   0.357  13.340 -0.6560 -0.2221 -0.2229
13929TIP3    H163278   5.848   0.270  13.300 -1.3707 -0.0806 -0.5365
13929TIP3    H263279   5.886   0.414  13.272  0.2046 -0.3505  0.1374
13930TIP3   OH263280   6.618   5.843  12.046 -0.7959  0.2043 -0.5410
13930TIP3    H163281   6.673   5.907  12.091  1.4539 -1.1672 -1.1779
13930TIP3    H263282   6.614   5.769  12.107  0.6234 -0.8786 -1.6859
13931TIP3   OH263283   5.558   5.614   4.652  0.4092  0.3650 -0.2114
13931TIP3    H163284   5.614   5.665   4.594 -0.7107  0.8725 -0.8724
13931TIP3    H263285   5.475   5.606   4.604 -0.6069  0.9482  1.3837
13932TIP3   OH263286   0.071   0.979  11.717 -0.0949 -0.0143  0.3446
13932TIP3    H163287   0.142   1.042  11.723  0.2123 -0.4265  1.4256
13932TIP3    H263288   0.083   0.923  11.794 -1.3477 -0.3431  0.3246
13933TIP3   OH263289   2.451   1.650  16.258 -0.4675  0.0906  0.1590
13933TIP3    H163290   2.466   1.594  16.334 -0.9241  1.6032  1.4193
13933TIP3    H263291   2.384   1.712  16.287  0.4655  1.6785 -0.9522
13934TIP3   OH263292   0.119   3.821  11.545 -0.1683 -0.3009 -0.2051
13934TIP3    H163293   0.093   3.729  11.546  1.5940 -0.8440  0.2847
13934TIP3    H263294   0.185   3.826  11.476 -1.9021  1.1380 -1.8377
13935TIP3   OH263295   6.669   4.024   3.304 -0.2437 -0.0353 -0.2746
13935TIP3    H163296   6.753   3.980   3.317  1.1120  2.8755  2.1736
13935TIP3    H263297   6.693   4.107   3.262 -1.8965  0.8142  0.4071
13936TIP3   OH263298   5.362   2.519  17.124 -0.1787 -0.6011 -0.0860
13936TIP3    H163299   5.323   2.451  17.069 -3.5729  0.1291  1.1577
13936TIP3    H263300   5.298   2.590  17.123  0.6161  0.3315  2.9954
13937TIP3   OH263301   5.205   4.360  14.381 -0.0081  0.2094 -0.0989
13937TIP3    H163302   5.155   4.300  14.326 -1.1713 -0.2879  1.4518
13937TIP3    H263303   5.200   4.323  14.469  1.1927  1.3649  0.4946
13938TIP3   OH263304   5.630   0.764   4.987  0.7180 -0.1095 -0.1884
13938TIP3    H163305   5.637   0.670   4.999  2.4626 -0.2443 -1.7455
13938TIP3    H263306   5.596   0.774   4.898 -0.4750  0.7625  0.3342
13939TIP3   OH263307   2.915   3.824   4.742 -0.4988 -0.3464  0.2387
13939TIP3    H163308   2.938   3.732   4.728 -0.0838 -0.2189  0.0582
13939TIP3    H263309   3.000   3.868   4.750 -0.6974  0.0307  0.2508
13940TIP3   OH263310   6.577   1.035  12.382  0.2385  0.1346 -0.0154
13940TIP3    H163311   6.653   1.084  12.350 -0.3652  0.0948 -1.6131
13940TIP3    H263312   6.547   1.083  12.459  0.7981  1.1772 -0.4406
13941TIP3   OH263313   0.542   6.121   2.594 -0.4215  0.4618 -0.2080
13941TIP3    H163314   0.470   6.134   2.655 -1.2436  0.2523 -1.1247
13941TIP3    H263315   0.502   6.083   2.516  0.5639  1.0463 -1.0201
13942TIP3   OH263316   3.000   4.581  15.555 -0.0716 -0.0355  0.0258
13942TIP3    H163317   2.922   4.585  15.610  0.3172  0.2200  0.5729
13942TIP3    H263318   3.065   4.634  15.601 -0.0861  1.1635 -1.2808
13943TIP3   OH263319   6.179   6.235   0.115 -0.3286  0.3415  0.5396
13943TIP3    H163320   6.119   6.162   0.098 -0.6758  1.0483 -1.6214
13943TIP3    H263321   6.241   6.201   0.179 -1.2210 -1.4305  0.5335
13944TIP3   OH263322   5.744   4.944  16.988 -0.2169  0.0288 -0.0220
13944TIP3    H163323   5.744   4.897  17.071  1.4712  2.0063  1.2102
13944TIP3    H263324   5.792   4.887  16.928  2.6412  0.4511  1.6823
13945TIP3   OH263325   1.198   5.891   4.016  0.4573 -0.3099  0.4983
13945TIP3    H163326   1.210   5.868   3.924  0.9551 -0.1954  0.5313
13945TIP3    H263327   1.104   5.909   4.025  0.5712  0.7333 -0.2364
13946TIP3   OH263328   1.069   3.238   2.823  0.4564  0.4687  0.0993
13946TIP3    H163329   1.100   3.149   2.806 -0.4963  0.0938  0.2632
13946TIP3    H263330   1.148   3.292   2.819  0.9356 -0.2708 -0.7787
13947TIP3   OH263331   0.979   0.969  12.678  0.1779  0.2166 -0.6864
13947TIP3    H163332   1.041   0.929  12.617 -1.8192  0.6568 -3.1696
13947TIP3    H263333   0.918   0.898  12.700  0.5445  0.2134  0.3739
13948TIP3   OH263334   1.286   4.686  14.442 -0.3922  0.7922  0.2701
13948TIP3    H163335   1.213   4.625  14.451 -1.2876  1.5028 -1.7369
13948TIP3    H263336   1.356   4.635  14.401 -1.2239  1.1018 -1.6321
13949TIP3   OH263337   0.670   2.021  15.550  0.7871 -0.3277 -1.0446
13949TIP3    H163338   0.600   1.975  15.504 -0.3709  0.5610 -0.2410
13949TIP3    H263339   0.649   2.114  15.539  0.8403 -0.0695  0.6686
13950TIP3   OH263340   1.047   2.170  12.586  0.6086 -0.2828 -0.4330
13950TIP3    H163341   1.007   2.088  12.558 -0.0020 -0.4351  0.8289
13950TIP3    H263342   1.018   2.182  12.676  0.3472  1.5218 -0.7049
13951TIP3   OH263343   2.022   6.771  16.256 -0.3820 -0.5831 -0.2908
13951TIP3    H163344   1.952   6.836  16.249 -0.8772 -1.0875 -0.0949
13951TIP3    H263345   1.996   6.702  16.195  0.1747 -0.5740 -0.5412
13952TIP3   OH263346   3.924   6.584  12.455  0.5990  0.0702 -0.6494
13952TIP3    H163347   3.977   6.645  12.404  2.3103 -0.8887 -0.0939
13952TIP3    H263348   3.987   6.529  12.501 -0.5768  2.4651  4.5961
13953TIP3   OH263349   3.311   4.800   2.608  0.1611  0.0364  0.1537
13953TIP3    H163350   3.358   4.821   2.527  1.4657  0.9588  1.1101
13953TIP3    H263351   3.304   4.883   2.654 -0.2282 -0.5410  1.1593
13954TIP3   OH263352   2.625   6.224   3.391 -0.5277 -0.6793  0.2056
13954TIP3    H163353   2.657   6.190   3.308 -0.8132  0.4221 -0.3640
13954TIP3    H263354   2.559   6.289   3.367  0.6785  0.9887  1.2327
13955TIP3   OH263355   6.691   2.159  16.788 -0.3080  0.0309 -0.1173
13955TIP3    H163356   6.601   2.155  16.821  0.0243 -0.7893  0.7148
13955TIP3    H263357   6.707   2.072  16.753  0.1883  0.1604 -0.2164
13956TIP3   OH263358   6.385   1.273  16.641 -0.2766 -0.1728 -0.1034
13956TIP3    H163359   6.382   1.320  16.558  0.3625 -1.0549 -0.6392
13956TIP3    H263360   6.434   1.331  16.699  1.3125 -0.5369 -1.0206
13957TIP3   OH263361   5.348   5.425   2.750  0.5354 -0.2763  0.0080
13957TIP3    H163362   5.419   5.423   2.685 -0.1337  3.3856 -1.1050
13957TIP3    H263363   5.390   5.456   2.830  0.3733  1.5767 -0.5639
13958TIP3   OH263364   0.855   5.504  14.207  0.1369 -0.2497 -0.4008
13958TIP3    H163365   0.891   5.572  14.150 -0.2109  0.8698  0.6740
13958TIP3    H263366   0.788   5.461  14.153 -1.0170  1.5626 -0.5086
13959TIP3   OH263367   2.616   5.376  13.538 -0.2302 -0.4755  0.1233
13959TIP3    H163368   2.696   5.366  13.487  0.4000 -1.7310  1.2936
13959TIP3    H263369   2.553   5.318  13.496 -0.6523  0.6984 -0.9491
13960TIP3   OH263370   5.905   6.775  15.476 -0.0256 -0.2135 -0.0237
13960TIP3    H163371   5.837   6.760  15.410  0.7564  2.0078 -1.4660
13960TIP3    H263372   5.931   6.687  15.505 -0.7527 -1.2701 -2.3504
13961TIP3   OH263373   0.630   4.494  14.427 -0.8582  0.2470 -0.0024
13961TIP3    H163374   0.641   4.567  14.488 -0.9035  0.3368 -0.1012
13961TIP3    H263375   0.687   4.515  14.353  1.5503 -1.2870  1.2758
13962TIP3   OH263376   1.454   5.136  14.635 -0.5312 -0.1660  0.2341
13962TIP3    H163377   1.494   5.141  14.721 -2.2206 -0.2846  1.0781
13962TIP3    H263378   1.418   5.047  14.630  1.2485 -0.8502 -1.4251
13963TIP3   OH263379   0.396   2.159  13.741  0.0838 -0.0065 -1.0684
13963TIP3    H163380   0.486   2.180  13.765  0.1765  0.9992 -2.2307
13963TIP3    H263381   0.352   2.244  13.736 -1.8820 -0.5475  2.7919
13964TIP3   OH263382   6.434   4.923   2.349 -0.2604 -0.5611  0.3474
13964TIP3    H163383   6.450   4.830   2.330 -1.1404 -0.7050  0.2524
13964TIP3    H263384   6.372   4.922   2.421 -0.2415 -0.0391  0.3735
13965TIP3   OH263385   2.871   1.460   5.454  0.4885 -0.0834  0.6354
13965TIP3    H163386   2.848   1.400   5.383 -1.3976  0.2519  0.9152
13965TIP3    H263387   2.908   1.536   5.410  1.6887 -0.8984  0.1976
13966TIP3   OH263388   0.092   4.726   2.362  0.5469 -0.3781 -0.2295
13966TIP3    H163389   0.029   4.773   2.417  2.4978  1.4172  0.5971
13966TIP3    H263390   0.126   4.794   2.303  3.6513 -0.6055  1.1592
13967TIP3   OH263391   2.998   0.163   5.303 -0.1542  0.5861 -0.5418
13967TIP3    H163392   2.993   0.240   5.246 -0.1463  0.4547 -0.7210
13967TIP3    H263393   3.048   0.099   5.252 -1.4916 -0.0972 -1.0472
13968TIP3   OH263394   4.464   2.255   5.197  0.4060 -0.0407  0.4546
13968TIP3    H163395   4.399   2.323   5.216  0.6077 -0.0090  1.0614
13968TIP3    H263396   4.537   2.274   5.257  0.2466 -1.0899  1.0057
13969TIP3   OH263397   0.783   0.597   1.005  0.1479 -0.1846 -0.0290
13969TIP3    H163398   0.687   0.598   0.999  0.0005 -3.3817 -0.0509
13969TIP3    H263399   0.812   0.623   0.918 -0.8398 -1.5785 -0.8379
13970TIP3   OH263400   4.627   1.081   5.889 -0.7494  0.2503  0.1752
13970TIP3    H163401   4.574   1.090   5.810 -1.1877 -0.1836  0.4146
13970TIP3    H263402   4.712   1.119   5.866 -0.5326 -0.7997 -0.8445
13971TIP3   OH263403   3.454   6.538   5.789 -0.3679 -0.0687  0.2796
13971TIP3    H163404   3.474   6.632   5.782 -0.6372 -0.0573 -0.4283
13971TIP3    H263405   3.539   6.497   5.803 -0.0097  0.1259 -1.1714
13972TIP3   OH263406   4.252   2.179   6.889 -0.3589  0.0008 -0.1432
13972TIP3    H163407   4.226   2.088   6.879 -0.8078  0.0882  0.1639
13972TIP3    H263408   4.192   2.228   6.833 -1.6236  0.3071  1.3804
13973TIP3   OH263409   5.336   4.681  11.963  0.0543  0.2287  0.1119
13973TIP3    H163410   5.270   4.620  11.995  0.8324 -0.2983  0.7446
13973TIP3    H263411   5.305   4.767  11.992  0.7862 -0.2289  2.4628
13974TIP3   OH263412   5.485   5.593  15.206 -0.1465  0.0620  0.4025
13974TIP3    H163413   5.427   5.553  15.142  1.5794 -1.4624 -0.2885
13974TIP3    H263414   5.570   5.599  15.161  1.0805 -0.8870  2.4605
13975TIP3   OH263415   0.849   2.851   5.550 -0.3092 -0.1272  0.3099
13975TIP3    H163416   0.924   2.841   5.491 -0.6321  0.4605 -0.2110
13975TIP3    H263417   0.886   2.894   5.627 -0.3907  1.8137 -0.6488
13976TIP3   OH263418   1.466   0.576   2.227 -0.3428  0.2977  0.1032
13976TIP3    H163419   1.506   0.511   2.169  0.2490  0.8640 -0.1377
13976TIP3    H263420   1.405   0.526   2.281 -0.3543 -0.3547 -0.5026
13977TIP3   OH263421   2.050   0.648  15.652 -0.2824  0.3539  0.2219
13977TIP3    H163422   2.066   0.618  15.563 -0.8771 -1.0633  0.5744
13977TIP3    H263423   2.112   0.599  15.706 -0.6487  0.4195  0.7116
13978TIP3   OH263424   1.681   2.301   0.161  0.5718 -0.0283 -0.2307
13978TIP3    H163425   1.743   2.343   0.102  1.8622  0.1887  1.1996
13978TIP3    H263426   1.721   2.216   0.181  0.1307 -0.1275  0.2552
13979TIP3   OH263427   6.135   3.569  16.736  0.6718  0.1123  0.3448
13979TIP3    H163428   6.214   3.570  16.681  0.3893 -0.1178 -0.0641
13979TIP3    H263429   6.169   3.578  16.825  1.2757 -1.3397  0.3018
13980TIP3   OH263430   1.319   2.882   5.417  0.0941  0.1723 -0.6869
13980TIP3    H163431   1.311   2.804   5.472  0.6857  0.4867 -0.1484
13980TIP3    H263432   1.410   2.883   5.387 -0.1414  0.1691 -1.4367
13981TIP3   OH263433   5.969   1.295   3.525 -0.0100  0.4640  0.1966
13981TIP3    H163434   5.985   1.380   3.566 -2.2945  1.0780 -0.0967
13981TIP3    H263435   5.976   1.232   3.597 -0.8098  1.1809  0.9167
13982TIP3   OH263436   4.319   4.982   1.843  0.0456 -0.0910 -0.5507
13982TIP3    H163437   4.227   5.007   1.850  0.1046 -0.1352  0.8105
13982TIP3    H263438   4.320   4.888   1.863  0.6783  0.5101  2.9134
13983TIP3   OH263439   0.839   1.384  11.793 -0.1740 -0.1662 -0.1234
13983TIP3    H163440   0.919   1.385  11.846  0.7082 -0.3213 -1.4115
13983TIP3    H263441   0.776   1.334  11.846 -0.8073  3.2351  2.7434
13984TIP3   OH263442   4.720   1.397  12.691 -0.0112  0.4795 -0.0376
13984TIP3    H163443   4.676   1.334  12.749  2.5671  0.5069  2.1285
13984TIP3    H263444   4.753   1.343  12.619  1.2241 -0.5250  1.2248
13985TIP3   OH263445   6.511   2.374   3.529  0.6615 -0.1604  0.1965
13985TIP3    H163446   6.559   2.451   3.560  0.1073  0.9257 -1.4861
13985TIP3    H263447   6.538   2.364   3.438 -0.6525 -0.8281 -0.1515
13986TIP3   OH263448   1.927   5.784  10.784  0.1477  0.0677  0.1256
13986TIP3    H163449   2.004   5.790  10.840  0.6146 -0.9319 -0.3775
13986TIP3    H263450   1.951   5.831  10.704  0.5609 -0.9273 -0.3552
13987TIP3   OH263451   0.748   0.484   1.679 -0.2796  0.5241 -0.3317
13987TIP3    H163452   0.693   0.561   1.662 -0.3547  0.5042 -0.1798
13987TIP3    H263453   0.787   0.463   1.594  0.5529  1.3515 -0.1706
13988TIP3   OH263454   1.466   6.492   2.842 -0.2783 -0.2329  0.4791
13988TIP3    H163455   1.517   6.486   2.761 -1.1092 -0.3251 -0.0566
13988TIP3    H263456   1.467   6.585   2.864  0.5838 -0.3115  0.7885
13989TIP3   OH263457   2.134   4.421   0.374 -0.4988 -0.8263  0.4542
13989TIP3    H163458   2.050   4.404   0.416 -0.6762 -0.0104  0.4557
13989TIP3    H263459   2.136   4.362   0.299 -0.2706 -2.1532  1.4688
13990TIP3   OH263460   5.164   1.327   6.382 -0.1705 -0.1592  0.1469
13990TIP3    H163461   5.234   1.279   6.426 -0.3079 -1.4573 -0.9593
13990TIP3    H263462   5.084   1.294   6.422 -0.1963  0.6520  0.7795
13991TIP3   OH263463   0.851   3.119   5.100  0.0707  0.1210  0.0619
13991TIP3    H163464   0.928   3.115   5.156  0.1548  0.9892  0.0200
13991TIP3    H263465   0.859   3.043   5.042 -0.5515 -1.4199  1.8649
13992TIP3   OH263466   0.854   4.160  13.363 -0.7696  0.5627 -0.6605
13992TIP3    H163467   0.809   4.086  13.403 -2.2056  1.8655  0.2751
13992TIP3    H263468   0.946   4.145  13.381 -1.2209  0.1601  1.5687
13993TIP3   OH263469   6.668   5.264  13.638 -0.2446 -0.2533  0.0616
13993TIP3    H163470   6.717   5.193  13.597 -0.2637 -0.2941  0.1090
13993TIP3    H263471   6.687   5.256  13.732 -0.0228 -0.0239  0.0397
13994TIP3   OH263472   1.106   0.200   4.053 -0.5463  0.4776 -0.2779
13994TIP3    H163473   1.163   0.217   3.978 -0.5496 -1.1683 -0.6996
13994TIP3    H263474   1.160   0.219   4.129  0.5930 -0.9620 -0.6689
13995TIP3   OH263475   4.687   4.883  12.743 -0.5017  0.2120  0.6819
13995TIP3    H163476   4.709   4.975  12.731 -0.7900  0.3058  0.8686
13995TIP3    H263477   4.594   4.883  12.766 -1.0509 -0.2729 -1.3719
13996TIP3   OH263478   2.736   4.822  14.009 -0.0462  0.5426 -0.6707
13996TIP3    H163479   2.732   4.883  14.083  0.8003 -0.3261  0.1056
13996TIP3    H263480   2.748   4.879  13.933 -3.4420  1.6833 -0.5391
13997TIP3   OH263481   5.190   3.327  13.407  0.4757 -0.0347  0.3554
13997TIP3    H163482   5.124   3.384  13.447 -0.4289  0.3014 -1.5302
13997TIP3    H263483   5.177   3.242  13.449  0.5253  0.6272  1.7741
13998TIP3   OH263484   2.889   3.445  16.939  0.0415  0.3827  0.1916
13998TIP3    H163485   2.869   3.424  17.031 -0.9962 -2.3071 -0.5626
13998TIP3    H263486   2.815   3.499  16.911  0.1167  0.8070  0.7821
13999TIP3   OH263487   2.417   4.925   1.543  0.0779  0.1345  0.1090
13999TIP3    H163488   2.423   5.009   1.588 -1.4861 -0.8368  2.3931
13999TIP3    H263489   2.428   4.860   1.613 -2.5790 -1.4954 -0.8240
14000TIP3   OH263490   3.961   6.500   4.163  0.3824  0.2792 -0.0737
14000TIP3    H163491   3.954   6.457   4.249  0.7504  2.4615  1.1343
14000TIP3    H263492   3.953   6.429   4.100  0.7630 -1.5158  1.7745
14001TIP3   OH263493   4.870   3.738  15.946  0.5700  0.2696  0.6502
14001TIP3    H163494   4.893   3.786  15.866  0.3814 -0.2768  0.2568
14001TIP3    H263495   4.779   3.713  15.934  0.7680 -0.4927  0.6816
14002TIP3   OH263496   5.234   2.197  12.570  0.6090  0.4907  0.1102
14002TIP3    H163497   5.220   2.197  12.476  0.8072  1.2311  0.0722
14002TIP3    H263498   5.219   2.288  12.597  0.4782  0.2750  0.8044
14003TIP3   OH263499   1.544   6.261   5.889  0.3655  0.1290 -0.9666
14003TIP3    H163500   1.617   6.291   5.942  1.6689 -2.0865 -1.3602
14003TIP3    H263501   1.490   6.339   5.875 -0.0883  0.8624  3.5417
14004TIP3   OH263502   3.773   4.237   5.375 -0.3500 -0.2617 -0.0171
14004TIP3    H163503   3.769   4.189   5.292 -2.8002 -0.5491  0.1972
14004TIP3    H263504   3.862   4.271   5.379  1.0817 -3.5797 -0.8420
14005TIP3   OH263505   2.760   4.440  12.712 -0.2691 -0.4162 -0.1880
14005TIP3    H163506   2.733   4.494  12.638 -0.5880  0.6642  0.6765
14005TIP3    H263507   2.682   4.435  12.768  0.5835  0.7573  1.1880
14006TIP3   OH263508   2.660   6.071   1.876  0.1188 -0.1403  0.3585
14006TIP3    H163509   2.705   5.987   1.872 -1.6677 -1.2020  1.1743
14006TIP3    H263510   2.576   6.055   1.833 -0.2662  1.2495  0.5346
14007TIP3   OH263511   3.989   3.703  13.485  0.3039 -0.4487  0.0149
14007TIP3    H163512   3.942   3.785  13.499  1.2221  0.4129 -1.5742
14007TIP3    H263513   3.953   3.643  13.549 -1.5885  0.7217  0.1226
14008TIP3   OH263514   3.751   1.703  11.856 -0.3683 -0.2439  0.1148
14008TIP3    H163515   3.839   1.703  11.893  0.2360 -0.9887 -1.2676
14008TIP3    H263516   3.747   1.784  11.804  0.0893 -0.9831 -1.1108
14009TIP3   OH263517   4.792   1.447  14.228  0.0170 -0.2278 -0.8786
14009TIP3    H163518   4.854   1.481  14.292 -0.1612  0.6953 -1.1752
14009TIP3    H263519   4.824   1.359  14.207  0.4541 -0.2752 -0.0367
14010TIP3   OH263520   3.697   4.232   0.945  0.6383 -0.4561  0.5842
14010TIP3    H163521   3.623   4.190   0.989  0.0037  1.5794  1.5523
14010TIP3    H263522   3.705   4.317   0.987  1.9042  0.3925 -1.2549
14011TIP3   OH263523   3.538   6.361  11.435 -0.1932  0.2677  0.4777
14011TIP3    H163524   3.591   6.439  11.454 -0.2421  0.6174 -0.7256
14011TIP3    H263525   3.464   6.395  11.386  0.3631 -0.6641 -1.0556
14012TIP3   OH263526   2.098   0.145   5.677 -0.3100  0.2083  0.3305
14012TIP3    H163527   2.006   0.170   5.674  0.4182  3.0075 -1.8269
14012TIP3    H263528   2.126   0.171   5.765 -1.7095 -1.6199  1.4087
14013TIP3   OH263529   1.756   2.585   4.015 -0.0706  0.4744  0.2950
14013TIP3    H163530   1.833   2.641   4.029 -0.0742  0.5191  0.1388
14013TIP3    H263531   1.709   2.627   3.943  0.7252 -0.5680 -0.8529
14014TIP3   OH263532   4.979   0.282  12.053 -0.0105  0.3046 -0.3184
14014TIP3    H163533   4.895   0.268  12.097  0.1731 -0.5914 -0.2440
14014TIP3    H263534   5.019   0.195  12.049  1.2370  0.8304  0.2756
14015TIP3   OH263535   4.619   3.811  13.955 -0.7269  0.4944 -0.0875
14015TIP3    H163536   4.542   3.817  14.012 -0.4955 -0.2237  0.3030
14015TIP3    H263537   4.685   3.865  13.998 -0.2624 -0.7599  0.8065
14016TIP3   OH263538   5.399   2.073   1.836 -0.1920  0.2290 -0.3180
14016TIP3    H163539   5.477   2.032   1.798  0.5631 -0.4037  1.7746
14016TIP3    H263540   5.425   2.165   1.849 -0.1957  0.2797 -0.6660
14017TIP3   OH263541   1.620   2.803   5.440 -0.9370  0.5018  0.3330
14017TIP3    H163542   1.669   2.869   5.392 -1.5307 -0.6777 -2.0170
14017TIP3    H263543   1.687   2.748   5.481 -0.2964  0.0125 -1.3061
14018TIP3   OH263544   5.686   6.135  14.826 -0.3528 -0.4111  0.3538
14018TIP3    H163545   5.659   6.145  14.918 -0.4810 -0.2133  0.2961
14018TIP3    H263546   5.750   6.204  14.812  0.1450 -0.8463  0.4730
14019TIP3   OH263547   3.392   0.889  15.048 -0.0265  0.2897 -0.3483
14019TIP3    H163548   3.401   0.983  15.029  1.3662  0.2497 -0.0376
14019TIP3    H263549   3.477   0.864  15.085 -1.6742 -0.1652  3.6609
14020TIP3   OH263550   1.897   4.051   2.597 -0.2249  0.1870 -0.8579
14020TIP3    H163551   1.939   3.972   2.565 -0.4779  0.2174 -1.2780
14020TIP3    H263552   1.954   4.123   2.568  0.3136  0.1251  0.0329
14021TIP3   OH263553   6.545   2.226   6.025 -0.1889 -0.1784  0.0105
14021TIP3    H163554   6.520   2.314   6.053 -2.1520 -0.9448  0.8853
14021TIP3    H263555   6.550   2.176   6.107 -0.6737 -1.2449 -0.5982
14022TIP3   OH263556   0.968   5.071   6.086  0.1574  0.0945  0.2979
14022TIP3    H163557   1.055   5.099   6.058  0.2625  0.3379  0.8432
14022TIP3    H263558   0.912   5.148   6.071  0.1350  0.0963  0.3877
14023TIP3   OH263559   1.671   1.777   4.142 -0.2245 -1.1698 -0.4503
14023TIP3    H163560   1.675   1.871   4.129 -0.0752 -1.1647 -0.3744
14023TIP3    H263561   1.590   1.762   4.190 -0.7026 -1.1740 -1.2543
14024TIP3   OH263562   1.555   3.174  14.402 -0.2434 -0.0939 -0.0162
14024TIP3    H163563   1.568   3.206  14.491 -2.0012  0.5846  0.0437
14024TIP3    H263564   1.525   3.251  14.353  0.8829 -0.4102 -1.2662
14025TIP3   OH263565   4.129   1.305   5.535  0.0469  0.1730 -0.1345
14025TIP3    H163566   4.129   1.216   5.572 -1.5764  0.2569  0.1078
14025TIP3    H263567   4.213   1.310   5.489 -0.3374 -1.9546 -1.2342
14026TIP3   OH263568   1.159   6.625   2.117  0.7595  0.2868 -0.4544
14026TIP3    H163569   1.189   6.711   2.146 -0.5227 -0.0696  2.1587
14026TIP3    H263570   1.068   6.621   2.144  0.0410 -0.9820 -2.7971
14027TIP3   OH263571   1.451   6.499   5.758  0.3547 -0.1086  0.2628
14027TIP3    H163572   1.484   6.589   5.758  1.9347 -0.6598  0.5474
14027TIP3    H263573   1.422   6.484   5.668 -0.4372  0.8421  0.3412
14028TIP3   OH263574   0.926   4.493  16.342 -0.2352  0.1802 -0.3756
14028TIP3    H163575   0.895   4.450  16.262  0.9499 -1.9225  0.2034
14028TIP3    H263576   0.894   4.583  16.335 -1.6907 -0.4111 -2.3441
14029TIP3   OH263577   6.686   5.697   1.193  0.1130 -0.8297 -0.3585
14029TIP3    H163578   6.617   5.631   1.184  0.8897 -1.5158 -1.6688
14029TIP3    H263579   6.714   5.691   1.284  0.1169 -2.2862 -0.4335
14030TIP3   OH263580   3.337   0.647   3.040  0.1028 -0.1213  0.4489
14030TIP3    H163581   3.247   0.620   3.021 -0.0881  0.7280  0.1266
14030TIP3    H263582   3.358   0.712   2.974 -0.3080  2.3550  2.5954
14031TIP3   OH263583   0.173   4.226  14.578  0.5586 -0.1297 -0.8872
14031TIP3    H163584   0.234   4.295  14.550 -0.6966  1.7285  0.6740
14031TIP3    H263585   0.102   4.273  14.621 -0.9804 -2.3656 -0.8083
14032TIP3   OH263586   5.358   4.602  16.164 -0.2899  0.1450 -0.2676
14032TIP3    H163587   5.348   4.512  16.135 -0.7440  0.7086 -1.9949
14032TIP3    H263588   5.274   4.644  16.142 -0.8040  0.5953  2.1973
14033TIP3   OH263589   6.522   0.140   5.702  0.0481 -0.2094  0.1096
14033TIP3    H163590   6.466   0.101   5.769 -1.6978  0.3942 -0.9156
14033TIP3    H263591   6.571   0.208   5.748 -0.2467 -0.5926  0.9968
14034TIP3   OH263592   6.195   6.793   1.171  0.0690 -0.2293 -0.5083
14034TIP3    H163593   6.260   6.845   1.124 -0.5964 -0.4208 -1.6901
14034TIP3    H263594   6.134   6.857   1.207 -0.2424 -0.1404 -1.1822
14035TIP3   OH263595   6.264   0.698  15.783 -0.1009 -0.3276 -0.1368
14035TIP3    H163596   6.274   0.751  15.703  1.4390  0.6145  0.6237
14035TIP3    H263597   6.239   0.612  15.751  1.7164 -0.3289 -1.7709
14036TIP3   OH263598   2.762   4.490  11.978 -0.2918 -0.5911 -0.1696
14036TIP3    H163599   2.825   4.562  11.982  0.1951 -0.7685 -3.0113
14036TIP3    H263600   2.807   4.417  12.021 -0.9288  0.7429  3.0733
14037TIP3   OH263601   1.141   6.778  11.639 -0.7368 -0.3725  0.5478
14037TIP3    H163602   1.211   6.823  11.687  1.9972 -2.7902 -0.8581
14037TIP3    H263603   1.128   6.832  11.561 -0.0533 -0.1366  0.5861
14038TIP3   OH263604   1.800   0.731   1.455 -0.6795  0.2991  0.4294
14038TIP3    H163605   1.756   0.706   1.374 -0.7577  0.9427  0.2701
14038TIP3    H263606   1.782   0.659   1.516 -0.8330 -0.0643 -0.0424
14039TIP3   OH263607   0.719   0.493   0.109 -0.8180 -0.3955 -0.0783
14039TIP3    H163608   0.668   0.545   0.048  1.2339 -1.3834 -2.8317
14039TIP3    H263609   0.789   0.455   0.056  2.7945  0.7731  3.2819
14040TIP3   OH263610   3.225   4.066  12.051 -0.2303  0.4143 -0.0856
14040TIP3    H163611   3.149   4.085  11.997 -0.6015 -1.2983 -0.2171
14040TIP3    H263612   3.235   3.971  12.046  2.3508  0.6486 -0.6610
14041TIP3   OH263613   4.048   5.861  15.659 -0.2671  0.4349 -0.2683
14041TIP3    H163614   4.026   5.793  15.722  0.5064  0.8769  0.4983
14041TIP3    H263615   4.143   5.867  15.661 -0.3426  2.0947  0.3168
14042TIP3   OH263616   2.163   6.754  17.178 -0.1959  0.1214 -0.1152
14042TIP3    H163617   2.104   6.827  17.196 -0.9370 -0.6244  0.5808
14042TIP3    H263618   2.172   6.708  17.262  0.1381 -0.6740 -0.5656
14043TIP3   OH263619   6.055   3.162  13.542 -0.1930  0.8331 -0.1259
14043TIP3    H163620   6.044   3.248  13.501  1.6242  0.6463 -1.0771
14043TIP3    H263621   6.112   3.179  13.618  2.0229  0.2274 -1.5440
14044TIP3   OH263622   6.676   5.770   3.813  0.1487  0.2281  0.8916
14044TIP3    H163623   6.690   5.676   3.827 -0.0652 -0.1653 -1.2106
14044TIP3    H263624   6.604   5.775   3.750  0.4235  1.7938  0.6515
14045TIP3   OH263625   2.403   1.200  13.649  0.0161 -0.6339  0.6342
14045TIP3    H163626   2.473   1.158  13.698 -0.2519  0.5026  2.0336
14045TIP3    H263627   2.389   1.284  13.693 -1.0132 -0.0677 -0.7025
14046TIP3   OH263628   5.606   3.217  17.122  0.4733  0.1096  0.2844
14046TIP3    H163629   5.632   3.297  17.077  0.0325 -0.9323 -1.9619
14046TIP3    H263630   5.634   3.146  17.064 -0.2954 -1.3384  1.5872
14047TIP3   OH263631   0.894   5.870  12.712 -0.0685  0.4889 -0.3326
14047TIP3    H163632   0.986   5.849  12.700 -0.6761 -1.8536 -1.4059
14047TIP3    H263633   0.894   5.955  12.756  2.5972 -0.0656  0.9095
14048TIP3   OH263634   2.835   0.774   4.283  0.5494 -0.2008  0.4306
14048TIP3    H163635   2.898   0.751   4.215  1.2156  0.2911  0.8625
14048TIP3    H263636   2.829   0.695   4.337  0.3157 -0.4590  0.0365
14049TIP3   OH263637   2.434   3.739   2.794  0.1787 -0.0416 -0.6937
14049TIP3    H163638   2.427   3.750   2.699 -0.1384  1.6795 -0.5036
14049TIP3    H263639   2.381   3.810   2.830  2.7611  1.2718  0.7787
14050TIP3   OH263640   4.167   4.342  13.503  0.1249 -0.2051 -0.5240
14050TIP3    H163641   4.074   4.321  13.502 -0.5426  1.8947  2.8742
14050TIP3    H263642   4.186   4.372  13.414 -2.4693 -0.3966 -1.2176
14051TIP3   OH263643   2.477   1.962   1.631  0.0681  0.5176 -0.3147
14051TIP3    H163644   2.411   1.894   1.646 -1.6503  2.0626 -0.5761
14051TIP3    H263645   2.549   1.938   1.690 -0.9733 -0.8642  0.4714
14052TIP3   OH263646   0.397   0.512  10.942  0.3570  0.1166 -0.8511
14052TIP3    H163647   0.463   0.530  11.009  1.3420  0.8421 -1.9667
14052TIP3    H263648   0.437   0.446  10.885 -0.8427 -1.1902 -0.2198
14053TIP3   OH263649   2.547   1.250  14.525 -0.4914 -0.1168  0.2704
14053TIP3    H163650   2.526   1.172  14.474 -0.6960  0.0144  0.1552
14053TIP3    H263651   2.638   1.268  14.505 -0.5255 -0.1603  0.0775
14054TIP3   OH263652   4.544   3.921   1.317  0.1460  0.4695 -0.4160
14054TIP3    H163653   4.622   3.951   1.363 -0.3913  0.4665  0.5143
14054TIP3    H263654   4.512   4.000   1.271 -0.6665  1.1053  1.1746
14055TIP3   OH263655   0.793   3.200   6.156 -0.2433 -0.5858  0.7453
14055TIP3    H163656   0.792   3.232   6.066  0.6700  0.7513  1.1742
14055TIP3    H263657   0.830   3.273   6.206 -0.5001 -1.4050  2.1635
14056TIP3   OH263658   5.116   2.696   5.165 -0.2158 -0.0477  0.5624
14056TIP3    H163659   5.048   2.707   5.098 -1.4325  2.8393  2.0840
14056TIP3    H263660   5.190   2.658   5.119 -1.4893  0.4837 -2.0945
14057TIP3   OH263661   0.684   2.224   1.611 -0.3127 -0.4149 -0.5199
14057TIP3    H163662   0.731   2.149   1.575  1.2886  0.4395 -0.2923
14057TIP3    H263663   0.727   2.300   1.573 -1.2475  0.4164  0.0354
14058TIP3   OH263664   5.052   3.020  13.921  0.3507  0.6308  0.0329
14058TIP3    H163665   4.994   3.089  13.953  0.9035  2.0079 -1.7566
14058TIP3    H263666   5.092   2.984  14.000 -1.4864  0.9237  1.1677
14059TIP3   OH263667   0.412   5.378  12.198 -0.4745 -0.1328 -0.0803
14059TIP3    H163668   0.390   5.442  12.266  2.3674  0.9907 -0.1068
14059TIP3    H263669   0.502   5.398  12.173 -0.9932 -1.1965 -3.4207
14060TIP3   OH263670   6.509   1.172  14.918  0.3585 -0.5036 -0.1816
14060TIP3    H163671   6.546   1.084  14.924 -1.3910 -1.5564 -3.0681
14060TIP3    H263672   6.431   1.169  14.973 -0.0400 -1.0013 -0.7568
14061TIP3   OH263673   3.225   4.752  13.736  0.2561 -0.7799  0.0776
14061TIP3    H163674   3.139   4.713  13.751 -0.3492  0.3737 -0.3019
14061TIP3    H263675   3.250   4.724  13.648  0.1535 -0.8813  0.0805
14062TIP3   OH263676   6.746   6.437   0.691  0.0735  0.2464  0.1177
14062TIP3    H163677   6.839   6.458   0.684  0.1363 -0.0296  0.1115
14062TIP3    H263678   6.743   6.342   0.690 -0.1004  0.2231  1.4701
14063TIP3   OH263679   3.817   0.471   0.453  0.9379  0.0292  0.0969
14063TIP3    H163680   3.739   0.452   0.505  0.9717  2.0974  1.0165
14063TIP3    H263681   3.880   0.403   0.478 -0.0449 -0.7596  0.4964
14064TIP3   OH263682   2.771   5.606   6.232 -0.1053 -0.3444  0.3478
14064TIP3    H163683   2.808   5.694   6.240 -0.7468  0.1278 -1.3301
14064TIP3    H263684   2.758   5.595   6.137 -1.8602 -1.4707  0.6858
14065TIP3   OH263685   0.798   1.013   0.877 -0.4815 -0.3468 -0.3015
14065TIP3    H163686   0.791   0.979   0.966  1.4798  0.7548  0.3303
14065TIP3    H263687   0.786   1.107   0.886 -0.1294 -0.2093 -1.1858
14066TIP3   OH263688   1.493   0.814   2.113 -0.5551  0.7637 -0.1258
14066TIP3    H163689   1.486   0.865   2.194 -1.9174  0.4063 -0.0078
14066TIP3    H263690   1.485   0.723   2.140  0.1243  0.5656 -0.5460
14067TIP3   OH263691   1.895   2.296  16.564 -0.2264 -0.2639  0.0964
14067TIP3    H163692   1.879   2.362  16.631  1.5538 -0.2713  0.5877
14067TIP3    H263693   1.813   2.246  16.559 -0.4290 -0.2319  2.2486
14068TIP3   OH263694   0.220   0.747   0.058 -0.6081  0.1361 -0.0245
14068TIP3    H163695   0.201   0.795  -0.023 -0.9432  0.7379  0.4003
14068TIP3    H263696   0.294   0.793   0.096  0.2131 -0.7717 -0.4955
14069TIP3   OH263697   4.995   2.376   3.736 -0.1116  0.8895  0.1727
14069TIP3    H163698   5.081   2.373   3.777  0.2801  1.1354 -0.6220
14069TIP3    H263699   4.992   2.460   3.691 -0.5838  0.6859 -0.1884
14070TIP3   OH263700   1.429   2.463   2.877  0.3569  0.4304  0.0194
14070TIP3    H163701   1.439   2.469   2.782 -0.8874  1.4224 -0.0653
14070TIP3    H263702   1.343   2.423   2.890  0.5939  0.1400  0.7359
14071TIP3   OH263703   0.983   6.475  11.236 -0.0732 -0.2773  0.0347
14071TIP3    H163704   0.934   6.401  11.200  0.5777 -1.0947  0.8101
14071TIP3    H263705   0.916   6.541  11.256 -0.4683  0.4523 -3.0646
14072TIP3   OH263706   1.920   5.402  14.117 -0.6377  0.6067 -0.0925
14072TIP3    H163707   1.870   5.436  14.042 -0.8427 -0.0555 -0.2664
14072TIP3    H263708   1.893   5.311  14.123 -1.5107  0.9453  1.5272
14073TIP3   OH263709   3.571   4.328  12.145  0.0304 -0.0217  0.0387
14073TIP3    H163710   3.495   4.303  12.198  0.0121 -0.8003 -0.3362
14073TIP3    H263711   3.620   4.246  12.135  2.0279  0.8181  1.9980
14074TIP3   OH263712   2.678   3.968   4.294 -0.5133  0.7014  0.8021
14074TIP3    H163713   2.724   3.969   4.210 -3.3817 -0.3491 -0.9524
14074TIP3    H263714   2.722   3.901   4.345  0.4308  0.3686 -0.4078
14075TIP3   OH263715   4.424   0.202   1.046 -0.0437  0.6768 -0.1819
14075TIP3    H163716   4.451   0.246   1.127 -0.8088  1.0261 -0.1013
14075TIP3    H263717   4.503   0.198   0.993  0.6348 -0.1317  0.8357
14076TIP3   OH263718   1.075   4.502  14.520  0.4605 -0.6009 -0.3639
14076TIP3    H163719   1.124   4.429  14.560  1.9539 -0.4802 -1.8574
14076TIP3    H263720   1.049   4.469  14.434  0.4590  0.3641 -0.7427
14077TIP3   OH263721   1.617   6.182  11.850  0.0593  0.2695  0.8875
14077TIP3    H163722   1.628   6.194  11.755  1.2200 -0.3739  0.9138
14077TIP3    H263723   1.612   6.270  11.885 -1.4892  0.5169  0.1272
14078TIP3   OH263724   2.731   2.397  16.017  0.1083  0.1107  0.4345
14078TIP3    H163725   2.690   2.420  16.101  0.5660  1.5295  0.3079
14078TIP3    H263726   2.808   2.346  16.040 -1.2109 -1.8341  0.7189
14079TIP3   OH263727   0.766   4.118   3.911  0.4106  0.0017  0.4797
14079TIP3    H163728   0.816   4.164   3.979  0.0428  0.7177  0.2722
14079TIP3    H263729   0.701   4.182   3.882 -0.8265 -1.0050  0.9411
14080TIP3   OH263730   5.311   3.947   0.986  0.1134  0.6651  0.3998
14080TIP3    H163731   5.254   3.972   0.913  0.9447 -0.3330 -0.6338
14080TIP3    H263732   5.335   3.856   0.967  2.8769  1.3511  0.2237
14081TIP3   OH263733   5.989   5.331  15.718 -0.1930  0.4260  0.0718
14081TIP3    H163734   5.997   5.371  15.805 -3.3653  0.2064  0.5625
14081TIP3    H263735   5.967   5.239  15.736  1.3659 -0.1993 -1.0239
14082TIP3   OH263736   3.940   2.522   3.494 -0.5858 -0.1394 -0.2117
14082TIP3    H163737   3.979   2.501   3.410 -0.2326  0.7039 -0.2713
14082TIP3    H263738   3.848   2.496   3.485 -0.3322 -0.9881 -0.4967
14083TIP3   OH263739   1.156   4.951  12.235 -0.6884 -0.2261 -0.1173
14083TIP3    H163740   1.211   4.960  12.157 -0.4039  0.0811  0.1160
14083TIP3    H263741   1.123   5.039  12.252 -0.5381 -0.2397  0.2615
14084TIP3   OH263742   0.042   2.699   4.764  0.6502  0.2484  0.5368
14084TIP3    H163743   0.003   2.633   4.707  0.9559  0.5713 -0.0667
14084TIP3    H263744  -0.020   2.711   4.835 -0.8470  1.4692 -0.8978
14085TIP3   OH263745   6.152   1.647   3.521  0.0823  0.0598 -0.2376
14085TIP3    H163746   6.176   1.734   3.491  0.6893  0.0350  0.1735
14085TIP3    H263747   6.235   1.602   3.534 -0.1293  0.2095  1.8961
14086TIP3   OH263748   2.383   2.851  11.995 -0.3110 -0.1405 -0.4510
14086TIP3    H163749   2.308   2.911  12.001 -0.3855 -0.1592 -1.1059
14086TIP3    H263750   2.458   2.904  12.023 -0.5265 -0.0420 -0.0535
14087TIP3   OH263751   5.360   0.669   1.027 -0.3852 -0.6201 -0.8701
14087TIP3    H163752   5.360   0.707   0.939 -2.1217  1.6863  0.0139
14087TIP3    H263753   5.290   0.603   1.024 -0.1639 -0.8392 -1.3228
14088TIP3   OH263754   4.843   1.645   0.825 -0.3938  0.3601  0.1348
14088TIP3    H163755   4.799   1.620   0.744  0.1035 -0.4359  0.1037
14088TIP3    H263756   4.804   1.589   0.892 -0.0349  0.2593  0.2579
14089TIP3   OH263757   4.105   0.609   4.721 -0.1191  0.6016 -0.0448
14089TIP3    H163758   4.143   0.646   4.801 -0.8641  0.6067  0.3267
14089TIP3    H263759   4.033   0.669   4.700 -2.9120 -1.7591  1.9011
14090TIP3   OH263760   0.682   0.554  13.507 -0.0841  0.2005 -0.6809
14090TIP3    H163761   0.641   0.550  13.594  1.2920 -2.9307 -0.0423
14090TIP3    H263762   0.649   0.635  13.469 -1.5255  1.2097  2.3654
14091TIP3   OH263763   1.409   2.682  12.434  0.1676  0.8862 -0.3442
14091TIP3    H163764   1.314   2.687  12.439  0.1341  0.0320 -0.0516
14091TIP3    H263765   1.440   2.736  12.508 -0.1037  0.4523  0.0883
14092TIP3   OH263766   4.258   5.948   4.255  0.2132 -0.0928  0.2409
14092TIP3    H163767   4.178   5.906   4.222 -0.0951  0.2436  0.5482
14092TIP3    H263768   4.329   5.903   4.209 -0.1906  0.1784 -0.6861
14093TIP3   OH263769   1.949   0.041   5.935 -0.4018 -0.0696  0.2247
14093TIP3    H163770   1.922   0.103   5.868 -2.7115 -0.6118  0.5738
14093TIP3    H263771   1.950   0.092   6.016  0.3578  0.0997  0.1209
14094TIP3   OH263772   5.714   6.677   5.026 -0.2628 -0.5778  0.0883
14094TIP3    H163773   5.765   6.604   4.989 -1.4113 -0.4203 -1.9787
14094TIP3    H263774   5.664   6.638   5.097  0.4275 -1.4177  0.1289
14095TIP3   OH263775   5.373   4.641  15.656  0.0597 -0.3869 -0.5322
14095TIP3    H163776   5.338   4.648  15.567  1.8068 -0.2585 -1.2487
14095TIP3    H263777   5.353   4.725  15.697 -1.0753 -0.5774 -0.6516
14096TIP3   OH263778   2.346   0.763  12.915 -0.2980  0.4920  0.4725
14096TIP3    H163779   2.287   0.786  12.843  0.6785  0.0913 -0.4736
14096TIP3    H263780   2.298   0.788  12.994 -2.7317 -1.9063 -0.0979
14097TIP3   OH263781   2.077   6.013  13.354  0.4232  0.6388  0.1238
14097TIP3    H163782   2.145   6.010  13.421  0.0557 -0.9517  0.4722
14097TIP3    H263783   2.106   5.950  13.288 -1.4094 -1.2742  1.0232
14098TIP3   OH263784   4.062   5.002   3.354  0.0234 -0.4870 -0.4381
14098TIP3    H163785   4.039   5.002   3.447  1.0569  0.9046 -0.1517
14098TIP3    H263786   4.030   5.086   3.321  1.5997 -0.0023 -0.8042
14099TIP3   OH263787   3.029   2.798   1.223  0.5140  0.0961 -0.3379
14099TIP3    H163788   2.981   2.874   1.258 -0.7956 -0.6212 -0.5012
14099TIP3    H263789   3.103   2.836   1.176  0.0447  1.2654 -0.1809
14100TIP3   OH263790   3.813   4.598   5.930 -0.0490 -0.8547  0.2463
14100TIP3    H163791   3.804   4.654   5.853 -1.3819 -2.2865 -0.7047
14100TIP3    H263792   3.784   4.512   5.900 -1.3866 -1.2946  2.5529
14101TIP3   OH263793   1.499   0.326   2.872  0.0413  0.1043 -0.0066
14101TIP3    H163794   1.465   0.243   2.840 -0.2680 -0.1308  0.9168
14101TIP3    H263795   1.481   0.388   2.800  2.2029 -1.0129 -1.6129
14102TIP3   OH263796   5.215   4.428   1.412  0.2876  0.3280 -0.1801
14102TIP3    H163797   5.185   4.343   1.379 -0.7467  0.2607  0.8525
14102TIP3    H263798   5.156   4.447   1.485 -0.1807  2.4472 -1.0678
14103TIP3   OH263799   4.837   4.702  17.186 -0.0892  0.0956  0.0118
14103TIP3    H163800   4.877   4.616  17.198  0.1565  0.3293  0.9085
14103TIP3    H263801   4.807   4.727  17.273  0.2985  1.1464 -0.1455
14104TIP3   OH263802   5.821   6.099   3.868  0.5312 -0.0747  0.3188
14104TIP3    H163803   5.806   6.136   3.782 -0.0956 -0.2802  0.3407
14104TIP3    H263804   5.773   6.156   3.928 -0.0730 -0.6602  0.3978
14105TIP3   OH263805   6.646   1.540   1.756 -0.0574  0.4660 -0.0142
14105TIP3    H163806   6.601   1.464   1.719 -0.0353 -0.0584  1.0181
14105TIP3    H263807   6.739   1.516   1.755  0.0844  0.9851 -0.8217
14106TIP3   OH263808   5.090   3.470   3.122  0.4788 -0.2884 -0.0820
14106TIP3    H163809   5.156   3.505   3.062  1.0625  0.5037  0.9853
14106TIP3    H263810   5.123   3.493   3.209  0.2732 -2.4630  0.6278
14107TIP3   OH263811   6.268   1.158  11.503  0.4215  0.0842 -0.7548
14107TIP3    H163812   6.340   1.218  11.482  0.3399  0.8748  1.0759
14107TIP3    H263813   6.189   1.207  11.483  0.3686  0.3290  0.0101
14108TIP3   OH263814   2.174   0.511  11.341 -0.1168 -0.4332  0.4129
14108TIP3    H163815   2.180   0.588  11.285  0.0824  0.7415  1.9714
14108TIP3    H263816   2.261   0.504  11.381  0.3369 -2.3576 -0.7748
14109TIP3   OH263817   4.375   0.540  11.074  0.0037 -0.1569 -0.6271
14109TIP3    H163818   4.293   0.495  11.095 -0.2549  0.1780 -0.9147
14109TIP3    H263819   4.349   0.630  11.053  0.3800 -0.1944 -1.2859
14110TIP3   OH263820   1.572   1.675   0.925 -0.6743 -0.3503 -0.1600
14110TIP3    H163821   1.629   1.749   0.905 -0.3496 -0.7411 -0.7174
14110TIP3    H263822   1.501   1.713   0.977 -1.1855  0.6067 -1.4764
14111TIP3   OH263823   3.149   4.144  14.792  0.0684  0.6549 -0.0282
14111TIP3    H163824   3.207   4.177  14.723 -0.6350 -0.9360 -1.4660
14111TIP3    H263825   3.167   4.200  14.868  1.1872  2.2028 -1.3640
14112TIP3   OH263826   0.724   0.651  12.091 -0.2702 -0.1198  0.2046
14112TIP3    H163827   0.781   0.717  12.130 -0.8975  0.0772  0.8083
14112TIP3    H263828   0.641   0.697  12.075  0.3184  0.1849 -2.5665
14113TIP3   OH263829   2.399   5.258  13.412 -0.2696  0.3483  0.6956
14113TIP3    H163830   2.408   5.323  13.343 -0.2463 -0.6892 -0.3227
14113TIP3    H263831   2.316   5.280  13.456 -1.4007 -0.2143 -1.0612
14114TIP3   OH263832   6.381   2.689  11.251  0.1640 -0.1652  0.2954
14114TIP3    H163833   6.436   2.750  11.200  0.4210  0.1588  0.9520
14114TIP3    H263834   6.306   2.672  11.194  0.7716 -0.3447 -0.4786
14115TIP3   OH263835   0.295   0.566  13.013 -0.1833  0.0244 -0.1781
14115TIP3    H163836   0.359   0.610  12.956  0.1794 -0.7338 -0.3683
14115TIP3    H263837   0.236   0.520  12.953  1.3469 -2.3929  0.0262
14116TIP3   OH263838   0.427   2.677  12.423 -0.1822 -0.3912 -0.1942
14116TIP3    H163839   0.350   2.734  12.416 -0.3628 -0.6449 -0.3203
14116TIP3    H263840   0.464   2.675  12.335 -1.6735 -2.5061 -0.8739
14117TIP3   OH263841   5.507   3.580   2.992  0.0502 -0.6941 -0.0287
14117TIP3    H163842   5.531   3.626   3.072  1.9947 -2.4069  0.4774
14117TIP3    H263843   5.579   3.598   2.931 -0.9054 -0.2404 -1.0701
14118TIP3   OH263844   3.563   5.039   4.500 -0.3325  0.2172 -0.2251
14118TIP3    H163845   3.505   4.977   4.543 -1.6288  1.9116  0.6114
14118TIP3    H263846   3.631   5.057   4.565 -2.3228  2.8243  1.3832
14119TIP3   OH263847   4.558   2.439  10.683 -0.0530  0.3224 -0.1633
14119TIP3    H163848   4.480   2.489  10.657 -0.1245  0.4268  0.2531
14119TIP3    H263849   4.569   2.457  10.776 -0.9133 -1.5358  0.3586
14120TIP3   OH263850   3.636   3.375   2.042  0.3402 -0.4566 -0.5983
14120TIP3    H163851   3.641   3.316   2.117 -1.6671 -0.8370 -0.7275
14120TIP3    H263852   3.647   3.462   2.079 -0.2687 -0.6695  0.0968
14121TIP3   OH263853   5.885   4.829  11.125  0.0470  0.4351  0.1176
14121TIP3    H163854   5.965   4.823  11.072 -0.2421  0.2745 -0.3063
14121TIP3    H263855   5.897   4.763  11.194  0.4583  0.6965  0.2965
14122TIP3   OH263856   1.829   2.883   6.900  0.0144  0.0555 -0.3188
14122TIP3    H163857   1.834   2.814   6.834  1.6784  1.8388 -2.2185
14122TIP3    H263858   1.767   2.946   6.864  1.5869  1.4630 -0.6999
14123TIP3   OH263859   2.157   0.891  11.981  0.2851  0.3244  0.8261
14123TIP3    H163860   2.063   0.875  11.992  0.6398 -2.7049  0.3010
14123TIP3    H263861   2.162   0.975  11.935 -2.2298 -0.1178 -0.4009
14124TIP3   OH263862   4.332   1.648  15.127 -0.3205  0.7143 -0.4631
14124TIP3    H163863   4.279   1.570  15.141 -0.7494  1.3678  2.2346
14124TIP3    H263864   4.350   1.649  15.033 -0.8616 -2.2265 -0.7007
14125TIP3   OH263865   0.258   4.158   0.338 -0.3848 -0.0615 -0.8831
14125TIP3    H163866   0.191   4.219   0.307  0.0826  1.0057  0.1371
14125TIP3    H263867   0.218   4.112   0.411 -0.7695 -1.0707 -1.7137
14126TIP3   OH263868   0.169   2.636   5.490 -0.0283 -0.4160 -0.3770
14126TIP3    H163869   0.203   2.552   5.520 -0.2544 -1.3544 -2.5585
14126TIP3    H263870   0.075   2.622   5.479 -0.4014  0.7272  1.0208
14127TIP3   OH263871   5.002   6.792   5.119 -0.5220  0.4377 -1.0009
14127TIP3    H163872   4.990   6.740   5.039  1.8333 -0.3396 -0.9209
14127TIP3    H263873   5.026   6.879   5.088  1.4130 -0.1315 -1.1956
14128TIP3   OH263874   1.088   0.461  15.449 -0.0290  0.1270 -0.3615
14128TIP3    H163875   1.114   0.371  15.434 -1.3063 -0.6657  1.8035
14128TIP3    H263876   1.107   0.506  15.366  0.4005 -2.1526 -1.5601
14129TIP3   OH263877   4.599   5.263   3.232 -0.4362  0.3906  0.0547
14129TIP3    H163878   4.524   5.214   3.266 -0.2000 -0.3044 -0.4207
14129TIP3    H263879   4.585   5.266   3.138 -1.3399  2.7329  0.1858
14130TIP3   OH263880   2.517   1.036  14.354 -0.0497  0.2848 -0.1856
14130TIP3    H163881   2.478   0.960  14.310  2.4599 -0.3535 -1.4887
14130TIP3    H263882   2.609   1.032  14.331  0.4417  2.9090  0.9909
14131TIP3   OH263883   1.274   0.690   0.091  0.6305 -0.0264 -0.1621
14131TIP3    H163884   1.348   0.739   0.127 -0.6408  1.0290  1.1588
14131TIP3    H263885   1.308   0.651   0.010  2.1399  1.8308 -0.5063
14132TIP3   OH263886   1.480   3.509  15.722  0.0252  0.1135 -0.1006
14132TIP3    H163887   1.428   3.472  15.794 -0.7320  0.9215 -0.2074
14132TIP3    H263888   1.421   3.571  15.680  0.3118 -0.6386 -1.6927
14133TIP3   OH263889   2.984   6.455   3.612 -0.2630  0.0709  0.2866
14133TIP3    H163890   2.912   6.445   3.550 -1.3988  2.5187  1.1119
14133TIP3    H263891   2.961   6.398   3.685 -0.2754 -0.7521 -0.3475
14134TIP3   OH263892   3.635   2.823  14.621  0.1762  0.5396  0.6561
14134TIP3    H163893   3.564   2.771  14.659  1.0483 -0.1924  1.3017
14134TIP3    H263894   3.710   2.808  14.678  1.8278 -1.4000 -1.8623
14135TIP3   OH263895   0.470   3.195  12.993 -0.1755  0.5106 -0.0976
14135TIP3    H163896   0.558   3.192  12.956  0.6084  0.1945  1.6811
14135TIP3    H263897   0.430   3.272  12.954  0.6204  0.2500 -1.4883
14136TIP3   OH263898   1.265   4.764   1.442  0.3978  0.0141 -0.1816
14136TIP3    H163899   1.237   4.804   1.525  0.0768  0.7175 -0.6243
14136TIP3    H263900   1.350   4.804   1.424  0.6262 -0.3915 -0.0296
14137TIP3   OH263901   5.690   0.169   3.451 -0.1531  0.2920 -0.4053
14137TIP3    H163902   5.609   0.145   3.405 -1.0143  1.6031  0.3538
14137TIP3    H263903   5.744   0.210   3.383 -0.5618  0.3760 -0.6874
14138TIP3   OH263904   4.670   2.512  13.169  0.3143  0.0368  0.4442
14138TIP3    H163905   4.718   2.528  13.088  0.8651  0.7360  0.8997
14138TIP3    H263906   4.651   2.418  13.168  0.6275 -0.0190 -0.3220
14139TIP3   OH263907   3.681   1.778  12.679 -0.1052  0.5604 -0.0240
14139TIP3    H163908   3.616   1.716  12.646 -0.6512  0.5151  1.0803
14139TIP3    H263909   3.756   1.766  12.621 -1.2047  0.9127 -1.5874
14140TIP3   OH263910   2.641   6.799  14.588 -0.7365  0.0382 -0.1322
14140TIP3    H163911   2.579   6.769  14.655 -1.2530 -0.9071 -1.0010
14140TIP3    H263912   2.589   6.858  14.534 -0.4001  0.5655  0.1121
14141TIP3   OH263913   0.746   5.168   3.678  0.5805  0.1596  0.1624
14141TIP3    H163914   0.728   5.102   3.745  1.5408 -0.8412 -0.5378
14141TIP3    H263915   0.764   5.118   3.599 -0.4749  1.3215 -0.8603
14142TIP3   OH263916   0.722   4.160  12.922 -0.4647 -0.0963 -0.2766
14142TIP3    H163917   0.722   4.213  13.002  2.2524  0.3840 -0.5088
14142TIP3    H263918   0.714   4.070  12.953 -2.4344  0.2218  0.2870
14143TIP3   OH263919   3.670   0.483  12.652 -0.6820 -0.1037 -0.1338
14143TIP3    H163920   3.576   0.474  12.667 -0.5834 -0.2738  0.4306
14143TIP3    H263921   3.678   0.544  12.579 -1.1816  2.8957  2.1453
14144TIP3   OH263922   4.107   5.372  13.276 -0.0069 -0.1924 -0.0307
14144TIP3    H163923   4.121   5.440  13.210 -0.5668 -1.4496 -1.5014
14144TIP3    H263924   4.055   5.305  13.231 -2.2938 -0.1402  2.2979
14145TIP3   OH263925   6.477   3.497   4.333  0.2044  0.2735 -0.0321
14145TIP3    H163926   6.435   3.492   4.419  1.8714 -0.3729  0.8055
14145TIP3    H263927   6.450   3.416   4.289  0.4484 -0.0925  0.4654
14146TIP3   OH263928   3.220   6.827  11.720 -0.0218 -0.3935 -0.5249
14146TIP3    H163929   3.190   6.838  11.810 -0.7413 -0.7485 -0.7130
14146TIP3    H263930   3.225   6.916  11.685 -0.1878 -0.2885 -0.2822
14147TIP3   OH263931   2.863   0.544   1.267 -0.4642  0.2646 -0.1021
14147TIP3    H163932   2.922   0.477   1.300  0.0102  0.5638 -0.3309
14147TIP3    H263933   2.810   0.570   1.343 -0.0098  0.2975  0.2058
14148TIP3   OH263934   1.103   0.703  13.942 -0.1842 -0.4687  0.2535
14148TIP3    H163935   1.108   0.694  14.037 -1.2408  0.1766  0.3962
14148TIP3    H263936   1.090   0.797  13.929 -0.8410 -0.6560 -0.4789
14149TIP3   OH263937   5.736   1.128   5.972  0.5172  0.9466 -0.6888
14149TIP3    H163938   5.719   1.167   6.057 -1.9772 -0.1886 -0.5737
14149TIP3    H263939   5.780   1.045   5.991 -2.6684 -0.7518 -0.1752
14150TIP3   OH263940   1.377   4.297   1.335  0.4886  0.0480  0.0729
14150TIP3    H163941   1.409   4.345   1.258 -3.0206  0.5689 -1.2232
14150TIP3    H263942   1.421   4.339   1.409  2.3317  0.9676 -1.4342
14151TIP3   OH263943   5.817   0.212  11.863  0.1199 -0.7822  0.3400
14151TIP3    H163944   5.861   0.269  11.926 -0.1507 -1.0183  0.7544
14151TIP3    H263945   5.887   0.178  11.807  0.4104 -0.8111  0.7135
14152TIP3   OH263946   5.597   3.853  12.817 -0.2866  0.8191  0.7089
14152TIP3    H163947   5.634   3.875  12.731  0.7530 -1.0748  0.6072
14152TIP3    H263948   5.663   3.797  12.857 -0.9958  1.2440  2.5556
14153TIP3   OH263949   1.822   3.314   3.643 -0.8340 -0.0558  0.0114
14153TIP3    H163950   1.741   3.295   3.596 -0.4842 -0.5029 -0.4061
14153TIP3    H263951   1.802   3.393   3.693 -1.3901  0.0833 -0.4260
14154TIP3   OH263952   0.240   6.564  11.539  0.2580  0.4140  0.5062
14154TIP3    H163953   0.216   6.480  11.580  0.2359 -0.4598 -1.1998
14154TIP3    H263954   0.225   6.549  11.445  2.5103  1.5526 -0.0940
14155TIP3   OH263955   0.359   3.218   4.228 -0.0928 -0.0201  0.3341
14155TIP3    H163956   0.297   3.170   4.283  1.1405 -0.7437  1.1533
14155TIP3    H263957   0.403   3.278   4.289  0.0636  0.4226 -0.2153
14156TIP3   OH263958   2.050   4.935  14.169  0.2797 -0.2384 -0.0874
14156TIP3    H163959   2.058   4.988  14.248 -1.2907  0.2710 -0.2442
14156TIP3    H263960   2.134   4.946  14.125  0.3384  1.3540  0.3634
14157TIP3   OH263961   4.448   1.745   2.182  0.6299 -0.0555  0.1415
14157TIP3    H163962   4.531   1.702   2.203  1.2240  1.5951  1.3707
14157TIP3    H263963   4.382   1.677   2.194  1.8473 -1.7249 -1.9419
14158TIP3   OH263964   3.882   2.902   2.941 -0.4975 -0.1807 -0.0212
14158TIP3    H163965   3.857   2.868   3.027  1.9828 -1.1418  0.4117
14158TIP3    H263966   3.944   2.837   2.907 -1.3089  0.2457 -2.5091
14159TIP3   OH263967   4.506   5.045  11.305 -0.5385  0.0563  0.6636
14159TIP3    H163968   4.491   5.139  11.319 -0.6728  0.0951  0.2722
14159TIP3    H263969   4.576   5.042  11.239 -1.9085 -0.0917 -0.8568
14160TIP3   OH263970   1.328   1.815   3.914 -0.0447  0.0611  0.1860
14160TIP3    H163971   1.344   1.736   3.863  0.6852  0.7560 -0.6980
14160TIP3    H263972   1.292   1.877   3.851 -1.0496  0.2886  0.9731
14161TIP3   OH263973   1.161   6.710   1.475  0.4318 -0.6365 -0.1059
14161TIP3    H163974   1.088   6.656   1.505 -1.2868  0.8940 -1.3091
14161TIP3    H263975   1.185   6.762   1.552 -0.8682  0.0094 -0.1139
14162TIP3   OH263976   0.775   0.309  11.822  0.2957 -0.1877  0.2390
14162TIP3    H163977   0.797   0.219  11.847 -0.8610 -0.2353  1.1791
14162TIP3    H263978   0.790   0.360  11.901 -0.9105  0.1085  0.2994
14163TIP3   OH263979   1.723   5.384   1.568 -0.5047 -0.5512 -0.2455
14163TIP3    H163980   1.713   5.389   1.663 -0.8465  2.3447 -0.3461
14163TIP3    H263981   1.807   5.341   1.555  1.2002  1.9245  1.5637
14164TIP3   OH263982   4.562   3.129  13.883 -0.1224 -0.4246 -0.4534
14164TIP3    H163983   4.634   3.180  13.845 -1.5604  1.0920 -1.3013
14164TIP3    H263984   4.491   3.137  13.819 -0.9352 -2.2057  0.1644
14165TIP3   OH263985   6.160   2.765  15.372  0.3025  0.0592  0.3011
14165TIP3    H163986   6.134   2.703  15.304 -0.7421 -0.8859  1.5055
14165TIP3    H263987   6.249   2.792  15.348  0.8608 -2.0282 -0.1981
14166TIP3   OH263988   1.463   3.813   5.632 -0.4812  0.0133  0.2727
14166TIP3    H163989   1.539   3.857   5.594 -0.4623  0.1146  0.4247
14166TIP3    H263990   1.403   3.885   5.656 -0.8385 -0.0909 -0.2969
14167TIP3   OH263991   6.737   5.500   0.785  0.4742 -0.1797  1.1404
14167TIP3    H163992   6.768   5.491   0.695  0.1650 -0.2672  1.0417
14167TIP3    H263993   6.648   5.464   0.783  1.4377 -2.8804  2.0944
14168TIP3   OH263994   6.130   0.681  14.444 -0.1525  0.3482  0.6123
14168TIP3    H163995   6.223   0.681  14.422  0.0947 -3.9405  0.7854
14168TIP3    H263996   6.089   0.735  14.376  2.1875  0.1650 -1.0614
14169TIP3   OH263997   1.828   1.390  16.449 -0.3785  0.2666  0.0131
14169TIP3    H163998   1.749   1.412  16.401 -0.6195 -0.6273 -0.0159
14169TIP3    H263999   1.812   1.419  16.539 -0.6361  0.3230 -0.0538
14170TIP3   OH264000   1.052   6.040   1.510 -0.6142  0.0712 -0.5413
14170TIP3    H164001   1.146   6.055   1.497 -0.1036 -0.4971  1.9622
14170TIP3    H264002   1.033   5.962   1.458  0.3667  0.0380 -0.8674
14171TIP3   OH264003   0.990   6.410   0.021 -0.0885 -0.0746  0.9299
14171TIP3    H164004   0.982   6.332   0.076 -1.0967  0.3807  1.4391
14171TIP3    H264005   0.936   6.476   0.063  0.8313  0.9565  0.5619
14172TIP3   OH264006   1.671   2.677   2.172 -0.8036 -0.0160  0.3497
14172TIP3    H164007   1.639   2.729   2.099 -0.3783  1.5363  1.2296
14172TIP3    H264008   1.766   2.684   2.166 -0.7720  1.0804  1.6719
14173TIP3   OH264009   6.446   1.919  15.884  0.3117 -0.1563 -0.6548
14173TIP3    H164010   6.354   1.896  15.894  0.6070 -1.7058 -1.2045
14173TIP3    H264011   6.468   1.969  15.963 -0.9544  0.1146 -0.4634
14174TIP3   OH264012   0.187   0.122  14.101 -0.3064 -0.2134  0.2364
14174TIP3    H164013   0.202   0.179  14.025 -0.0458 -1.8136 -0.9585
14174TIP3    H264014   0.203   0.179  14.176 -0.3700  1.3784 -0.8873
14175TIP3   OH264015   3.832   4.003  13.019 -0.1853  0.3019 -0.1408
14175TIP3    H164016   3.743   4.011  13.053  0.5048  2.3976  1.4114
14175TIP3    H264017   3.831   4.058  12.940 -0.9476 -1.9938 -1.8260
14176TIP3   OH264018   1.147   1.762  13.327 -0.1588  0.0160 -1.0652
14176TIP3    H164019   1.071   1.704  13.329  0.2409 -0.5813  2.2117
14176TIP3    H264020   1.217   1.708  13.290 -0.0354 -1.3834  1.0410
14177TIP3   OH264021   2.598   5.993  16.855 -0.2461 -0.4662 -0.0082
14177TIP3    H164022   2.562   5.932  16.919  0.5221  0.5848  1.4764
14177TIP3    H264023   2.522   6.022  16.805 -1.1296 -0.0962  1.4943
14178TIP3   OH264024   2.068   1.850  16.135 -0.1605 -0.2662 -0.7078
14178TIP3    H164025   2.020   1.776  16.098 -0.7878 -0.2486  0.0464
14178TIP3    H264026   2.110   1.815  16.213 -0.7961  0.2616 -0.1173
14179TIP3   OH264027   0.917   5.024  13.369  0.0224 -0.4288 -0.0438
14179TIP3    H164028   0.967   5.001  13.291  0.5399 -1.6627  0.6319
14179TIP3    H264029   0.844   5.076  13.336  0.2853 -0.8518 -1.3372
14180TIP3   OH264030   1.306   4.800   6.027 -0.1322 -0.6720  0.1375
14180TIP3    H164031   1.242   4.838   6.086 -1.2974 -0.3282 -1.2829
14180TIP3    H264032   1.384   4.854   6.037  0.1058 -1.3051  2.1422
14181TIP3   OH264033   0.687   1.246  12.006 -0.3336  0.2117  0.1820
14181TIP3    H164034   0.646   1.328  12.033 -0.0862  0.2702  0.3936
14181TIP3    H264035   0.729   1.214  12.086 -0.4658 -0.1428  0.1091
14182TIP3   OH264036   5.651   3.274  11.799 -0.0254  0.0796 -0.2742
14182TIP3    H164037   5.667   3.207  11.732 -2.1564 -1.0302  0.2125
14182TIP3    H264038   5.567   3.313  11.773 -0.4117  0.2785  1.2093
14183TIP3   OH264039   4.412   4.683   2.182  0.2009  0.4605  0.2035
14183TIP3    H164040   4.358   4.762   2.190 -0.8927 -0.2579  0.1394
14183TIP3    H264041   4.470   4.687   2.258 -1.9863 -0.2449  2.0167
14184TIP3   OH264042   3.598   3.790  14.488  0.2307 -0.3841  0.4376
14184TIP3    H164043   3.627   3.699  14.487 -0.2601 -0.5513 -1.0856
14184TIP3    H264044   3.672   3.839  14.522  0.1360 -1.4487  2.2920
14185TIP3   OH264045   1.305   1.541   4.591 -0.0504 -0.1877  0.7028
14185TIP3    H164046   1.360   1.619   4.588 -0.4483  0.0709 -1.1702
14185TIP3    H264047   1.217   1.574   4.606 -0.1328 -0.3232  0.5197
14186TIP3   OH264048   2.802   0.118  10.638  0.1804 -0.0882  0.0787
14186TIP3    H164049   2.767   0.203  10.666 -0.5481 -0.0419 -0.9362
14186TIP3    H264050   2.736   0.083  10.578  1.0631 -0.7977 -0.5067
14187TIP3   OH264051   6.714   2.925   2.820  0.1121 -0.0567  0.5390
14187TIP3    H164052   6.745   2.914   2.910 -1.9886  1.9952  1.6272
14187TIP3    H264053   6.648   2.857   2.809  1.8092 -1.6656 -0.2788
14188TIP3   OH264054   5.270   5.508  15.047 -0.9292  0.2509 -0.7874
14188TIP3    H164055   5.204   5.578  15.055 -1.4166 -0.1617 -1.1228
14188TIP3    H264056   5.230   5.445  14.988 -0.4275 -0.2493 -0.5956
14189TIP3   OH264057   2.851   3.367  13.018 -0.6526 -0.7766  0.0221
14189TIP3    H164058   2.846   3.417  12.937  1.9337  0.5571  0.5937
14189TIP3    H264059   2.843   3.275  12.990  0.0893 -0.3448 -1.7187
14190TIP3   OH264060   3.613   0.599  11.353  0.3680 -0.2474  0.1332
14190TIP3    H164061   3.642   0.527  11.297  0.3464 -0.8622  0.8992
14190TIP3    H264062   3.611   0.675  11.295  1.5010 -0.6203 -0.4376
14191TIP3   OH264063   4.717   3.213  11.493  0.0792  0.3603 -0.0781
14191TIP3    H164064   4.673   3.129  11.485  1.1078 -0.0632 -1.7095
14191TIP3    H264065   4.794   3.194  11.547  0.6162  0.1132 -0.9183
14192TIP3   OH264066   6.427   3.618   5.527 -0.1331 -0.2249 -1.1584
14192TIP3    H164067   6.382   3.545   5.569  0.1454  0.5017  0.4709
14192TIP3    H264068   6.360   3.686   5.518 -0.2665 -0.4776 -2.2085
14193TIP3   OH264069   6.689   1.562  12.384 -0.7414  0.5540 -0.0807
14193TIP3    H164070   6.718   1.553  12.293  0.5940 -1.5003  0.4813
14193TIP3    H264071   6.594   1.555  12.380 -0.6597 -0.1055 -1.2565
14194TIP3   OH264072   2.052   4.178   2.402  0.0938 -0.2390 -0.0474
14194TIP3    H164073   2.094   4.255   2.440 -1.2642  0.4410  0.0971
14194TIP3    H264074   1.999   4.211   2.330 -1.4345 -0.8588  0.7456
14195TIP3   OH264075   1.717   5.968  14.154 -0.2244 -0.5573  0.1888
14195TIP3    H164076   1.785   6.018  14.200 -0.4822 -0.3992  0.3953
14195TIP3    H264077   1.637   6.017  14.169  0.2308  1.7696 -3.6354
14196TIP3   OH264078   5.697   3.119   5.281 -0.0471 -0.1185  0.4747
14196TIP3    H164079   5.743   3.053   5.229  0.3532  0.1788  0.4467
14196TIP3    H264080   5.766   3.164   5.329 -0.1537  1.1556 -0.4972
14197TIP3   OH264081   2.121   6.298   5.349  0.1971 -0.0913  0.1115
14197TIP3    H164082   2.099   6.364   5.282 -0.3722 -0.1699  0.2098
14197TIP3    H264083   2.215   6.285   5.340 -0.0475 -1.0526 -1.5689
14198TIP3   OH264084   5.321   0.395  11.428 -0.3577  0.3583 -0.3959
14198TIP3    H164085   5.249   0.377  11.367 -1.9631 -1.5350  1.8961
14198TIP3    H264086   5.336   0.311  11.473  1.5762  1.3717  0.9828
14199TIP3   OH264087   1.394   1.068   4.368  0.0986 -0.2522  0.3469
14199TIP3    H164088   1.400   1.159   4.340  0.5039 -0.8607 -1.7405
14199TIP3    H264089   1.408   1.017   4.288 -1.2018 -2.1525  1.2471
14200TIP3   OH264090   3.705   0.610  13.172 -0.2127  0.1311 -0.1054
14200TIP3    H164091   3.696   0.620  13.267  1.3125  0.4794  0.0451
14200TIP3    H264092   3.643   0.673  13.135 -0.0788  0.7434  0.6847
14201TIP3   OH264093   4.199   0.306   4.131  0.1915  0.2860  0.4735
14201TIP3    H164094   4.163   0.330   4.217 -0.9705 -0.2834  0.1575
14201TIP3    H264095   4.235   0.388   4.097  0.4559  0.5699  1.3989
14202TIP3   OH264096   4.017   1.022   2.549  0.3409 -0.3487  0.4223
14202TIP3    H164097   4.065   1.102   2.569  2.4224 -1.4813  0.2885
14202TIP3    H264098   3.993   1.030   2.457  1.6207 -0.3841  0.0734
14203TIP3   OH264099   1.236   0.198   4.462  0.6550 -0.0727 -0.3957
14203TIP3    H164100   1.284   0.273   4.497 -0.0701  0.0387  0.3813
14203TIP3    H264101   1.149   0.204   4.501  0.6241 -1.4035 -0.1856
14204TIP3   OH264102   4.452   0.231  13.693  0.3958  0.2139  0.1543
14204TIP3    H164103   4.435   0.275  13.610 -0.1138 -0.0309  0.1241
14204TIP3    H264104   4.530   0.177  13.676 -2.5012 -3.8763 -1.7993
14205TIP3   OH264105   5.622   1.811   3.507  0.6630  0.2843 -0.0686
14205TIP3    H164106   5.640   1.892   3.555  1.8505 -0.8608  1.5132
14205TIP3    H264107   5.586   1.751   3.572  1.1378 -0.9278 -0.8697
14206TIP3   OH264108   5.395   2.927   0.788 -0.0024  0.4072  0.2987
14206TIP3    H164109   5.380   2.874   0.709  0.7161  0.4281  0.1401
14206TIP3    H264110   5.474   2.889   0.827 -1.2472 -0.6508  1.9075
14207TIP3   OH264111   3.571   4.655  11.644 -1.3846  0.0244 -0.3061
14207TIP3    H164112   3.552   4.577  11.697 -1.2736  0.3583  0.2331
14207TIP3    H264113   3.559   4.728  11.704  2.2053  0.2807  0.3337
14208TIP3   OH264114   5.685   0.610   3.962  0.6496 -0.3654 -0.3680
14208TIP3    H164115   5.613   0.582   3.906 -0.4692  0.9490  0.3562
14208TIP3    H264116   5.692   0.541   4.028 -1.1218  0.2946  0.5643
14209TIP3   OH264117   5.665   2.722   6.681  0.3789  0.7934  0.1186
14209TIP3    H164118   5.703   2.696   6.765  1.2336  0.2792 -0.4077
14209TIP3    H264119   5.731   2.695   6.617 -0.0331  1.6414 -0.6722
14210TIP3   OH264120   1.606   5.651  16.115  0.2721  0.4086 -0.2546
14210TIP3    H164121   1.601   5.743  16.090 -0.3629  1.0774  2.1070
14210TIP3    H264122   1.553   5.605  16.049  1.4837  1.5304 -2.1047
14211TIP3   OH264123   1.191   5.805  12.731  0.0063 -0.6338 -0.8182
14211TIP3    H164124   1.280   5.835  12.748  0.7364 -3.2592  0.6186
14211TIP3    H264125   1.200   5.743  12.659 -0.5122 -1.4185 -0.2287
14212TIP3   OH264126   4.381   0.372  13.151  0.0809  0.3372 -0.1474
14212TIP3    H164127   4.459   0.317  13.161  0.0584  0.1823 -0.8117
14212TIP3    H264128   4.414   0.461  13.150 -0.0218  0.5468  2.9121
14213TIP3   OH264129   0.155   2.080   0.992 -0.5276 -0.2776  0.3357
14213TIP3    H164130   0.080   2.021   0.983 -0.9092  0.2834 -0.2753
14213TIP3    H264131   0.211   2.058   0.917 -1.0311  0.6330 -0.3219
14214TIP3   OH264132   5.430   3.805  13.530  0.5046  0.6353 -0.0326
14214TIP3    H164133   5.516   3.803  13.488  0.6368  1.5243  0.1571
14214TIP3    H264134   5.436   3.740  13.600  0.9350  0.5100 -0.1807
14215TIP3   OH264135   3.159   1.422   0.576 -0.8807  0.3293  0.2240
14215TIP3    H164136   3.178   1.330   0.556 -1.8123  0.0051  0.7653
14215TIP3    H264137   3.179   1.469   0.495  0.1404 -0.2621  0.1131
14216TIP3   OH264138   4.536   0.256   3.295  0.0304  0.3403 -0.3617
14216TIP3    H164139   4.563   0.196   3.225  1.7395 -2.0386  2.1144
14216TIP3    H264140   4.472   0.206   3.345  0.9672  0.7851  1.3598
14217TIP3   OH264141   3.883   4.425  13.501  0.1183 -0.3906  0.5540
14217TIP3    H164142   3.866   4.354  13.563  0.5776 -0.7888  0.2245
14217TIP3    H264143   3.799   4.439  13.457 -0.0049 -0.6327  0.7091
14218TIP3   OH264144   2.698   3.964   5.001  0.0293  0.5679  0.2294
14218TIP3    H164145   2.610   3.972   5.038  0.3715 -1.3302  1.6359
14218TIP3    H264146   2.686   3.914   4.920 -0.3191  1.5505 -0.3391
14219TIP3   OH264147   0.966   3.733   5.647 -0.1393  0.5349  0.0267
14219TIP3    H164148   1.052   3.691   5.644 -0.3376  0.1619 -0.4535
14219TIP3    H264149   0.986   3.827   5.639  0.2071  0.4372 -0.2984
14220TIP3   OH264150   2.135   1.754   4.738 -0.1148 -0.4498  0.2515
14220TIP3    H164151   2.225   1.757   4.707  0.2811  0.6864  1.4470
14220TIP3    H264152   2.090   1.822   4.687 -0.3942 -1.2357 -0.5765
14221TIP3   OH264153   0.823   6.025   4.624  0.3523  0.4368 -0.3037
14221TIP3    H164154   0.859   6.050   4.539  0.4780 -1.8325 -0.9952
14221TIP3    H264155   0.873   5.947   4.649  0.1549  0.9268  1.7648
14222TIP3   OH264156   3.716   4.342   6.044 -0.1371  0.6217  0.0791
14222TIP3    H164157   3.626   4.366   6.067  0.3561  1.0966  1.6190
14222TIP3    H264158   3.769   4.374   6.116  1.0672 -1.2599  0.1088
14223TIP3   OH264159   3.907   2.226  15.099 -0.2094  0.1239 -0.0267
14223TIP3    H164160   3.929   2.235  15.007 -1.6294  1.2284 -0.2976
14223TIP3    H264161   3.841   2.293  15.115 -0.6100 -0.5870  1.5940
14224TIP3   OH264162   2.066   5.185  12.290  0.0592 -0.0163 -0.0447
14224TIP3    H164163   2.071   5.279  12.305 -1.5917  0.2360 -0.8541
14224TIP3    H264164   1.996   5.174  12.225 -0.2571 -1.8377  0.5313
14225TIP3   OH264165   0.983   0.576   4.136  1.1441  0.1195 -0.5059
14225TIP3    H164166   1.048   0.610   4.075  1.3744  2.1123  0.7501
14225TIP3    H264167   1.021   0.594   4.223 -0.0848 -0.7442  0.2333
14226TIP3   OH264168   6.588   6.435   0.156  0.0660 -0.1792  0.0414
14226TIP3    H164169   6.556   6.452   0.245  0.0847 -1.9770  0.4222
14226TIP3    H264170   6.510   6.444   0.101 -0.2583 -0.5252  0.4390
14227TIP3   OH264171   4.044   1.141   5.793 -0.5247 -0.0564 -0.2192
14227TIP3    H164172   4.004   1.067   5.840  1.1070 -0.2366  0.9866
14227TIP3    H264173   3.973   1.203   5.780 -0.9678  0.4174  3.3753
14228TIP3   OH264174   2.879   2.449   5.453 -0.2451 -0.2388  0.1566
14228TIP3    H164175   2.894   2.543   5.465  0.2601 -0.1928 -0.7466
14228TIP3    H264176   2.942   2.423   5.387 -0.6015 -1.1591  0.1634
14229TIP3   OH264177   1.367   4.732  13.681  0.0543 -0.1104  0.6078
14229TIP3    H164178   1.336   4.817  13.709 -3.9681 -1.1230 -0.1803
14229TIP3    H264179   1.407   4.748  13.595 -0.3256  1.0201  0.6294
14230TIP3   OH264180   2.318   6.616  14.348  0.3815 -0.4600  0.1935
14230TIP3    H164181   2.316   6.529  14.388 -0.9988 -0.5812 -0.0829
14230TIP3    H264182   2.298   6.601  14.255  0.3130  0.1219  0.1071
14231TIP3   OH264183   5.205   2.062   3.322 -0.2661  0.2088 -0.5843
14231TIP3    H164184   5.211   2.029   3.412 -0.9937  1.1945 -0.1584
14231TIP3    H264185   5.178   1.986   3.271  1.8421 -0.8157 -0.3012
14232TIP3   OH264186   4.552   1.723  11.426  0.6159 -0.2025 -0.5690
14232TIP3    H164187   4.634   1.681  11.401  1.4758  1.6428 -0.9624
14232TIP3    H264188   4.569   1.817  11.418 -0.5771  0.3660  2.3184
14233TIP3   OH264189   4.702   0.063   4.244 -0.0218 -0.1529 -0.3414
14233TIP3    H164190   4.714   0.051   4.150  1.1294  0.9073 -0.3574
14233TIP3    H264191   4.784   0.032   4.283 -0.7831 -1.3124  0.3971
14234TIP3   OH264192   4.013   3.763  16.679  0.0933 -0.2788  0.2897
14234TIP3    H164193   4.001   3.676  16.641 -0.5288 -0.2108  0.3084
14234TIP3    H264194   3.967   3.759  16.763 -0.4378  0.2293  0.0383
14235TIP3   OH264195   5.036   1.894  17.032  0.3880 -0.3729  0.0154
14235TIP3    H164196   5.070   1.825  16.974  2.1209  0.8296 -0.4911
14235TIP3    H264197   5.021   1.968  16.974  0.7183  0.3821  0.8806
14236TIP3   OH264198   0.377   6.696   5.468 -0.2097 -0.2160  0.5224
14236TIP3    H164199   0.330   6.634   5.523  0.8283 -0.7823  0.7910
14236TIP3    H264200   0.459   6.651   5.445 -0.9212 -0.3250 -2.1233
14237TIP3   OH264201   4.356   4.973   3.478 -0.0797 -0.1631 -0.0719
14237TIP3    H164202   4.307   5.003   3.555  0.8702  0.9756  0.1281
14237TIP3    H264203   4.376   5.054   3.430 -0.5378 -0.8371 -1.4628
14238TIP3   OH264204   1.562   1.766  15.926 -0.1506 -0.4969  0.4979
14238TIP3    H164205   1.563   1.754  16.021 -1.0975 -2.2917  0.3288
14238TIP3    H264206   1.593   1.682  15.892 -1.2276 -0.3936 -0.7984
14239TIP3   OH264207   5.450   6.388  16.553 -0.3105  0.0287  0.1557
14239TIP3    H164208   5.542   6.417  16.553  0.1674 -1.4389 -0.1294
14239TIP3    H264209   5.449   6.311  16.497 -1.5728 -0.4389  0.7993
14240TIP3   OH264210   0.904   0.205   1.887  0.1323 -0.4053  0.3012
14240TIP3    H164211   0.850   0.163   1.820  0.1646 -0.6973  0.4566
14240TIP3    H264212   0.954   0.271   1.839  2.0613 -2.3060 -0.4446
14241TIP3   OH264213   4.992   6.505  13.421  0.0803 -0.5591  0.4739
14241TIP3    H164214   5.003   6.600  13.427  1.3769 -0.5844 -0.9679
14241TIP3    H264215   5.065   6.476  13.366 -0.1150 -2.4396  1.1497
14242TIP3   OH264216   1.486   2.957  12.929  0.1773 -0.0341 -0.0264
14242TIP3    H164217   1.539   3.034  12.909 -0.5956  0.5777  0.2239
14242TIP3    H264218   1.534   2.884  12.891  0.7867  0.6055 -0.5074
14243TIP3   OH264219   3.826   2.230   4.156  0.3770  0.3795  0.1205
14243TIP3    H164220   3.820   2.320   4.187  1.1072  0.3180  0.4658
14243TIP3    H264221   3.760   2.224   4.086 -0.5725  0.8090  0.9514
14244TIP3   OH264222   3.151   6.515   1.605  0.1439 -0.5750 -1.1403
14244TIP3    H164223   3.232   6.502   1.655 -0.2697 -1.0339 -0.5813
14244TIP3    H264224   3.089   6.452   1.642 -0.6456  0.1643 -1.1796
14245TIP3   OH264225   1.452   5.737   5.591 -0.0138 -0.6940 -0.0995
14245TIP3    H164226   1.403   5.813   5.623  1.9159 -0.0979  1.6588
14245TIP3    H264227   1.526   5.776   5.543  0.2994 -1.4956 -0.2765
14246TIP3   OH264228   0.821   4.840   5.607  0.2460 -0.3847 -0.1290
14246TIP3    H164229   0.832   4.898   5.531  2.9751 -0.8811 -0.2172
14246TIP3    H264230   0.806   4.900   5.681  0.9083  0.3296 -0.5564
14247TIP3   OH264231   2.598   2.375  15.289  0.5862  0.0427 -0.1597
14247TIP3    H164232   2.558   2.419  15.364 -1.6611  1.4268 -2.0308
14247TIP3    H264233   2.524   2.349  15.234  2.1057 -1.5940 -1.5644
14248TIP3   OH264234   6.383   3.971   2.273  0.3940 -0.2198 -0.0608
14248TIP3    H164235   6.460   3.913   2.271 -0.4831 -1.4780  1.0758
14248TIP3    H264236   6.410   4.045   2.328  0.5649 -1.0335  0.9852
14249TIP3   OH264237   2.842   2.388   0.669 -0.4334 -0.2032  0.1884
14249TIP3    H164238   2.872   2.403   0.759  4.0662 -2.4829 -0.6483
14249TIP3    H264239   2.826   2.476   0.635 -1.6661  0.7681  2.9128
14250TIP3   OH264240   5.247   2.066  10.431 -0.1593  0.6356  0.0974
14250TIP3    H164241   5.168   2.071  10.485 -0.9332 -1.3100 -0.7677
14250TIP3    H264242   5.220   2.015  10.354  2.0867 -0.6936  0.1122
14251TIP3   OH264243   6.781   0.767  11.446  0.2096 -0.9221 -0.0712
14251TIP3    H164244   6.837   0.816  11.506  0.8562 -0.4939 -0.9868
14251TIP3    H264245   6.806   0.799  11.359 -2.4380  0.3073 -0.4654
14252TIP3   OH264246   4.751   5.120   0.694 -0.1942  0.0169 -0.3110
14252TIP3    H164247   4.671   5.118   0.747 -0.4197  0.8316 -0.6063
14252TIP3    H264248   4.744   5.202   0.644  1.1887  0.4920  0.2332
14253TIP3   OH264249   2.479   6.392   2.436  0.4715  0.1945  0.5805
14253TIP3    H164250   2.499   6.484   2.452 -1.1586  0.6078  0.4159
14253TIP3    H264251   2.441   6.390   2.349  2.8713 -1.0507 -0.5398
14254TIP3   OH264252   0.099   2.979  14.994 -1.0152  0.2148  0.3618
14254TIP3    H164253   0.071   2.888  14.980  0.0392 -0.2217  0.9933
14254TIP3    H264254   0.139   3.005  14.911  0.2774 -0.5168  0.7230
14255TIP3   OH264255   5.817   2.041   4.889  0.3232 -0.4454  0.0570
14255TIP3    H164256   5.767   2.115   4.924  1.3228 -0.0393  0.6542
14255TIP3    H264257   5.788   2.034   4.798 -0.8755 -0.2718  0.4075
14256TIP3   OH264258   4.118   0.054  13.290  0.4712 -0.2797  0.0023
14256TIP3    H164259   4.067   0.028  13.213 -1.6317 -0.3406  1.3402
14256TIP3    H264260   4.088   0.142  13.311 -0.1029 -0.8359  1.6218
14257TIP3   OH264261   1.399   1.851   2.897 -0.1655  0.1966  0.7098
14257TIP3    H164262   1.347   1.927   2.926 -1.4600 -0.4948  0.2883
14257TIP3    H264263   1.453   1.829   2.972 -0.4717  0.9485  1.1700
14258TIP3   OH264264   1.798   2.115   2.005  0.0604 -0.3593 -1.0080
14258TIP3    H164265   1.841   2.200   2.006 -1.4746  0.5207  1.9169
14258TIP3    H264266   1.708   2.134   1.980 -0.1359 -1.2407 -1.0124
14259TIP3   OH264267   2.521   1.068   0.123  0.4545  1.1473 -0.0196
14259TIP3    H164268   2.433   1.037   0.145  0.6723  0.3055 -0.3315
14259TIP3    H264269   2.513   1.164   0.126 -0.5183  1.0885 -0.2371
14260TIP3   OH264270   0.077   5.067   1.152 -0.4199  0.0347  0.1878
14260TIP3    H164271   0.051   4.986   1.109 -2.8639  0.6549  0.3319
14260TIP3    H264272   0.017   5.133   1.117  1.5885  1.8521 -0.0325
14261TIP3   OH264273   4.965   0.680   5.409 -0.2791  0.5003 -0.1062
14261TIP3    H164274   4.911   0.615   5.364  2.3002 -1.0641 -1.1665
14261TIP3    H264275   4.988   0.743   5.341 -0.2668  0.8257  0.1960
14262TIP3   OH264276   4.327   6.746   4.675 -0.1879  0.0811  0.1103
14262TIP3    H164277   4.401   6.780   4.725 -0.0438  1.7295 -1.1318
14262TIP3    H264278   4.334   6.789   4.589 -1.0771 -1.7494 -0.9465
14263TIP3   OH264279   2.463   0.563   5.754  0.0996 -0.7583 -0.1026
14263TIP3    H164280   2.491   0.473   5.736 -1.2163 -1.3059  0.4563
14263TIP3    H264281   2.427   0.559   5.843 -2.9464 -0.4192 -1.2139
14264TIP3   OH264282   5.051   0.503  10.641  0.4297 -0.4110  0.1681
14264TIP3    H164283   4.960   0.477  10.622  0.8215 -1.4211 -0.4399
14264TIP3    H264284   5.103   0.451  10.580  1.4741 -0.4853  1.1017
14265TIP3   OH264285   5.869   5.105   3.600 -0.5799  0.1021 -0.5222
14265TIP3    H164286   5.847   5.087   3.508 -0.3793  0.1833 -0.5857
14265TIP3    H264287   5.931   5.036   3.624 -0.2814  0.3474 -0.5830
14266TIP3   OH264288   0.679   6.310   6.378  0.5131  0.0845  0.2443
14266TIP3    H164289   0.741   6.375   6.412 -0.8366  1.5405  0.0128
14266TIP3    H264290   0.735   6.237   6.351  2.0858  1.1039  0.5646
14267TIP3   OH264291   4.509   6.263   3.366 -0.1865 -0.0303  0.2541
14267TIP3    H164292   4.430   6.267   3.420  0.0338  1.0328  0.5168
14267TIP3    H264293   4.581   6.269   3.429  0.0899 -0.0568 -0.0585
14268TIP3   OH264294   4.970   6.678   3.681 -0.5255 -0.2327 -0.6734
14268TIP3    H164295   4.931   6.764   3.695  0.0158 -0.1405  0.3930
14268TIP3    H264296   5.003   6.681   3.591 -0.2502  0.7819 -0.5507
14269TIP3   OH264297   0.939   4.251  11.609  0.7269 -0.5820 -0.5665
14269TIP3    H164298   0.844   4.256  11.609  0.7423 -0.2402 -0.5016
14269TIP3    H264299   0.962   4.214  11.694  0.6234 -1.3259 -0.8557
14270TIP3   OH264300   4.970   4.978  16.726  0.8371  0.4701  0.5495
14270TIP3    H164301   4.952   4.930  16.645  3.3497  1.5610 -0.7711
14270TIP3    H264302   4.900   5.042  16.732 -2.3762 -2.8497  2.1273
14271TIP3   OH264303   2.975   4.876  15.633 -0.2787 -0.2106 -0.2229
14271TIP3    H164304   2.887   4.849  15.607 -0.8706  1.5798 -0.2334
14271TIP3    H264305   2.976   4.866  15.728 -0.9898  0.9943 -0.0598
14272TIP3   OH264306   2.588   1.687  11.013 -0.7054  0.1134  0.1587
14272TIP3    H164307   2.515   1.670  10.954 -1.2313  2.4689  0.0449
14272TIP3    H264308   2.609   1.780  11.000  2.2201 -0.4141  0.2982
14273TIP3   OH264309   1.687   4.099   1.058  0.6763 -0.2140 -0.2417
14273TIP3    H164310   1.635   4.151   1.119  0.5728  0.0227 -0.5276
14273TIP3    H264311   1.775   4.135   1.064  0.6689 -0.1997 -0.2223
14274TIP3   OH264312   4.375   0.937  16.006 -0.1137 -0.6004 -0.4733
14274TIP3    H164313   4.455   0.933  16.059 -0.3936  1.2809  0.1742
14274TIP3    H264314   4.343   0.847  16.004  1.3422 -1.1727  0.3205
14275TIP3   OH264315   0.157   4.618   6.251  0.0562 -0.1338  0.4498
14275TIP3    H164316   0.239   4.616   6.301  0.8306 -0.0140 -0.7770
14275TIP3    H264317   0.122   4.706   6.268  0.9212  0.3360 -0.1600
14276TIP3   OH264318   3.111   0.278   5.046  0.0188 -0.0532 -0.7262
14276TIP3    H164319   3.147   0.361   5.078 -1.4216 -0.3079  1.8232
14276TIP3    H264320   3.019   0.298   5.028 -0.0987 -0.8593 -1.0230
14277TIP3   OH264321   5.863   4.561   4.892  0.5859 -0.3911 -0.2080
14277TIP3    H164322   5.797   4.609   4.842  1.6692 -0.0105 -1.3361
14277TIP3    H264323   5.898   4.625   4.954 -0.4630 -0.7493  0.8022
14278TIP3   OH264324   2.805   4.841   5.778 -0.7356 -0.1687 -0.5178
14278TIP3    H164325   2.832   4.854   5.869  0.5434  2.3280 -1.1858
14278TIP3    H264326   2.718   4.802   5.785 -0.3084 -0.8905  1.7461
14279TIP3   OH264327   3.070   1.334  11.181  0.6110  0.0630 -0.4856
14279TIP3    H164328   3.039   1.417  11.218 -0.1614  0.0214 -1.0331
14279TIP3    H264329   3.031   1.267  11.237  0.7691  0.0482 -0.3923
14280TIP3   OH264330   5.748   3.929   2.901  0.4942  0.0062  0.0670
14280TIP3    H164331   5.824   3.873   2.884 -0.1445 -0.7115 -0.4976
14280TIP3    H264332   5.675   3.885   2.858 -0.1758  0.8951  0.2478
14281TIP3   OH264333   5.465   6.198   3.661 -0.2585 -0.7273 -0.5970
14281TIP3    H164334   5.374   6.228   3.654 -0.2873 -0.7557 -0.3573
14281TIP3    H264335   5.484   6.201   3.755 -0.1042 -0.9943 -0.6188
14282TIP3   OH264336   3.359   0.672  11.221  0.4674  0.6561 -0.0346
14282TIP3    H164337   3.385   0.584  11.246  0.6196  0.9790  0.9978
14282TIP3    H264338   3.413   0.693  11.144  0.9948  0.1534  0.1978
14283TIP3   OH264339   4.363   4.325  16.472 -0.0323  0.4748  0.1967
14283TIP3    H164340   4.348   4.232  16.454  0.2520  0.0322  2.0213
14283TIP3    H264341   4.276   4.363  16.473 -0.1137  0.3686 -1.1441
14284TIP3   OH264342   1.675   0.391  13.091 -0.1841  0.1759 -0.4124
14284TIP3    H164343   1.609   0.446  13.134 -0.8465 -0.5772 -0.4490
14284TIP3    H264344   1.625   0.334  13.033  0.3276 -1.5273  0.7465
14285TIP3   OH264345   1.297   0.669  12.981  0.1662 -0.2119 -0.1706
14285TIP3    H164346   1.300   0.747  13.037  3.4603  1.2599 -2.0539
14285TIP3    H264347   1.221   0.682  12.925 -0.7784  0.3561  1.1968
14286TIP3   OH264348   0.725   4.503   2.284  0.1937  0.0210  0.1542
14286TIP3    H164349   0.730   4.464   2.371  2.7724  0.9695  0.5208
14286TIP3    H264350   0.758   4.592   2.296  1.4864 -0.1141 -1.9262
14287TIP3   OH264351   5.718   4.192   2.481 -0.2375 -0.3363  0.0422
14287TIP3    H164352   5.627   4.192   2.511  0.2914 -1.6037  1.7750
14287TIP3    H264353   5.713   4.218   2.389 -2.5008 -1.8657 -0.3298
14288TIP3   OH264354   3.183   3.216  12.849 -0.0726  0.2270 -0.1018
14288TIP3    H164355   3.200   3.230  12.942  1.2600 -0.8669 -0.1519
14288TIP3    H264356   3.111   3.275  12.829  0.1816  1.1157  1.4263
14289TIP3   OH264357   2.113   1.515  12.000  0.1241 -0.5046 -0.1691
14289TIP3    H164358   2.169   1.575  12.050 -1.1950 -0.6664  1.5837
14289TIP3    H264359   2.134   1.428  12.035  0.1534 -0.7788 -0.8589
14290TIP3   OH264360   2.529   0.428   0.959 -0.1253 -0.0623  0.0597
14290TIP3    H164361   2.610   0.438   1.009 -0.1439 -1.1014  0.3232
14290TIP3    H264362   2.477   0.366   1.010 -1.2011  0.7746  0.0212
14291TIP3   OH264363   3.185   0.129  15.475 -0.5464 -0.8499  0.0921
14291TIP3    H164364   3.147   0.070  15.540  0.4630  0.8538  2.3717
14291TIP3    H264365   3.148   0.214  15.495  2.4605  0.4180  0.8514
14292TIP3   OH264366   1.469   2.337  15.968  0.0602  0.2364  0.0756
14292TIP3    H164367   1.473   2.245  15.996  0.9234  0.9770  2.6908
14292TIP3    H264368   1.426   2.382  16.040 -0.6612  1.8821 -1.3179
14293TIP3   OH264369   6.581   4.011  12.098  0.3401  0.2254 -0.0489
14293TIP3    H164370   6.638   4.031  12.024  1.2357  1.4226  0.9194
14293TIP3    H264371   6.495   3.997  12.058  0.6005  1.7431 -1.2598
14294TIP3   OH264372   2.430   5.768  10.087 -0.0926  0.7960 -0.3275
14294TIP3    H164373   2.473   5.705  10.146 -0.5641 -0.2804 -1.1071
14294TIP3    H264374   2.431   5.850  10.136  0.3815  0.1522  0.7929
14295TIP3   OH264375   4.140   2.883   3.708  0.0784  0.1062  0.1161
14295TIP3    H164376   4.210   2.833   3.666 -0.3573 -1.3252  1.0031
14295TIP3    H264377   4.184   2.957   3.750  0.6633  0.8814 -1.7731
14296TIP3   OH264378   2.771   5.995  16.556 -0.4334  0.0146  0.1874
14296TIP3    H164379   2.743   5.917  16.604  0.3864 -0.5743 -0.2639
14296TIP3    H264380   2.865   6.002  16.574  0.2627 -1.1037 -2.4727
14297TIP3   OH264381   1.147   6.393   4.841 -0.2681  0.4173  0.2299
14297TIP3    H164382   1.071   6.342   4.814 -1.1129  0.2958  2.6196
14297TIP3    H264383   1.152   6.464   4.778 -2.2952  0.3469 -0.0683
14298TIP3   OH264384   0.331   0.517   2.925  0.4062 -0.1028 -0.1850
14298TIP3    H164385   0.359   0.483   2.840  0.3598 -1.2950  0.2628
14298TIP3    H264386   0.245   0.478   2.940  0.8014 -0.6295  0.8101
14299TIP3   OH264387   1.110   4.674  14.716  0.5103 -0.3058  0.2589
14299TIP3    H164388   1.086   4.618  14.643 -0.3087 -0.0393  0.3170
14299TIP3    H264389   1.171   4.620  14.768  0.8741 -0.5950 -0.4589
14300TIP3   OH264390   1.692   4.293   3.720 -0.5066  0.1308 -0.2874
14300TIP3    H164391   1.742   4.226   3.674 -0.4462 -0.8135  1.1032
14300TIP3    H264392   1.680   4.363   3.655 -0.4732 -1.1561 -1.7340
14301TIP3   OH264393   0.983   5.014  16.406 -0.3610 -0.2698 -0.1361
14301TIP3    H164394   0.926   5.078  16.448 -0.5418  0.2189 -1.1119
14301TIP3    H264395   0.950   4.929  16.435 -0.0300  0.0583  1.2857
14302TIP3   OH264396   3.675   5.420   0.646  0.0501  0.1112 -0.3300
14302TIP3    H164397   3.655   5.499   0.597  0.2260  1.4207  1.5762
14302TIP3    H264398   3.771   5.421   0.654 -0.0255  0.4187  0.7419
14303TIP3   OH264399   3.718   1.416   4.608 -0.2300  0.6074  0.3280
14303TIP3    H164400   3.794   1.365   4.635 -0.1257  0.7120  0.2343
14303TIP3    H264401   3.677   1.363   4.540 -0.7487  0.1325  0.9988
14304TIP3   OH264402   5.830   3.013   2.824  0.1300  0.0021  0.2037
14304TIP3    H164403   5.843   3.072   2.750  0.8957 -2.3295 -1.6489
14304TIP3    H264404   5.748   2.968   2.805  0.9458 -1.5001  0.0818
14305TIP3   OH264405   0.583   1.371   4.503 -0.1820  0.5293  0.4197
14305TIP3    H164406   0.506   1.318   4.480  0.3728 -0.0876 -0.0522
14305TIP3    H264407   0.632   1.315   4.564  1.6395 -0.5541 -1.9106
14306TIP3   OH264408   6.333   0.543   2.673  0.2066  0.4684 -0.1747
14306TIP3    H164409   6.330   0.600   2.750 -0.2113  3.0969 -2.0190
14306TIP3    H264410   6.384   0.592   2.609  1.9646 -2.3625 -1.1114
14307TIP3   OH264411   3.136   1.533   4.623  0.4748 -0.8755 -0.4264
14307TIP3    H164412   3.126   1.472   4.695  3.2577 -0.4222  0.4495
14307TIP3    H264413   3.222   1.572   4.636 -0.0881  1.2802 -2.4490
14308TIP3   OH264414   2.520   1.529  15.300 -0.0476 -0.2100 -0.1319
14308TIP3    H164415   2.427   1.538  15.321 -0.1989 -1.8524  0.0387
14308TIP3    H264416   2.523   1.525  15.204 -0.2088 -0.6544 -0.1198
14309TIP3   OH264417   4.853   4.134   1.074  0.1566  0.4202  0.5689
14309TIP3    H164418   4.760   4.121   1.056 -0.2956  1.4003  2.0159
14309TIP3    H264419   4.894   4.140   0.987 -1.1887  0.4444 -0.0851
14310TIP3   OH264420   3.643   5.245  14.425  0.3109 -0.1399  0.0549
14310TIP3    H164421   3.719   5.299  14.447  0.9829 -1.2996  0.7554
14310TIP3    H264422   3.654   5.167  14.480 -1.1430 -0.5405 -0.1958
14311TIP3   OH264423   1.279   5.970   5.689  0.5451  0.1021 -0.0733
14311TIP3    H164424   1.349   6.033   5.670  2.9749 -1.8624  1.6114
14311TIP3    H264425   1.239   6.002   5.770 -0.0155  0.8411 -0.6375
14312TIP3   OH264426   0.239   5.276  12.390 -0.2175 -0.2794 -0.5187
14312TIP3    H164427   0.149   5.306  12.377 -0.3425 -0.9371 -1.2568
14312TIP3    H264428   0.284   5.301  12.309  0.0809 -0.5730 -0.4463
14313TIP3   OH264429   3.856   0.722  15.895 -0.4874  0.1252  0.0221
14313TIP3    H164430   3.777   0.691  15.940  0.5822 -2.6203  0.2047
14313TIP3    H264431   3.863   0.665  15.818  1.2546  0.3522 -0.0191
14314TIP3   OH264432   4.295   1.990  12.756  0.0608 -0.4463  0.1964
14314TIP3    H164433   4.240   1.913  12.742 -0.8584  0.2550 -0.1678
14314TIP3    H264434   4.291   2.005  12.851  0.6631 -1.1440  0.3368
14315TIP3   OH264435   4.050   6.489  16.329  0.1627  0.0454 -0.4411
14315TIP3    H164436   4.072   6.418  16.390 -0.2426 -0.6426 -1.0873
14315TIP3    H264437   3.969   6.527  16.364 -0.7624 -1.1606 -1.2127
14316TIP3   OH264438   3.013   1.382   2.215  0.2110 -0.4928  0.3208
14316TIP3    H164439   3.091   1.361   2.165  0.6294 -0.5637  0.9910
14316TIP3    H264440   3.042   1.381   2.306 -0.5671 -0.5011  0.5743
14317TIP3   OH264441   0.311   5.705  13.831 -0.4589  0.4473  0.7051
14317TIP3    H164442   0.266   5.623  13.811 -1.6478  1.1299  0.5095
14317TIP3    H264443   0.301   5.716  13.925  0.1815  0.1061  0.8200
14318TIP3   OH264444   5.410   4.264   4.493  0.6541 -0.3275  0.5448
14318TIP3    H164445   5.327   4.311   4.487 -0.5804 -2.5407 -2.0300
14318TIP3    H264446   5.413   4.232   4.583 -0.6847  0.7908  1.0243
14319TIP3   OH264447   4.427   1.726   1.146 -0.2127  0.0352  0.1403
14319TIP3    H164448   4.336   1.751   1.132 -0.4642 -1.5928 -1.5596
14319TIP3    H264449   4.474   1.809   1.157 -2.0287  0.8777  2.3627
14320TIP3   OH264450   5.898   1.467  13.147  0.1477 -0.2424  0.7329
14320TIP3    H164451   5.990   1.455  13.170 -0.1358  0.2807  2.2716
14320TIP3    H264452   5.877   1.394  13.089  0.8868 -1.8469  2.3768
14321TIP3   OH264453   4.686   5.031  14.491 -0.1879  0.3828 -0.2349
14321TIP3    H164454   4.621   4.961  14.498 -0.5951  0.7466 -0.3593
14321TIP3    H264455   4.754   4.994  14.434 -0.7275  0.3303 -0.8566
14322TIP3   OH264456   4.242   3.989  14.030  0.0945  0.0783  0.2604
14322TIP3    H164457   4.160   3.970  14.076 -0.7897 -0.6889 -1.4957
14322TIP3    H264458   4.297   3.913  14.046 -0.0516 -0.0010  0.3842
14323TIP3   OH264459   4.021   6.681   1.748 -0.3685  0.3666  0.1864
14323TIP3    H164460   3.994   6.590   1.734  0.2631  0.2674 -0.4484
14323TIP3    H264461   4.048   6.711   1.661  1.2912  0.5375  0.7448
14324TIP3   OH264462   4.437   4.935  12.247  0.3819 -0.1616 -0.1813
14324TIP3    H164463   4.364   4.951  12.306 -0.9462  0.3884 -1.8818
14324TIP3    H264464   4.454   4.841  12.255 -1.4355 -0.5748 -0.6970
14325TIP3   OH264465   2.339   0.225   0.591  0.5449 -0.1974  0.1924
14325TIP3    H164466   2.415   0.276   0.564  0.6138  0.1268  0.9630
14325TIP3    H264467   2.271   0.290   0.609 -0.2561 -0.5344 -1.4474
14326TIP3   OH264468   0.588   2.225  15.393  0.4957  0.2334 -0.4983
14326TIP3    H164469   0.606   2.319  15.397  0.7293  0.1437  0.9570
14326TIP3    H264470   0.501   2.219  15.354  0.8645  0.9950 -1.4861
14327TIP3   OH264471   0.228   3.964   1.373  0.0238 -0.4357 -0.7464
14327TIP3    H164472   0.302   4.020   1.398  0.6058 -1.5095  0.0040
14327TIP3    H264473   0.151   4.010   1.408  0.4825 -0.0595 -0.2123
14328TIP3   OH264474   4.294   1.588   4.041 -0.1085 -0.0726  0.1376
14328TIP3    H164475   4.257   1.572   3.954  2.0337  0.2175 -0.8942
14328TIP3    H264476   4.291   1.502   4.083 -1.6749 -0.1055  0.0328
14329TIP3   OH264477   3.843   1.809   0.282  0.0859 -0.2627 -0.1386
14329TIP3    H164478   3.862   1.734   0.337  0.9308 -0.5466 -0.7896
14329TIP3    H264479   3.891   1.881   0.323  1.3697 -0.6418 -0.9016
14330TIP3   OH264480   3.444   5.497   3.357 -0.1683 -0.8350 -0.2929
14330TIP3    H164481   3.527   5.542   3.344 -0.8207 -0.1349 -2.6133
14330TIP3    H264482   3.423   5.511   3.449  1.3797  0.5424 -0.0976
14331TIP3   OH264483   0.830   4.421   1.056 -0.0484  0.6694 -0.0107
14331TIP3    H164484   0.769   4.492   1.074 -1.8336 -0.5890 -0.8292
14331TIP3    H264485   0.787   4.343   1.093  2.8826  0.2357  3.0083
14332TIP3   OH264486   2.290   3.720   5.692 -0.3281 -0.4281  0.5925
14332TIP3    H164487   2.362   3.734   5.630  0.4266 -0.3637  1.4561
14332TIP3    H264488   2.215   3.698   5.638  0.5253 -1.2467 -0.3039
14333TIP3   OH264489   5.209   3.562  16.788  0.2294 -0.2305 -0.2334
14333TIP3    H164490   5.159   3.618  16.847 -2.4992  0.0784 -2.5791
14333TIP3    H264491   5.270   3.622  16.744 -0.6260  0.3644 -0.6403
14334TIP3   OH264492   4.894   2.617   5.521  0.0320  0.8284  0.4853
14334TIP3    H164493   4.895   2.693   5.463  0.4900  0.3386 -0.1740
14334TIP3    H264494   4.892   2.542   5.461  1.4245  0.2828  1.0774
14335TIP3   OH264495   0.495   0.070   2.807 -0.2113  0.5233 -0.0769
14335TIP3    H164496   0.515   0.091   2.899  1.0678  0.2329 -0.2666
14335TIP3    H264497   0.443  -0.010   2.812 -2.6004  2.0226  0.5057
14336TIP3   OH264498   3.853   3.969  13.496  0.0961  0.2407 -0.3836
14336TIP3    H164499   3.767   4.001  13.470 -0.4522 -1.5202 -0.8348
14336TIP3    H264500   3.910   3.989  13.421 -0.1667  0.3889 -0.5458
14337TIP3   OH264501   6.388   0.826  13.943  0.4850 -0.1825 -0.1782
14337TIP3    H164502   6.473   0.802  13.981  0.1466 -1.2492 -0.0735
14337TIP3    H264503   6.335   0.747  13.950  0.5299 -0.5975 -3.3008
14338TIP3   OH264504   3.536   0.315   2.018  0.7411 -0.0475  0.5020
14338TIP3    H164505   3.542   0.305   1.923  1.0061  0.9275  0.4094
14338TIP3    H264506   3.569   0.232   2.053 -3.0789 -2.1719 -0.2749
14339TIP3   OH264507   4.385   0.938   1.823 -0.2240  0.0117 -0.1331
14339TIP3    H164508   4.309   0.997   1.813 -1.9520 -1.6915  1.9698
14339TIP3    H264509   4.385   0.886   1.743 -0.2329  1.1312 -0.8867
14340TIP3   OH264510   2.045   2.071   4.753  0.1882 -0.4374  0.4209
14340TIP3    H164511   1.958   2.067   4.792  1.0520 -1.4281  2.3686
14340TIP3    H264512   2.040   2.013   4.677 -1.1302  0.4196 -0.1957
14341TIP3   OH264513   2.422   4.933   1.013 -0.0833  0.1133  0.3963
14341TIP3    H164514   2.364   4.864   1.043 -0.5760  1.2553  2.2295
14341TIP3    H264515   2.402   5.008   1.069  2.9023  0.6791  0.9269
14342TIP3   OH264516   6.227   5.570   4.914 -0.1357  0.2142  0.5556
14342TIP3    H164517   6.175   5.608   4.985 -0.7354 -0.1095  0.3044
14342TIP3    H264518   6.173   5.584   4.836  0.7732  1.0836  0.0648
14343TIP3   OH264519   2.715   2.922  12.996  0.3506  0.5231 -0.2813
14343TIP3    H164520   2.786   2.929  12.932 -0.1607  0.9206 -0.8086
14343TIP3    H264521   2.645   2.876  12.951 -0.2484  1.3549 -0.2246
14344TIP3   OH264522   0.922   5.385  15.781 -0.1740 -0.0118  0.1001
14344TIP3    H164523   0.994   5.356  15.725 -0.0865  0.9818 -0.3298
14344TIP3    H264524   0.961   5.451  15.838 -0.0463 -1.6482  2.0109
14345TIP3   OH264525   5.815   2.673  16.414 -0.1522  0.3435  0.0183
14345TIP3    H164526   5.759   2.710  16.346 -1.7286  1.4290  1.8076
14345TIP3    H264527   5.774   2.700  16.496  2.1701 -0.1308  1.4242
14346TIP3   OH264528   2.590   3.622  13.829 -0.3900  0.6048  0.3146
14346TIP3    H164529   2.501   3.643  13.857 -0.4705  0.6521  0.0294
14346TIP3    H264530   2.624   3.563  13.896  0.3349  2.6766  1.9040
14347TIP3   OH264531   1.181   3.430  16.806  0.5798  0.0425 -0.1089
14347TIP3    H164532   1.172   3.433  16.901  0.9073  0.7675 -0.0948
14347TIP3    H264533   1.276   3.427  16.791  0.5241 -0.2583 -0.4062
14348TIP3   OH264534   4.853   6.167  13.564 -0.1082  0.4328 -0.5846
14348TIP3    H164535   4.825   6.079  13.587  0.2093  0.0049 -1.8037
14348TIP3    H264536   4.903   6.157  13.483  1.7909  1.4430  0.3834
14349TIP3   OH264537   5.557   0.612  16.579 -0.0215 -0.0397  0.3141
14349TIP3    H164538   5.522   0.663  16.507 -1.3461 -1.7065 -0.2804
14349TIP3    H264539   5.631   0.563  16.542 -0.4394 -0.5761  0.1724
14350TIP3   OH264540   4.211   5.439  17.007  0.5809 -0.1725 -0.1877
14350TIP3    H164541   4.260   5.467  17.084 -0.3312 -0.8508  0.6612
14350TIP3    H264542   4.134   5.496  17.006  0.9580  0.3445 -1.0516
14351TIP3   OH264543   5.285   4.528   5.448  0.1673 -0.3575  0.8146
14351TIP3    H164544   5.355   4.493   5.503  0.4056  0.1072  0.8111
14351TIP3    H264545   5.212   4.543   5.508  0.2569 -0.3276  0.9164
14352TIP3   OH264546   6.358   2.458  11.048  0.4878 -0.4411  0.7472
14352TIP3    H164547   6.401   2.395  11.106 -0.2155  0.0633  1.8607
14352TIP3    H264548   6.277   2.481  11.095 -0.0371  0.0846 -0.3880
14353TIP3   OH264549   4.047   0.904  15.518 -0.1320  0.7692  0.3554
14353TIP3    H164550   4.073   0.972  15.581  2.7386 -1.6656  2.0992
14353TIP3    H264551   4.062   0.822  15.565 -1.2192 -1.1503 -2.4170
14354TIP3   OH264552   4.577   5.249  16.367 -0.2344 -0.0135 -0.0178
14354TIP3    H164553   4.524   5.312  16.320 -1.0502 -1.4155 -1.0617
14354TIP3    H264554   4.582   5.283  16.456  1.5663  2.8541 -1.0923
14355TIP3   OH264555   0.744   0.965  10.975 -0.3227  0.3213  0.3674
14355TIP3    H164556   0.803   0.996  10.906 -0.6814  0.0958 -0.0468
14355TIP3    H264557   0.736   1.040  11.034  2.1263 -0.3342  1.6600
14356TIP3   OH264558   1.645   3.220  14.931 -0.0347 -0.4913 -0.1541
14356TIP3    H164559   1.699   3.167  14.990 -0.0348 -0.9538 -0.5605
14356TIP3    H264560   1.704   3.290  14.901 -0.0648 -0.1918  0.4681
14357TIP3   OH264561   5.146   5.967  17.221  0.3620 -0.0623 -0.2506
14357TIP3    H164562   5.126   5.873  17.217 -2.3990  0.4739 -1.2644
14357TIP3    H264563   5.174   5.989  17.133 -1.0605  0.4185 -0.6050
14358TIP3   OH264564   3.711   1.816   3.360  0.2515 -0.6182 -0.3907
14358TIP3    H164565   3.741   1.776   3.278 -0.5483 -1.0650 -0.4762
14358TIP3    H264566   3.631   1.862   3.335  0.4903 -0.0035 -0.0348
14359TIP3   OH264567   5.219   6.115  13.728  0.4372  0.5946 -0.5292
14359TIP3    H164568   5.216   6.129  13.823  1.1934 -2.5863  0.0988
14359TIP3    H264569   5.209   6.202  13.690 -3.8896  1.6974  2.3535
14360TIP3   OH264570   6.633   2.211  17.103  0.0890 -0.3616 -0.2852
14360TIP3    H164571   6.575   2.188  17.030 -0.7417  0.7748 -0.0018
14360TIP3    H264572   6.692   2.136  17.111 -0.1982 -0.7690 -1.7292
14361TIP3   OH264573   6.023   5.732   1.380  0.3884 -0.0032  0.7368
14361TIP3    H164574   6.080   5.801   1.348 -0.8498  1.1921  1.0161
14361TIP3    H264575   5.948   5.733   1.320  1.5057 -2.9580 -0.9266
14362TIP3   OH264576   1.954   0.876   2.865 -0.0950 -0.2143  0.7197
14362TIP3    H164577   1.995   0.949   2.819  2.1028 -1.0112  1.3050
14362TIP3    H264578   1.985   0.885   2.956 -2.4256 -0.0415  1.5819
14363TIP3   OH264579   5.471   1.961   4.828 -0.1335  0.7498 -0.5951
14363TIP3    H164580   5.471   1.961   4.924 -1.6956  0.2407 -0.5536
14363TIP3    H264581   5.501   2.048   4.803 -1.4388  1.5293  0.4173
14364TIP3   OH264582   1.080   1.090   0.618 -0.1410 -0.2117 -0.4049
14364TIP3    H164583   1.110   1.026   0.553  1.5778 -0.6483  0.7311
14364TIP3    H264584   1.102   1.050   0.702  3.0687  2.6943  0.3551
14365TIP3   OH264585   4.501   6.494  12.053 -0.1743 -0.2669 -0.7947
14365TIP3    H164586   4.564   6.435  12.096 -1.0489 -2.8892 -2.8333
14365TIP3    H264587   4.429   6.500  12.115  0.9667  0.7273  0.4960
14366TIP3   OH264588   1.488   6.608   5.293  0.0263  0.3044  0.3110
14366TIP3    H164589   1.406   6.559   5.294 -0.7719  1.5717  0.4145
14366TIP3    H264590   1.554   6.545   5.265 -1.0605 -0.6292 -0.2382
14367TIP3   OH264591   6.447   1.955   3.030 -0.0100 -0.7134  0.2907
14367TIP3    H164592   6.398   1.914   2.959 -0.3321 -0.6598  0.4767
14367TIP3    H264593   6.528   1.985   2.989 -0.2711 -0.5203 -0.0922
14368TIP3   OH264594   6.126   4.426  13.801  0.3897 -0.0659  0.0242
14368TIP3    H164595   6.134   4.494  13.734 -0.3456  0.6558  0.6548
14368TIP3    H264596   6.104   4.473  13.881  0.9015 -0.9498  0.7101
14369TIP3   OH264597   2.419   1.239  14.166 -0.2988  0.4782  0.4560
14369TIP3    H164598   2.363   1.170  14.131  2.1225 -0.5935 -1.6710
14369TIP3    H264599   2.466   1.197  14.238 -1.0143  0.8968  1.1881
14370TIP3   OH264600   2.124   0.626  14.879  0.1492 -0.3136  0.2880
14370TIP3    H164601   2.046   0.635  14.934  0.3122 -1.4605  0.7417
14370TIP3    H264602   2.096   0.575  14.804  0.2108  0.2168 -0.0981
14371TIP3   OH264603   3.477   1.859  15.574  0.1701  0.9740  0.0521
14371TIP3    H164604   3.423   1.928  15.614  0.9268  1.2618  0.5946
14371TIP3    H264605   3.454   1.863  15.481 -1.7076  0.2033  0.4348
14372TIP3   OH264606   0.986   0.046  14.505 -0.7479  0.1609  0.8829
14372TIP3    H164607   1.075   0.071  14.480 -1.3144  0.4752 -0.9448
14372TIP3    H264608   0.936   0.128  14.502 -2.0145 -0.5679 -2.4303
14373TIP3   OH264609   1.518   2.689  13.316  0.2611  0.2298  0.5007
14373TIP3    H164610   1.531   2.669  13.224  1.1114 -2.2041  1.0736
14373TIP3    H264611   1.467   2.616  13.350  1.5490  0.0832  2.3054
14374TIP3   OH264612   2.450   3.033   1.099  0.1175  0.3188  0.1835
14374TIP3    H164613   2.510   2.994   1.036 -0.2209 -0.1117  0.1307
14374TIP3    H264614   2.378   2.971   1.107  0.0594  0.4622  0.8433
14375TIP3   OH264615   6.699   2.922  16.083  0.0056 -0.1075  0.2714
14375TIP3    H164616   6.702   2.898  15.991 -0.4881  2.1536 -0.4000
14375TIP3    H264617   6.607   2.911  16.108 -0.8034  3.1009 -0.7469
14376TIP3   OH264618   0.738   5.594   3.204  0.6969  0.2686  0.4434
14376TIP3    H164619   0.804   5.571   3.139  0.0223 -2.1431  0.5252
14376TIP3    H264620   0.710   5.683   3.179  0.6744 -0.4367 -2.3788
14377TIP3   OH264621   0.820   2.387   2.875  0.1156  0.3552  0.1893
14377TIP3    H164622   0.828   2.412   2.783  2.8777  0.5497  0.3943
14377TIP3    H264623   0.756   2.315   2.875  0.4521 -0.0064 -1.9623
14378TIP3   OH264624   3.460   6.569   1.160 -0.2850  0.0316  0.0350
14378TIP3    H164625   3.380   6.591   1.112 -0.9333 -1.5523  0.3246
14378TIP3    H264626   3.509   6.513   1.100 -0.5154 -0.9255  0.7137
14379TIP3   OH264627   6.765   0.335   0.279  0.4050  0.1871 -0.2483
14379TIP3    H164628   6.796   0.382   0.202 -0.1374 -0.1492 -0.6734
14379TIP3    H264629   6.701   0.394   0.319 -1.3927 -0.7464 -1.5984
14380TIP3   OH264630   5.761   5.227  15.446  0.5274  0.0138  0.2297
14380TIP3    H164631   5.791   5.318  15.449  0.4799  0.0093  0.9681
14380TIP3    H264632   5.836   5.176  15.478  0.1960 -0.1103  0.8237
14381TIP3   OH264633   2.886   5.352  13.437 -0.4006  0.2066 -0.4283
14381TIP3    H164634   2.926   5.436  13.415  0.5652 -0.5372 -1.6648
14381TIP3    H264635   2.945   5.312  13.500 -0.7836  0.3866  0.0493
14382TIP3   OH264636   4.656   4.840  13.839  0.4226  0.1609 -0.6863
14382TIP3    H164637   4.736   4.886  13.813  2.2820 -0.2403  3.5943
14382TIP3    H264638   4.659   4.757  13.791  3.0237 -0.1566 -0.1026
14383TIP3   OH264639   4.929   0.188   1.562 -0.0600 -0.6681 -0.1599
14383TIP3    H164640   4.929   0.244   1.639  0.0845  0.0047 -0.6377
14383TIP3    H264641   5.019   0.189   1.531  0.1444 -1.8765  0.3132
14384TIP3   OH264642   6.245   2.345  12.507 -0.2670  0.3036  0.0113
14384TIP3    H164643   6.191   2.269  12.488 -0.2671  0.8698 -2.5698
14384TIP3    H264644   6.183   2.412  12.537 -0.5954  0.0766 -0.1558
14385TIP3   OH264645   2.799   5.002   3.482 -0.1299 -0.5434  0.2387
14385TIP3    H164646   2.736   5.073   3.475  0.1688 -0.4415 -2.6219
14385TIP3    H264647   2.874   5.040   3.527 -0.4384  0.5991 -0.1863
14386TIP3   OH264648   5.629   0.526  16.103  0.6927 -0.0076  0.0326
14386TIP3    H164649   5.561   0.458  16.101  0.2797  0.3960  0.2299
14386TIP3    H264650   5.708   0.481  16.073  0.1322 -0.2510 -1.1633
14387TIP3   OH264651   5.250   3.329   5.049 -0.4105  0.0495  0.4188
14387TIP3    H164652   5.280   3.241   5.071  0.4306  0.4640  0.9580
14387TIP3    H264653   5.154   3.323   5.052 -0.3731 -0.9403  0.0277
14388TIP3   OH264654   4.231   4.004  15.933 -0.5001  0.1049  0.3923
14388TIP3    H164655   4.264   3.915  15.920  1.3858  0.7069  0.6977
14388TIP3    H264656   4.205   4.007  16.025  2.4261  0.6867  1.3089
14389TIP3   OH264657   2.393   1.389  11.541 -0.0903  0.0514  0.7491
14389TIP3    H164658   2.310   1.389  11.590  0.0505  0.7865  0.9990
14389TIP3    H264659   2.379   1.325  11.471 -0.3769 -0.8575  1.6154
14390TIP3   OH264660   4.135   2.877   0.793  0.2836  0.4147 -0.1410
14390TIP3    H164661   4.156   2.893   0.701 -0.1168  1.5373 -0.0488
14390TIP3    H264662   4.093   2.957   0.822 -1.3372 -0.6262  0.5181
14391TIP3   OH264663   2.657   0.986   4.259  0.0662 -0.2341  0.6636
14391TIP3    H164664   2.697   0.903   4.232  1.3470  0.0803  1.5178
14391TIP3    H264665   2.670   0.990   4.354  0.8750  1.3587  0.5260
14392TIP3   OH264666   5.054   2.283  15.014  0.0396  0.2048 -0.0522
14392TIP3    H164667   5.146   2.281  15.039 -0.2580  1.1566  1.2051
14392TIP3    H264668   5.055   2.313  14.923  0.9539  0.5579  0.0610
14393TIP3   OH264669   3.006   2.425   3.338  0.4957 -0.3597 -0.4205
14393TIP3    H164670   2.984   2.380   3.420  1.3097  0.8479  0.4903
14393TIP3    H264671   3.100   2.444   3.346  0.2685  1.0838 -0.9569
14394TIP3   OH264672   1.324   6.225  17.202  0.4714  0.6000 -0.0196
14394TIP3    H164673   1.394   6.186  17.149 -0.3475 -0.1139 -0.6012
14394TIP3    H264674   1.243   6.201  17.156 -0.3126 -0.4603  1.8113
14395TIP3   OH264675   4.839   3.533   3.087  0.7266  0.5470 -0.6669
14395TIP3    H164676   4.928   3.498   3.081  0.8662  0.9997 -1.3430
14395TIP3    H264677   4.783   3.463   3.055  0.6786 -0.3403  1.2323
14396TIP3   OH264678   0.851   6.539  16.557  0.0580  0.6381  0.2948
14396TIP3    H164679   0.896   6.548  16.641 -2.6452  0.5636  1.9060
14396TIP3    H264680   0.794   6.616  16.552 -0.8220 -0.0532 -0.7921
14397TIP3   OH264681   5.779   1.186  10.478 -0.2542  0.0376 -0.0257
14397TIP3    H164682   5.769   1.267  10.529  0.7516 -1.3161  2.4946
14397TIP3    H264683   5.690   1.152  10.470 -0.4250  0.2530  0.8973
14398TIP3   OH264684   3.432   1.730   4.961  0.0784  0.0486 -0.4270
14398TIP3    H164685   3.409   1.803   5.019  2.5130  0.3714  0.2520
14398TIP3    H264686   3.430   1.767   4.873 -1.8159  0.0541 -0.4035
14399TIP3   OH264687   0.449   1.209   3.469  0.5648  0.1146 -0.5670
14399TIP3    H164688   0.415   1.152   3.401  1.0365 -0.1375 -0.5998
14399TIP3    H264689   0.373   1.232   3.523  0.1902  0.3266 -1.1816
14400TIP3   OH264690   5.184   5.283   4.021  0.3348 -0.1472  0.0772
14400TIP3    H164691   5.093   5.256   4.015  0.5531 -0.7187 -0.9930
14400TIP3    H264692   5.182   5.367   4.068 -1.0313  1.1879 -2.1917
14401TIP3   OH264693   1.586   6.738   5.712  0.4495 -0.3488  0.1202
14401TIP3    H164694   1.666   6.685   5.705 -0.3483 -1.4126 -1.2916
14401TIP3    H264695   1.605   6.817   5.662 -0.1556 -1.6509 -2.3436
14402TIP3   OH264696   5.182   0.948   4.080  0.7583 -0.1503  0.1533
14402TIP3    H164697   5.185   0.874   4.020 -3.2492 -0.0449 -0.4305
14402TIP3    H264698   5.167   0.909   4.166  1.4730 -0.0632  0.3317
14403TIP3   OH264699   6.770   5.721   5.711 -0.4794  0.8036 -0.4538
14403TIP3    H164700   6.848   5.758   5.752  0.4004 -0.2164 -1.1722
14403TIP3    H264701   6.712   5.699   5.785  0.1151  1.1068  0.1077
14404TIP3   OH264702   4.219   1.908  17.126 -0.0922 -0.1845 -0.6545
14404TIP3    H164703   4.254   1.858  17.200  1.7799 -0.3337 -1.5689
14404TIP3    H264704   4.286   1.899  17.058 -0.6701  1.8725 -1.5563
14405TIP3   OH264705   0.711   5.222   2.984  0.1032  0.1347  0.1443
14405TIP3    H164706   0.757   5.145   3.017  0.8742  0.3005 -0.4836
14405TIP3    H264707   0.647   5.244   3.052  1.4979  0.3674  1.4403
14406TIP3   OH264708   5.810   5.925  14.263 -0.0056 -0.4803  0.5551
14406TIP3    H164709   5.745   5.925  14.193  0.6272  2.6129 -0.1838
14406TIP3    H264710   5.874   5.859  14.236 -0.7279 -0.6730 -0.7962
14407TIP3   OH264711   6.193   0.828  12.398  0.0612  0.0577 -0.3341
14407TIP3    H164712   6.157   0.827  12.487  1.2612 -0.4935  0.1842
14407TIP3    H264713   6.182   0.918  12.368 -1.5302 -0.0477 -0.1450
14408TIP3   OH264714   2.449   1.560  12.812 -0.8659  0.3586 -0.6164
14408TIP3    H164715   2.430   1.554  12.719 -1.3478  0.8155 -0.5534
14408TIP3    H264716   2.388   1.499  12.853 -1.4961  1.0552 -0.5030
14409TIP3   OH264717   6.257   2.279   6.018 -0.1539 -0.1293 -0.0836
14409TIP3    H164718   6.339   2.239   6.048  0.5001  0.3814 -1.1318
14409TIP3    H264719   6.197   2.205   6.007 -0.4118 -0.3590  2.3109
14410TIP3   OH264720   4.347   1.379  12.741  0.2064  0.5585 -0.1656
14410TIP3    H164721   4.375   1.289  12.728  1.7328  0.6847  1.7891
14410TIP3    H264722   4.392   1.408  12.820 -1.8033  2.3968  0.4391
14411TIP3   OH264723   1.265   5.038  14.120 -0.1385 -0.1094  0.3504
14411TIP3    H164724   1.336   5.096  14.149 -0.2451  0.4468 -0.4470
14411TIP3    H264725   1.189   5.096  14.113 -0.4529 -0.5213  0.3600
14412TIP3   OH264726   6.753   2.690  16.699  0.2521 -0.4493 -0.2752
14412TIP3    H164727   6.801   2.623  16.650  0.0223 -0.9000  0.1018
14412TIP3    H264728   6.665   2.653  16.709  0.4297 -0.5941  0.9103
14413TIP3   OH264729   4.687   6.392   0.310 -0.2342 -0.4601  0.2084
14413TIP3    H164730   4.630   6.349   0.245  0.0197  1.4091 -1.3618
14413TIP3    H264731   4.772   6.348   0.300 -0.2129 -0.2321 -0.7213
14414TIP3   OH264732   5.259   3.129   3.766 -0.6684 -0.0605 -0.2866
14414TIP3    H164733   5.327   3.117   3.700 -1.9753  0.4738 -1.7778
14414TIP3    H264734   5.277   3.216   3.803 -0.5645  0.0958 -0.7023
14415TIP3   OH264735   4.441   4.192  13.877 -0.1227 -0.2620  0.1473
14415TIP3    H164736   4.487   4.217  13.957 -0.0497  1.4147 -0.3854
14415TIP3    H264737   4.481   4.246  13.809 -1.1227 -0.6722 -0.7936
14416TIP3   OH264738   4.032   4.555   0.657  1.2942  0.0325  0.3136
14416TIP3    H164739   4.022   4.460   0.662  1.3641  0.0803  2.3962
14416TIP3    H264740   4.094   4.576   0.727  4.3567  1.2795 -2.5114
14417TIP3   OH264741   3.938   3.479  12.215 -0.2742  0.2363  0.5878
14417TIP3    H164742   3.914   3.427  12.139 -0.2726 -2.0019  2.0119
14417TIP3    H264743   4.009   3.535  12.184 -1.5701  0.8352 -1.5058
14418TIP3   OH264744   1.377   2.135  12.780 -0.5880  0.5488  0.3897
14418TIP3    H164745   1.458   2.185  12.775  0.8099 -1.7319 -2.6289
14418TIP3    H264746   1.312   2.191  12.739 -0.3331  1.8861  1.7037
14419TIP3   OH264747   1.145   3.920  15.553 -0.2841 -0.3357  0.4287
14419TIP3    H164748   1.173   3.957  15.469  0.2262  1.2987  1.2863
14419TIP3    H264749   1.063   3.965  15.573 -1.8401 -2.6279 -0.4172
14420TIP3   OH264750   1.406   0.744  14.254 -0.3434  0.1538 -0.4095
14420TIP3    H164751   1.399   0.652  14.230 -2.0088  0.3338 -0.7537
14420TIP3    H264752   1.315   0.773  14.263  0.1640  1.6193  0.2497
14421TIP3   OH264753   0.663   6.434   0.060 -0.1655 -0.0018 -0.0319
14421TIP3    H164754   0.599   6.465   0.124  0.4359  0.0039  0.5801
14421TIP3    H264755   0.747   6.463   0.095  0.6301 -3.5962  1.4394
14422TIP3   OH264756   5.302   1.402  17.118 -0.1679 -0.7254  0.7046
14422TIP3    H164757   5.228   1.454  17.151  0.5284  0.4338  0.4920
14422TIP3    H264758   5.297   1.320  17.167 -0.0381  0.3734  2.6310
14423TIP3   OH264759   1.635   2.763   3.314 -0.1501 -0.2407  0.1518
14423TIP3    H164760   1.730   2.762   3.301 -0.2974  0.8983 -1.2726
14423TIP3    H264761   1.614   2.856   3.327 -1.3095 -0.1999 -1.7150
14424TIP3   OH264762   3.202   5.361   2.845 -0.0754  0.1593  0.6675
14424TIP3    H164763   3.228   5.317   2.926  0.6276  1.1327  0.9966
14424TIP3    H264764   3.119   5.403   2.867 -1.2889 -1.7819  0.0442
14425TIP3   OH264765   4.478   0.033   0.821  0.0150  0.1874 -0.6259
14425TIP3    H164766   4.420   0.066   0.753 -0.0802  0.1010 -0.5868
14425TIP3    H264767   4.561   0.080   0.808  0.4222 -0.7586 -1.6091
14426TIP3   OH264768   3.663   0.540  15.391  0.0735  0.9300 -0.0589
14426TIP3    H164769   3.735   0.525  15.330 -0.2742 -0.4352 -0.1629
14426TIP3    H264770   3.707   0.550  15.476  0.3735 -2.3980  0.3361
14427TIP3   OH264771   5.985   3.233  11.880 -0.1362 -0.5719 -0.4928
14427TIP3    H164772   6.046   3.193  11.942 -0.5408 -0.5104 -0.0435
14427TIP3    H264773   5.982   3.172  11.807  1.9115  0.3316 -1.4131
14428TIP3   OH264774   1.635   1.790  14.181 -0.2291 -0.2458  0.1267
14428TIP3    H164775   1.660   1.699  14.197 -0.6021 -0.3487  0.1370
14428TIP3    H264776   1.685   1.840  14.245  0.1769 -0.4137 -0.0499
14429TIP3   OH264777   4.895   5.289   3.802 -0.0731  0.3791  0.2539
14429TIP3    H164778   4.864   5.329   3.883  1.7303  1.9009  0.2634
14429TIP3    H264779   4.880   5.357   3.735  0.2390 -0.1037 -0.3173
14430TIP3   OH264780   2.471   6.507  13.596 -0.0555  0.0355 -0.0063
14430TIP3    H164781   2.557   6.496  13.555  1.1718 -0.4751  2.4832
14430TIP3    H264782   2.489   6.557  13.675 -2.2985  1.0225 -0.0638
14431TIP3   OH264783   3.433   5.501   1.738  0.3647  0.7341  0.0128
14431TIP3    H164784   3.402   5.554   1.663 -1.1758  0.3157  0.3180
14431TIP3    H264785   3.478   5.564   1.794  0.8221  1.2138 -0.8644
14432TIP3   OH264786   6.789   6.157   1.975 -0.2376 -0.0369  1.0377
14432TIP3    H164787   6.771   6.096   1.903  1.2518 -0.1944  0.7595
14432TIP3    H264788   6.865   6.207   1.946  0.5435 -0.2608  2.5832
14433TIP3   OH264789   1.229   1.424  16.535  0.3912 -0.0007 -0.2121
14433TIP3    H164790   1.279   1.481  16.476  0.7655  0.5668  0.6243
14433TIP3    H264791   1.184   1.363  16.477 -1.2141  2.0528 -1.2449
14434TIP3   OH264792   4.600   5.794   0.098  0.5677  0.1100  0.0058
14434TIP3    H164793   4.571   5.881   0.124  1.6466  0.4744  0.0478
14434TIP3    H264794   4.532   5.735   0.132  0.6444  0.7944  1.4340
14435TIP3   OH264795   2.222   0.441  17.014  0.1372 -0.0681  0.0460
14435TIP3    H164796   2.196   0.352  16.992  1.1556 -0.7610  1.5406
14435TIP3    H264797   2.154   0.496  16.974 -0.6061 -1.5041 -0.7315
14436TIP3   OH264798   5.862   6.075  16.181 -0.9889  0.4234 -0.2358
14436TIP3    H164799   5.859   6.073  16.277 -0.3580  0.9127 -0.1982
14436TIP3    H264800   5.779   6.037  16.154 -0.4015 -1.5109  0.4881
14437TIP3   OH264801   4.767   1.556  12.293  0.1033  0.0123 -1.1251
14437TIP3    H164802   4.737   1.561  12.384  2.6491  1.5550 -0.2697
14437TIP3    H264803   4.736   1.636  12.252 -0.8647 -0.5852 -1.5981
14438TIP3   OH264804   0.343   1.112  15.136  0.1642  0.9591 -0.2980
14438TIP3    H164805   0.379   1.038  15.185 -0.1081  1.2599  0.3641
14438TIP3    H264806   0.285   1.156  15.198 -0.6377  1.0103 -1.0810
14439TIP3   OH264807   0.319   4.431   6.472 -0.5508 -0.1656  0.2889
14439TIP3    H164808   0.316   4.449   6.566 -1.6085 -0.2810  0.2870
14439TIP3    H264809   0.314   4.336   6.465  1.3757 -0.2879  0.1667
14440TIP3   OH264810   0.945   3.678  12.423  0.7308  0.4531  0.1403
14440TIP3    H164811   0.907   3.599  12.385 -1.1776  0.9979  0.8100
14440TIP3    H264812   0.973   3.730  12.348  3.1099 -1.3041 -0.2933
14441TIP3   OH264813   5.409   4.631  16.722 -0.2647  0.0254 -0.1873
14441TIP3    H164814   5.437   4.566  16.658 -1.6386 -1.1416  0.3441
14441TIP3    H264815   5.327   4.666  16.685  0.8765  2.1349 -0.8951
14442TIP3   OH264816   6.755   2.780   2.109 -0.5462 -0.6727  0.4231
14442TIP3    H164817   6.836   2.765   2.157  0.1025 -0.5072 -0.5715
14442TIP3    H264818   6.685   2.768   2.173  0.2044 -2.1094  1.0234
14443TIP3   OH264819   3.411   1.285   1.486 -0.0307 -0.4164 -0.1173
14443TIP3    H164820   3.482   1.252   1.430  0.9985 -0.9228  1.4408
14443TIP3    H264821   3.354   1.333   1.426  0.7898 -1.3110 -1.6854
14444TIP3   OH264822   6.162   0.369   2.526 -0.6927  0.9659 -0.5357
14444TIP3    H164823   6.221   0.413   2.588  0.9665  1.2319 -2.2138
14444TIP3    H264824   6.200   0.282   2.515 -1.1532  0.8129 -0.9311
14445TIP3   OH264825   3.960   1.906   3.452  0.2524 -0.3266  0.8602
14445TIP3    H164826   3.967   2.001   3.446  1.2381 -0.3196  1.7772
14445TIP3    H264827   3.874   1.885   3.417  1.1069  0.6390 -2.0647
14446TIP3   OH264828   1.636   2.271   0.707 -0.5817 -0.2870  0.2495
14446TIP3    H164829   1.696   2.345   0.698 -0.3003 -0.6614 -1.1515
14446TIP3    H264830   1.553   2.302   0.672 -1.0569 -0.0017  1.5444
14447TIP3   OH264831   2.236   4.786   2.669 -0.3409 -0.3216  0.2051
14447TIP3    H164832   2.238   4.835   2.751 -1.6022  1.1284 -0.5645
14447TIP3    H264833   2.315   4.733   2.671 -0.7446 -0.9718  2.7226
14448TIP3   OH264834   1.998   0.833  16.618  0.1507 -0.0090  0.3470
14448TIP3    H164835   1.909   0.803  16.600  0.7507 -1.2043 -0.7213
14448TIP3    H264836   1.997   0.926  16.594 -0.9319  0.1179  0.8422
14449TIP3   OH264837   3.807   3.797   0.424  0.1872 -0.1528  0.4941
14449TIP3    H164838   3.761   3.745   0.490  0.2307  1.6410  2.0259
14449TIP3    H264839   3.894   3.756   0.419 -0.0461 -0.7410  1.0258
14450TIP3   OH264840   5.872   3.931  13.680  0.2585  0.3783 -0.9054
14450TIP3    H164841   5.958   3.971  13.690  0.1885  0.6786 -1.4023
14450TIP3    H264842   5.811   4.004  13.692 -0.2067 -0.4490  3.5388
14451TIP3   OH264843   4.422   4.412   5.364 -0.3623  0.3252 -0.1378
14451TIP3    H164844   4.439   4.506   5.355 -1.3845  0.5684  0.3278
14451TIP3    H264845   4.487   4.382   5.428  0.6678  0.4805 -1.0692
14452TIP3   OH264846   3.966   1.421   0.884  0.1197  0.4865  0.3577
14452TIP3    H164847   3.962   1.353   0.951  0.3667  0.0851 -0.0321
14452TIP3    H264848   3.934   1.500   0.929 -0.9377 -0.0492  0.5986
14453TIP3   OH264849   0.868   3.586  11.611  0.1078  0.0511  0.4438
14453TIP3    H164850   0.937   3.646  11.639  0.2852  0.3289 -0.5583
14453TIP3    H264851   0.794   3.643  11.589  0.3917 -0.0492 -0.8413
14454TIP3   OH264852   3.100   5.344  13.883  0.2798 -0.0752 -0.5990
14454TIP3    H164853   3.054   5.263  13.903 -0.6403  0.7286  0.6494
14454TIP3    H264854   3.096   5.395  13.964  0.0602  1.5922 -1.6145
14455TIP3   OH264855   3.671   4.784   4.837  0.4625  0.0543 -0.3302
14455TIP3    H164856   3.689   4.692   4.815 -0.1330 -0.0124 -0.5799
14455TIP3    H264857   3.606   4.778   4.907  0.5348  0.2792 -0.2478
14456TIP3   OH264858   4.625   1.123   0.351  0.7807 -0.1876 -0.5725
14456TIP3    H164859   4.646   1.043   0.398  1.7606  0.2705 -0.2008
14456TIP3    H264860   4.668   1.192   0.401 -0.7944  0.6952 -0.3753
14457TIP3   OH264861   6.607   4.823  13.012 -0.7318 -0.3584 -0.4831
14457TIP3    H164862   6.519   4.785  13.006 -1.1119 -0.1215  2.1862
14457TIP3    H264863   6.652   4.770  13.078  1.2194 -0.5451 -1.8893
14458TIP3   OH264864   2.795   4.383  13.614 -0.4899 -0.0098 -0.4450
14458TIP3    H164865   2.869   4.325  13.599 -0.1804  0.1401  0.4815
14458TIP3    H264866   2.773   4.372  13.706 -0.1268  1.6783 -0.1256
14459TIP3   OH264867   3.743   0.025  10.493  0.0708 -0.3600 -0.6210
14459TIP3    H164868   3.682   0.011  10.421 -1.1014  1.7162 -0.1128
14459TIP3    H264869   3.738  -0.055  10.546 -3.1867  0.1496  0.0607
14460TIP3   OH264870   4.483   2.019   5.884  0.5847  0.1381  0.0204
14460TIP3    H164871   4.571   2.028   5.920 -0.2536 -1.2802  2.6605
14460TIP3    H264872   4.429   2.076   5.939 -0.1628  1.2313 -1.7523
14461TIP3   OH264873   2.601   0.554   4.673 -0.0416  0.4518  0.1051
14461TIP3    H164874   2.590   0.466   4.638  2.2915  0.7081 -1.5070
14461TIP3    H264875   2.545   0.609   4.620 -0.2218  0.1642 -0.0046
14462TIP3   OH264876   4.858   3.492   3.903 -0.0549 -0.2286  0.8259
14462TIP3    H164877   4.867   3.567   3.961 -0.9032  0.9216 -0.4558
14462TIP3    H264878   4.890   3.418   3.954 -0.6387  0.7448  2.6805
14463TIP3   OH264879   1.246   5.224   3.722 -0.0285  0.4232 -0.0664
14463TIP3    H164880   1.303   5.149   3.741 -1.7917 -0.8786  0.3293
14463TIP3    H264881   1.169   5.211   3.778 -0.7153  2.1505 -0.5258
14464TIP3   OH264882   3.182   3.845   1.059  0.3187 -0.7231 -0.2535
14464TIP3    H164883   3.135   3.928   1.056 -2.5314 -2.2065 -0.7692
14464TIP3    H264884   3.234   3.849   1.139 -2.9428  0.0503  2.0397
14465TIP3   OH264885   1.173   0.657   1.790  0.0740 -0.0044 -0.3330
14465TIP3    H164886   1.183   0.713   1.714  1.5398 -0.0772 -0.2304
14465TIP3    H264887   1.262   0.628   1.810 -0.4681 -1.1779  0.5074
14466TIP3   OH264888   5.491   5.800   4.848  0.0508  0.7674  0.4422
14466TIP3    H164889   5.441   5.879   4.827 -1.8560 -0.5986 -0.4283
14466TIP3    H264890   5.538   5.779   4.768 -0.0895  0.5822  0.4071
14467TIP3   OH264891   3.860   5.336   3.901 -0.3169 -0.3431  0.0353
14467TIP3    H164892   3.822   5.377   3.979 -1.5228  0.6630 -1.0393
14467TIP3    H264893   3.802   5.362   3.829 -0.4386 -2.9326 -0.9186
14468TIP3   OH264894   0.137   5.282   0.078 -0.1715  0.0332 -0.3327
14468TIP3    H164895   0.206   5.221   0.103 -0.2380  0.5832  1.3470
14468TIP3    H264896   0.057   5.244   0.115  0.0409  1.9578  2.3820
14469TIP3   OH264897   2.089   4.711   3.285 -0.1127  0.7907  0.3151
14469TIP3    H164898   2.047   4.788   3.248 -0.9192  0.9239  1.4752
14469TIP3    H264899   2.109   4.735   3.376 -1.2395 -0.6649  0.9875
14470TIP3   OH264900   3.490   5.507   2.431  0.9263  0.1414 -0.2414
14470TIP3    H164901   3.438   5.587   2.438 -0.3704 -0.5042 -1.7166
14470TIP3    H264902   3.580   5.538   2.422  0.7381  1.3245  1.4896
14471TIP3   OH264903   2.774   3.057  13.730  0.5107  0.1331 -0.4373
14471TIP3    H164904   2.734   3.139  13.700  0.7980 -0.1093 -1.5570
14471TIP3    H264905   2.816   3.021  13.651  0.1091 -1.2556 -0.0567
14472TIP3   OH264906   0.355   2.650  16.567 -0.2411 -0.0545 -0.4890
14472TIP3    H164907   0.315   2.569  16.536  1.5896 -1.8206  1.3879
14472TIP3    H264908   0.447   2.643  16.542  0.7528 -0.3675  2.7651
14473TIP3   OH264909   4.019   5.423   0.648  0.2709  0.0956 -0.1053
14473TIP3    H164910   4.011   5.339   0.603  0.2268 -0.2701  0.5720
14473TIP3    H264911   4.003   5.402   0.740  0.6423  0.7821  0.1205
14474TIP3   OH264912   5.434   1.844  12.044  0.2713  0.4858  0.0257
14474TIP3    H164913   5.382   1.763  12.041  0.3455  0.4580 -0.7563
14474TIP3    H264914   5.478   1.841  12.128  0.0157 -0.1304  0.1462
14475TIP3   OH264915   0.174   3.725   3.815  0.0431  0.4790 -0.5636
14475TIP3    H164916   0.127   3.643   3.833  2.0466 -0.4459  0.8750
14475TIP3    H264917   0.168   3.735   3.720  0.4307 -1.8343 -0.9033
14476TIP3   OH264918   0.080   2.106  12.463 -0.0524  0.0939 -0.7234
14476TIP3    H164919   0.000   2.158  12.478  0.7591  1.8825 -2.1998
14476TIP3    H264920   0.073   2.077  12.372  1.1277  0.6270 -1.0064
14477TIP3   OH264921   0.515   3.695  16.701  0.5367  0.6115 -0.4538
14477TIP3    H164922   0.587   3.674  16.761  0.0041  0.1715  0.0396
14477TIP3    H264923   0.513   3.791  16.699  1.4995  0.6375 -0.9241
14478TIP3   OH264924   4.887   6.538  11.450  0.4156 -0.0401  0.1707
14478TIP3    H164925   4.940   6.459  11.458  0.1347 -0.2714 -0.2306
14478TIP3    H264926   4.800   6.513  11.483 -0.0606 -0.3030 -1.2192
14479TIP3   OH264927   6.732   2.760   3.385 -0.2058  0.3954 -0.1707
14479TIP3    H164928   6.804   2.806   3.429  1.8626 -2.7196  0.0245
14479TIP3    H264929   6.723   2.804   3.301  1.4768  1.3335  0.0945
14480TIP3   OH264930   2.341   5.909  15.906 -0.2785 -0.1467 -0.4713
14480TIP3    H164931   2.251   5.902  15.938 -0.2455  1.6772  0.1542
14480TIP3    H264932   2.394   5.869  15.974 -0.5843 -1.1031 -0.7771
14481TIP3   OH264933   4.142   5.978  14.000 -0.2192 -0.3824 -0.3477
14481TIP3    H164934   4.102   5.928  13.929  0.9079 -1.1354 -0.4944
14481TIP3    H264935   4.164   6.062  13.961 -0.5301 -0.4230 -0.6102
14482TIP3   OH264936   6.313   2.677   2.324  0.2996 -0.4217 -0.4179
14482TIP3    H164937   6.318   2.722   2.240  2.9677 -0.1184 -0.1737
14482TIP3    H264938   6.368   2.729   2.382  1.9882 -2.9273  0.3770
14483TIP3   OH264939   3.173   3.615  13.156  0.4208  0.1018 -0.2263
14483TIP3    H164940   3.197   3.541  13.213 -0.2779 -0.3837 -0.5449
14483TIP3    H264941   3.252   3.632  13.105  0.7129 -0.1707  0.1273
14484TIP3   OH264942   1.246   1.899   1.312 -0.3412 -0.1165 -0.0876
14484TIP3    H164943   1.317   1.929   1.368  0.0454  0.2549 -0.7587
14484TIP3    H264944   1.169   1.900   1.369  0.1253 -0.2098  0.5600
14485TIP3   OH264945   2.265   2.813   1.446 -0.2512 -0.0145  0.3146
14485TIP3    H164946   2.293   2.779   1.531  0.5502  0.5303  0.2814
14485TIP3    H264947   2.319   2.891   1.433  2.6724 -2.2460 -2.5362
14486TIP3   OH264948   4.845   6.121   5.192 -0.1201 -0.5214 -0.3585
14486TIP3    H164949   4.813   6.208   5.166 -1.2654 -0.1232  2.0708
14486TIP3    H264950   4.769   6.064   5.183  0.0410 -0.8090  0.0774
14487TIP3   OH264951   1.575   2.169  15.686  0.6203 -0.4052 -0.1392
14487TIP3    H164952   1.638   2.206  15.624  0.2586 -1.3201 -1.1054
14487TIP3    H264953   1.545   2.243  15.738  0.7383  0.4671 -1.2627
14488TIP3   OH264954   2.449   4.707  11.409 -0.4119 -0.4502 -0.5904
14488TIP3    H164955   2.370   4.748  11.374 -0.2947  0.8565  0.5765
14488TIP3    H264956   2.452   4.735  11.501 -0.5124 -3.3842  0.4313
14489TIP3   OH264957   2.668   2.614   4.536 -0.3693  0.6052 -0.1598
14489TIP3    H164958   2.665   2.625   4.631 -0.4146  0.9035 -0.1964
14489TIP3    H264959   2.708   2.694   4.503  0.8328 -0.0255 -0.3053
14490TIP3   OH264960   1.585   2.928   1.408 -0.1140  0.0541 -0.2036
14490TIP3    H164961   1.605   3.021   1.395 -0.3696 -0.0087 -1.0965
14490TIP3    H264962   1.609   2.887   1.326  2.2918 -1.0825  0.9708
14491TIP3   OH264963   6.672   2.060  13.654  0.0545 -0.1678 -0.4475
14491TIP3    H164964   6.664   1.967  13.636  1.3807 -0.0106 -2.1292
14491TIP3    H264965   6.647   2.103  13.572  0.6167  0.8963 -0.0896
14492TIP3   OH264966   5.330   6.543   6.185  0.5465 -0.5450  0.3696
14492TIP3    H164967   5.407   6.536   6.128  0.5381  3.0688 -0.3220
14492TIP3    H264968   5.363   6.583   6.266 -0.3510 -0.3820  0.6677
14493TIP3   OH264969   1.566   5.852  15.194  0.1009 -0.0615  0.0504
14493TIP3    H164970   1.636   5.794  15.222  0.7685  1.1370  0.9421
14493TIP3    H264971   1.491   5.827  15.248 -0.1983 -1.3361 -0.8965
14494TIP3   OH264972   1.762   4.068  11.636 -0.2410  0.7138  0.0569
14494TIP3    H164973   1.737   3.992  11.584  0.4730  0.5949 -0.1234
14494TIP3    H264974   1.736   4.143  11.582  0.0634  0.5941 -0.2557
14495TIP3   OH264975   2.844   2.017  14.137 -0.2624 -0.4276  0.1442
14495TIP3    H164976   2.820   2.099  14.180  0.3596 -0.5362  0.7113
14495TIP3    H264977   2.896   2.044  14.061  0.7014 -0.3185  0.8295
14496TIP3   OH264978   4.175   1.318   0.446  0.4494 -0.4451  0.1065
14496TIP3    H164979   4.098   1.265   0.423 -1.3615  2.0986 -0.1773
14496TIP3    H264980   4.154   1.356   0.531  2.5093 -1.5676  1.1721
14497TIP3   OH264981   0.912   2.964  13.148 -0.1895  0.5539 -0.1072
14497TIP3    H164982   0.967   2.970  13.070  1.0756 -1.2721  0.5577
14497TIP3    H264983   0.937   3.040  13.201  0.7697  0.4527 -0.4012
14498TIP3   OH264984   4.461   1.394   0.470  0.1530  0.2549 -0.2885
14498TIP3    H164985   4.371   1.424   0.486  0.9391  2.1066  1.0165
14498TIP3    H264986   4.481   1.424   0.381 -0.5189 -0.2058 -0.6024
14499TIP3   OH264987   5.916   1.922   5.199  0.5632 -0.1044  0.3151
14499TIP3    H164988   5.895   2.015   5.204  2.4725  0.3726  0.2137
14499TIP3    H264989   5.959   1.911   5.114  0.2835 -1.0944  0.2829
14500TIP3   OH264990   5.241   0.441  12.614  0.0097 -0.0479 -0.1742
14500TIP3    H164991   5.183   0.369  12.640 -1.3003  0.1817 -2.1673
14500TIP3    H264992   5.277   0.474  12.696 -0.1022 -2.3372  0.8763
14501TIP3   OH264993   2.678   1.343  15.790 -0.3656 -0.1876 -0.1552
14501TIP3    H164994   2.688   1.363  15.697  2.5571 -2.3363 -0.4269
14501TIP3    H264995   2.655   1.427  15.830  1.4472  1.5005 -2.4003
14502TIP3   OH264996   5.936   5.812   5.733 -0.3855 -0.4091 -0.3685
14502TIP3    H164997   6.011   5.770   5.776 -0.9760 -1.8244 -0.6624
14502TIP3    H264998   5.953   5.906   5.742 -0.2110 -0.6016  2.4984
14503TIP3   OH264999   1.295   3.257   3.616 -0.1323  0.6621 -0.8318
14503TIP3    H165000   1.237   3.182   3.603  0.5300  0.2720 -1.5925
14503TIP3    H265001   1.317   3.254   3.709 -1.5606  0.9975 -0.4506
14504TIP3   OH265002   0.301   0.281   0.347  0.5485  0.1743  0.1204
14504TIP3    H165003   0.349   0.364   0.344  1.9706 -0.6410 -0.7765
14504TIP3    H265004   0.276   0.265   0.256 -2.0048  0.8453  0.6183
14505TIP3   OH265005   1.742   0.305  11.616  0.8160  0.4748 -0.3878
14505TIP3    H165006   1.818   0.261  11.655 -0.6917 -0.0850  2.1103
14505TIP3    H265007   1.715   0.246  11.545  2.9876  0.9866 -1.7575
14506TIP3   OH265008   0.297   6.219  13.573 -0.6275  0.2556 -0.0588
14506TIP3    H165009   0.232   6.172  13.624 -0.0448  1.0049  1.4588
14506TIP3    H265010   0.261   6.224  13.485 -2.6016  0.6382  0.7363
14507TIP3   OH265011   2.674   2.977  13.259 -0.6677  0.2037  0.3824
14507TIP3    H165012   2.700   2.944  13.173  1.9855  2.1460  0.3493
14507TIP3    H265013   2.639   3.064  13.242  0.4268  0.8416  1.3101
14508TIP3   OH265014   4.680   3.731  14.281 -0.3781 -0.1004 -0.2251
14508TIP3    H165015   4.600   3.782  14.299  1.4839  2.9538  0.2057
14508TIP3    H265016   4.690   3.675  14.357  0.1425  2.7645  2.0059
14509TIP3   OH265017   4.785   4.839  15.222 -0.6099  0.0352  0.2746
14509TIP3    H165018   4.708   4.782  15.223 -1.0360  0.5925  1.2829
14509TIP3    H265019   4.773   4.895  15.146 -1.5610  0.5619  0.7875
14510TIP3   OH265020   6.064   3.673   5.527  0.2715 -0.1200  0.5725
14510TIP3    H165021   6.024   3.588   5.546  1.5199 -0.5958  1.1740
14510TIP3    H265022   6.108   3.661   5.443 -0.0681  0.1131  0.3626
14511TIP3   OH265023   1.696   5.177   5.150 -0.8975  0.3269 -0.3984
14511TIP3    H165024   1.623   5.135   5.195  0.0760  0.5828  1.5478
14511TIP3    H265025   1.723   5.248   5.208  0.1081  1.0387 -1.6676
14512TIP3   OH265026   2.801   2.855   5.031  0.0463 -1.1306 -1.2400
14512TIP3    H165027   2.761   2.806   4.960 -3.4480 -1.1891  0.5457
14512TIP3    H265028   2.763   2.818   5.111  1.1441  1.1513  0.4839
14513TIP3   OH265029   4.100   3.345  14.742  0.0761 -0.5699 -0.1985
14513TIP3    H165030   4.115   3.429  14.699 -0.5978 -0.9295 -1.1497
14513TIP3    H265031   4.186   3.304  14.744  0.4547  0.2171  0.4647
14514TIP3   OH265032   5.335   1.488   4.498 -0.5909  0.1458  0.2639
14514TIP3    H165033   5.285   1.464   4.419 -0.7687 -0.1749  0.4711
14514TIP3    H265034   5.287   1.563   4.534 -1.7846 -1.0378  1.2502
14515TIP3   OH265035   2.350   5.246  11.159 -0.7683 -0.9696 -0.0326
14515TIP3    H165036   2.323   5.337  11.165 -1.4875 -1.1982  0.2684
14515TIP3    H265037   2.423   5.246  11.097 -0.1602 -0.0583  0.6692
14516TIP3   OH265038   4.945   4.200   2.106  0.0872  0.2849  0.3815
14516TIP3    H165039   4.904   4.113   2.103  1.0537 -0.2065  1.0503
14516TIP3    H265040   4.896   4.251   2.041 -1.2464 -0.4259  0.7845
14517TIP3   OH265041   0.720   3.156  14.174 -0.2951  0.5088  0.3953
14517TIP3    H165042   0.669   3.096  14.119  0.7628 -1.1406  1.1480
14517TIP3    H265043   0.656   3.218  14.207 -1.1879  0.7489 -1.6174
14518TIP3   OH265044   0.813   1.796  15.474 -0.0656 -0.2306 -0.1416
14518TIP3    H165045   0.786   1.724  15.530  2.4214 -0.9706  0.2330
14518TIP3    H265046   0.783   1.875  15.520 -1.0882 -0.9393  0.4468
14519TIP3   OH265047   3.619   3.987  16.712  0.2039 -0.0304 -0.4784
14519TIP3    H165048   3.621   4.019  16.802 -0.2018  1.3082 -0.9216
14519TIP3    H265049   3.536   4.018  16.677  0.4777 -0.3017 -1.4095
14520TIP3   OH265050   6.636   6.225  12.077 -0.1515 -0.1182 -0.1178
14520TIP3    H165051   6.679   6.247  11.994  1.8858 -0.5834  0.7511
14520TIP3    H265052   6.560   6.283  12.080 -0.6184 -0.4932 -2.5557
14521TIP3   OH265053   2.524   2.307  13.709 -0.4048 -0.3986  0.3430
14521TIP3    H165054   2.516   2.392  13.752  0.6845 -1.0619  1.9189
14521TIP3    H265055   2.548   2.329  13.619 -0.1058  0.9703  0.7300
14522TIP3   OH265056   5.507   0.982  16.589 -0.1818 -0.4670 -0.1625
14522TIP3    H165057   5.428   0.932  16.606 -1.2962  1.8396  2.0610
14522TIP3    H265058   5.559   0.976  16.669 -1.1658  3.1238  0.9364
14523TIP3   OH265059   1.458   2.177   5.015 -0.0895  0.3975  0.0405
14523TIP3    H165060   1.535   2.234   5.015 -0.2446  0.6190  0.6969
14523TIP3    H265061   1.391   2.228   5.060 -0.4952  0.0342 -0.1436
14524TIP3   OH265062   6.766   6.514  12.079 -0.1909  0.2536  0.1738
14524TIP3    H165063   6.776   6.543  12.170 -0.2057 -3.0408  1.3656
14524TIP3    H265064   6.680   6.546  12.053 -0.4729  0.7040  1.5848
14525TIP3   OH265065   2.280   4.968   2.227 -0.1982  0.4423  0.3667
14525TIP3    H165066   2.301   4.917   2.305 -0.0070  1.4839  1.0265
14525TIP3    H265067   2.342   4.937   2.160 -0.9324 -1.0573  0.3430
14526TIP3   OH265068   3.454   3.318  16.538  0.1817  0.2645 -0.2051
14526TIP3    H165069   3.393   3.340  16.609 -0.7717 -2.2351 -0.1313
14526TIP3    H265070   3.513   3.253  16.577  0.3889 -0.2697 -1.3643
14527TIP3   OH265071   6.024   1.080  10.555  0.3112  0.7032 -0.1168
14527TIP3    H165072   6.092   1.143  10.577 -0.2819  1.2140  0.3133
14527TIP3    H265073   5.943   1.132  10.553 -0.3498 -0.2064  1.3348
14528TIP3   OH265074   4.378   6.295   2.429  0.1004 -0.0488 -0.4784
14528TIP3    H165075   4.401   6.248   2.349 -0.4059  1.0046 -1.2859
14528TIP3    H265076   4.284   6.311   2.420 -0.0975 -0.4990  0.6633
14529TIP3   OH265077   0.723   6.772   4.393 -0.8951  0.2541  0.1213
14529TIP3    H165078   0.817   6.781   4.377 -0.9347 -0.8321 -0.8952
14529TIP3    H265079   0.687   6.860   4.381 -0.1675  0.4493 -0.7009
14530TIP3   OH265080   5.029   0.824   2.651  0.0627  0.0173 -0.0882
14530TIP3    H165081   5.016   0.731   2.636  2.1004 -0.3092 -0.0971
14530TIP3    H265082   5.048   0.831   2.745  0.0383  0.4248 -0.1093
14531TIP3   OH265083   2.762   4.763   1.669 -0.2372  0.2452 -0.3331
14531TIP3    H165084   2.722   4.691   1.620 -2.7133  0.7424  0.7924
14531TIP3    H265085   2.856   4.755   1.650 -0.7568 -1.2758 -2.8018
14532TIP3   OH265086   0.378   3.379  16.342 -0.3039  0.0432  0.0004
14532TIP3    H165087   0.362   3.392  16.248  1.6687 -0.3216 -0.4332
14532TIP3    H265088   0.462   3.333  16.346 -0.6634 -0.5422  1.9397
14533TIP3   OH265089   0.653   4.473  13.640 -0.1517 -0.0294 -0.3406
14533TIP3    H165090   0.625   4.425  13.562 -1.0121 -1.0591  0.5654
14533TIP3    H265091   0.573   4.514  13.672 -0.1454 -0.8868  0.8476
14534TIP3   OH265092   1.529   4.245  15.680 -0.1736 -0.1937  0.3110
14534TIP3    H165093   1.485   4.163  15.656  1.7062 -0.6746 -1.8219
14534TIP3    H265094   1.560   4.230  15.769 -1.1505 -1.2146  0.5123
14535TIP3   OH265095   3.768   1.403   3.252 -0.5843  0.0051 -0.0157
14535TIP3    H165096   3.676   1.427   3.244 -0.6331 -0.0177  0.4240
14535TIP3    H265097   3.796   1.445   3.334 -0.0003  0.6524 -0.5399
14536TIP3   OH265098   6.101   1.642   1.884 -0.0656  0.1393  0.5894
14536TIP3    H165099   6.188   1.633   1.924  0.5160 -2.3555 -1.0474
14536TIP3    H265100   6.042   1.598   1.944  0.6818 -2.8652 -0.7106
14537TIP3   OH265101   2.432   3.902   5.010  0.3775 -0.8044  0.0946
14537TIP3    H165102   2.348   3.937   5.038  0.7247 -0.1239  0.2926
14537TIP3    H265103   2.410   3.823   4.960 -0.3771 -0.5534  0.0287
14538TIP3   OH265104   5.362   6.449   4.860  0.8129  0.2094 -0.2523
14538TIP3    H165105   5.349   6.354   4.864 -0.7763  0.2957 -1.9862
14538TIP3    H265106   5.312   6.483   4.934  1.2845 -0.2922  0.3031
14539TIP3   OH265107   6.265   2.843   1.672 -0.0363  0.3696  0.7940
14539TIP3    H165108   6.345   2.802   1.703  0.6817  1.7318  0.8292
14539TIP3    H265109   6.260   2.819   1.579 -0.5086 -1.1025  1.1767
14540TIP3   OH265110   2.928   5.306  17.046  0.1104 -0.0208 -0.1161
14540TIP3    H165111   2.916   5.215  17.020 -1.3236 -0.1389  0.9025
14540TIP3    H265112   2.856   5.353  17.004  0.6598  0.6134 -0.3755
14541TIP3   OH265113   4.201   2.249  16.183 -0.0889 -0.0112 -0.9520
14541TIP3    H165114   4.242   2.171  16.145 -0.3246  0.9119 -3.2502
14541TIP3    H265115   4.245   2.261  16.267  1.4532 -1.3775 -1.5188
14542TIP3   OH265116   6.579   5.288   3.371 -0.3006 -0.1577 -0.3414
14542TIP3    H165117   6.585   5.227   3.445 -0.1956  0.3551  0.0830
14542TIP3    H265118   6.580   5.375   3.412 -0.4998  0.1276 -0.9318
14543TIP3   OH265119   1.399   0.412   4.530 -0.0788 -0.0006 -0.2221
14543TIP3    H165120   1.342   0.470   4.581 -0.4376  0.3504 -1.0069
14543TIP3    H265121   1.467   0.470   4.494 -0.6414  0.0133 -1.3013
14544TIP3   OH265122   6.282   5.805  15.313 -0.2698 -0.4106  0.4357
14544TIP3    H165123   6.308   5.737  15.375 -0.6897  0.9015  2.1404
14544TIP3    H265124   6.359   5.818  15.257  0.2760 -1.3309  0.9532
14545TIP3   OH265125   0.860   1.853  13.303 -0.3339 -0.0222  0.1352
14545TIP3    H165126   0.769   1.884  13.293 -0.2036 -0.0599 -1.4266
14545TIP3    H265127   0.894   1.903  13.377 -1.7409 -0.2957  1.0033
14546TIP3   OH265128   0.960   5.318   0.307  0.0862 -0.4133  0.3657
14546TIP3    H165129   1.015   5.377   0.359  0.0325 -1.2815  1.4599
14546TIP3    H265130   0.889   5.294   0.366 -0.3071 -0.9604 -0.3222
14547TIP3   OH265131   0.270   2.131   4.623 -0.5388 -0.1701 -0.4342
14547TIP3    H165132   0.272   2.172   4.709  0.7111 -2.8644  0.9150
14547TIP3    H265133   0.184   2.154   4.587 -0.6939  1.8315  1.0333
14548TIP3   OH265134   2.927   6.778  15.938 -0.3506  0.0113  0.5877
14548TIP3    H165135   2.843   6.817  15.913 -0.5825 -2.1225 -2.4377
14548TIP3    H265136   2.981   6.786  15.859  0.9388 -2.1117  1.1960
14549TIP3   OH265137   5.484   2.408  12.691  0.2128  0.0247  0.2856
14549TIP3    H165138   5.517   2.420  12.602 -0.9657 -0.2237 -0.2075
14549TIP3    H265139   5.404   2.462  12.694 -1.1956 -1.9534  0.3318
14550TIP3   OH265140   5.083   0.583   0.548 -0.0916  0.6978  0.0334
14550TIP3    H165141   5.040   0.667   0.534 -1.0930  0.4203  1.3146
14550TIP3    H265142   5.020   0.531   0.598  0.2485 -1.0480 -1.2329
14551TIP3   OH265143   5.219   3.649   2.936  0.0718 -0.9174  0.0205
14551TIP3    H165144   5.313   3.637   2.951 -0.4036 -2.6798  2.0285
14551TIP3    H265145   5.206   3.743   2.947  2.0546  0.0585 -3.8738
14552TIP3   OH265146   6.505   2.890  16.752 -0.3991 -0.5052  0.5757
14552TIP3    H165147   6.518   2.969  16.804  2.3202 -0.4924  0.0218
14552TIP3    H265148   6.549   2.821  16.801 -0.3717 -1.0962 -0.2494
14553TIP3   OH265149   1.411   6.239   2.570 -0.0019 -0.1455 -0.0432
14553TIP3    H165150   1.317   6.237   2.586 -0.0946 -2.5141 -0.5628
14553TIP3    H265151   1.450   6.208   2.652  0.2443 -0.2840 -0.2102
14554TIP3   OH265152   0.147   0.287  15.548  0.4347  0.5825  0.0157
14554TIP3    H165153   0.177   0.373  15.520  0.8697 -0.1480 -1.9226
14554TIP3    H265154   0.057   0.282  15.516 -0.3203  1.0419  1.9024
14555TIP3   OH265155   0.996   0.204  12.211  0.2845  0.4936  0.1726
14555TIP3    H165156   1.038   0.243  12.135 -0.4894  0.9327 -0.0455
14555TIP3    H265157   0.924   0.152  12.174  0.7540 -0.4231  0.5187
14556TIP3   OH265158   1.469   4.777  13.394  0.2235  0.4266  0.1434
14556TIP3    H165159   1.466   4.845  13.327  0.2462  0.6899  0.4038
14556TIP3    H265160   1.500   4.699  13.349  2.0558  1.0554  0.2300
14557TIP3   OH265161   3.556   2.874   6.064 -0.1224 -0.1245 -0.7878
14557TIP3    H165162   3.541   2.787   6.101 -1.0667  0.3225 -0.0573
14557TIP3    H265163   3.609   2.919   6.130  0.0760 -0.0386 -1.0057
14558TIP3   OH265164   1.473   2.540   3.271  0.0503 -0.0268 -0.1488
14558TIP3    H165165   1.542   2.602   3.294  1.3595 -1.2891 -0.4992
14558TIP3    H265166   1.406   2.553   3.338  1.0004  0.6586  0.7062
14559TIP3   OH265167   4.859   4.013  12.131 -0.5304 -0.6948  0.0471
14559TIP3    H165168   4.866   3.936  12.187 -0.3997 -0.3283  0.5454
14559TIP3    H265169   4.767   4.017  12.106 -0.3719 -1.5091 -0.7083
14560TIP3   OH265170   4.910   2.675   4.674  0.2115 -0.7120 -0.3039
14560TIP3    H165171   4.902   2.596   4.620 -0.3373 -1.3415  0.6635
14560TIP3    H265172   4.852   2.739   4.632 -0.3146 -1.2367 -0.3972
14561TIP3   OH265173   6.056   3.397   1.164 -0.0189  0.3702 -0.2950
14561TIP3    H165174   6.085   3.356   1.246  2.1847 -0.1622 -1.2476
14561TIP3    H265175   6.062   3.491   1.180  0.5810  0.2676  0.1042
14562TIP3   OH265176   2.462   6.797   1.546  0.2851  0.2397  0.2036
14562TIP3    H165177   2.480   6.886   1.516 -0.2016  0.1702 -0.2901
14562TIP3    H265178   2.544   6.749   1.529  0.4868  0.5460  0.3077
14563TIP3   OH265179   0.522   4.754  10.790  0.2167  0.5199  0.3287
14563TIP3    H165180   0.574   4.688  10.836 -0.5102 -1.2073 -1.1852
14563TIP3    H265181   0.440   4.759  10.839  0.2148  0.1560  0.3635
14564TIP3   OH265182   3.804   0.420   4.051  0.0863  0.2358  0.3977
14564TIP3    H165183   3.715   0.453   4.062 -0.0410  0.6416 -1.5080
14564TIP3    H265184   3.845   0.482   3.991  1.3252 -0.5134  0.4460
14565TIP3   OH265185   1.024   2.176  15.581 -0.4260 -0.4507  0.3724
14565TIP3    H165186   0.956   2.137  15.636  0.2843  1.1189  2.5389
14565TIP3    H265187   1.090   2.108  15.572 -0.3217 -0.5936  1.9597
14566TIP3   OH265188   4.442   5.678   1.530  0.2422 -0.3216 -0.5165
14566TIP3    H165189   4.432   5.762   1.486 -0.0454  0.6019  1.2271
14566TIP3    H265190   4.525   5.684   1.577 -0.8628 -0.0437  1.5225
14567TIP3   OH265191   4.467   2.339   5.980  0.2778 -0.2788  0.4296
14567TIP3    H165192   4.446   2.416   6.034 -0.6465 -0.6568  0.6219
14567TIP3    H265193   4.563   2.336   5.980  0.3344  0.9816  0.2614
14568TIP3   OH265194   3.571   5.815  10.904 -0.2598 -0.7975  0.1433
14568TIP3    H165195   3.620   5.737  10.878  0.6694 -0.3695  0.5562
14568TIP3    H265196   3.581   5.875  10.830 -0.0612 -0.6724  0.2690
14569TIP3   OH265197   6.089   3.796  13.863 -0.0062  0.9147  0.2764
14569TIP3    H165198   6.132   3.881  13.859 -1.6121  1.7454 -3.2602
14569TIP3    H265199   6.007   3.813  13.910 -0.5554  1.5012 -0.8521
14570TIP3   OH265200   0.956   6.556   0.520 -0.2527 -0.0910 -0.0244
14570TIP3    H165201   0.996   6.561   0.433 -0.2572  1.5672  0.0291
14570TIP3    H265202   0.894   6.629   0.522 -1.7726 -1.3405  0.6548
14571TIP3   OH265203   4.393   5.990   3.494 -0.4438  0.1443 -0.4929
14571TIP3    H165204   4.419   6.036   3.573  0.2208  0.4491 -0.8828
14571TIP3    H265205   4.326   5.927   3.523  0.8448 -0.7925  0.5681
14572TIP3   OH265206   2.534   0.305  11.619 -0.4049  0.7572 -0.4901
14572TIP3    H165207   2.523   0.221  11.574 -1.8897  1.4667 -1.5390
14572TIP3    H265208   2.496   0.290  11.706 -2.4769  0.8273 -1.3176
14573TIP3   OH265209   2.752   3.296  14.082  0.5215 -0.6616 -0.2723
14573TIP3    H165210   2.753   3.367  14.146 -0.0388 -1.7353  0.9567
14573TIP3    H265211   2.661   3.290  14.054  0.5702 -0.8729 -0.3914
14574TIP3   OH265212   0.826   6.001  11.575  0.0300  0.1433 -0.0737
14574TIP3    H165213   0.767   6.072  11.600  1.5915  0.6408  2.5586
14574TIP3    H265214   0.907   6.045  11.550  0.8200 -0.6817  0.9858
14575TIP3   OH265215   4.092   6.575   4.545 -0.2153 -0.0846  0.0483
14575TIP3    H165216   4.139   6.632   4.607 -1.1024  1.9344 -1.0253
14575TIP3    H265217   4.155   6.508   4.521  0.8373  0.3242  1.5194
14576TIP3   OH265218   0.620   3.522  12.932 -0.0350 -0.0826 -0.0595
14576TIP3    H165219   0.588   3.504  13.020 -2.5438  1.1895 -0.6304
14576TIP3    H265220   0.585   3.451  12.879  1.1265 -0.6227 -0.1179
14577TIP3   OH265221   6.740   0.605  12.570  0.1182  0.4665  0.0410
14577TIP3    H165222   6.708   0.515  12.561  0.8277  0.1597  0.4931
14577TIP3    H265223   6.673   0.659  12.528  0.4926 -0.4070 -1.7837
14578TIP3   OH265224   1.452   0.762   0.452 -0.2516 -0.0381  1.2084
14578TIP3    H165225   1.480   0.792   0.365 -1.0432  1.3293  1.3898
14578TIP3    H265226   1.447   0.842   0.504  1.6549 -0.9818  2.9790
14579TIP3   OH265227   5.342   4.385   0.213  0.5777 -0.1629 -0.4040
14579TIP3    H165228   5.283   4.413   0.143  1.1421 -0.3753 -0.9790
14579TIP3    H265229   5.421   4.439   0.200  0.0977  0.9572  1.0629
14580TIP3   OH265230   0.481   4.607  15.759  0.5415 -0.0741 -0.1245
14580TIP3    H165231   0.572   4.621  15.733  0.7314  0.3394  0.7477
14580TIP3    H265232   0.483   4.601  15.854 -0.1815 -1.2904 -0.1546
14581TIP3   OH265233   5.186   0.764  10.624  0.1355 -0.0393  0.3276
14581TIP3    H165234   5.131   0.686  10.632 -0.3651 -0.1305 -2.8075
14581TIP3    H265235   5.131   0.827  10.577  0.2586  2.5997  3.3812
14582TIP3   OH265236   0.899   6.227   1.706 -0.1607 -0.6609 -0.1875
14582TIP3    H165237   0.929   6.189   1.789  0.6260  0.7134  0.1977
14582TIP3    H265238   0.958   6.191   1.640  2.2047  1.6123  0.4983
14583TIP3   OH265239   1.480   3.183   2.183  0.2357  0.1701 -0.0396
14583TIP3    H165240   1.551   3.203   2.121 -0.5918  1.4519 -0.6206
14583TIP3    H265241   1.523   3.184   2.269  0.6963  2.4040 -0.2371
14584TIP3   OH265242   2.074   0.836   2.150  0.0529  0.1701  0.1041
14584TIP3    H165243   2.098   0.929   2.146 -0.0704  0.1826 -0.3643
14584TIP3    H265244   1.983   0.836   2.179  0.3203  0.1570  0.9772
14585TIP3   OH265245   3.084   2.254  16.881 -0.5055 -0.2973  0.1399
14585TIP3    H165246   2.996   2.215  16.878 -0.0806 -1.4739  1.8235
14585TIP3    H265247   3.143   2.181  16.865  0.2040  0.7903 -2.8551
14586TIP3   OH265248   1.444   0.812  15.695  0.7092  0.1212 -0.6962
14586TIP3    H165249   1.496   0.847  15.623  0.1775  0.8384 -0.7398
14586TIP3    H265250   1.457   0.873  15.767 -0.6249  0.7170 -0.9299
14587TIP3   OH265251   5.210   0.223   1.525 -0.5319 -0.2930 -0.2594
14587TIP3    H165252   5.237   0.201   1.614 -2.0377  0.0513  0.3271
14587TIP3    H265253   5.234   0.315   1.514 -0.0334 -0.4322 -0.3393
14588TIP3   OH265254   5.401   4.507   3.645 -0.1081  0.2016  0.2655
14588TIP3    H165255   5.373   4.437   3.587  0.4889 -0.3300  0.6064
14588TIP3    H265256   5.472   4.550   3.597  1.5661 -1.3119  1.2686
14589TIP3   OH265257   4.781   4.392   0.676  0.1129  0.1664  0.3270
14589TIP3    H165258   4.721   4.438   0.734  0.1438  1.2910 -0.4931
14589TIP3    H265259   4.855   4.453   0.667  0.1552 -0.0439 -0.7868
14590TIP3   OH265260   2.968   6.601   1.094 -0.1753 -0.2396  0.1512
14590TIP3    H165261   2.893   6.546   1.070 -0.3061 -0.4756  1.0784
14590TIP3    H265262   3.007   6.557   1.169  1.2409 -0.4230 -0.6631
14591TIP3   OH265263   6.446   5.284  17.136 -0.0091 -0.2487 -0.1155
14591TIP3    H165264   6.482   5.196  17.149  0.9266 -0.2178 -2.0886
14591TIP3    H265265   6.351   5.271  17.139  0.1039 -1.3907 -0.6916
14592TIP3   OH265266   5.963   3.565   0.777  0.4008  0.1260 -0.2699
14592TIP3    H165267   6.010   3.482   0.768  2.2835  1.1686 -0.6356
14592TIP3    H265268   5.986   3.596   0.865 -1.1975 -0.2386  0.3075
14593TIP3   OH265269   5.843   0.680   2.367 -0.0987  0.3060 -0.0945
14593TIP3    H165270   5.910   0.611   2.357 -0.7184 -0.1603 -1.2543
14593TIP3    H265271   5.891   0.762   2.354  0.8174  0.1965  2.1304
14594TIP3   OH265272   6.213   4.537  17.222 -0.2967  0.4846 -0.8201
14594TIP3    H165273   6.260   4.459  17.251  0.3964  0.5292 -1.7921
14594TIP3    H265274   6.125   4.526  17.258 -0.7134 -1.5699 -2.2639
14595TIP3   OH265275   6.717   0.680   0.247 -0.2765 -0.0489 -0.2272
14595TIP3    H165276   6.771   0.634   0.184 -1.1809 -0.0818 -0.9972
14595TIP3    H265277   6.719   0.772   0.218 -0.6244 -0.0489 -0.2545
14596TIP3   OH265278   1.172   1.234   0.142  0.5913  0.1133  0.1327
14596TIP3    H165279   1.192   1.205   0.052  1.0625 -1.2581  0.6483
14596TIP3    H265280   1.218   1.171   0.197 -1.7614 -0.6133  1.3813
14597TIP3   OH265281   4.801   4.067   2.937  0.1374  0.8311  0.2394
14597TIP3    H165282   4.790   4.096   2.846  0.8843  1.3507  0.3042
14597TIP3    H265283   4.713   4.071   2.974 -0.1395  0.8329 -0.3959
14598TIP3   OH265284   3.830   2.355   1.769 -0.2227  0.1997 -0.1747
14598TIP3    H165285   3.898   2.366   1.703 -1.4473  2.4659 -1.1867
14598TIP3    H265286   3.773   2.287   1.735 -1.7196  2.3896 -2.3867
14599TIP3   OH265287   1.517   6.374   1.604  0.3178  0.0274  0.3754
14599TIP3    H165288   1.545   6.352   1.693  1.2328 -1.7665 -0.3188
14599TIP3    H265289   1.596   6.370   1.551 -0.5385 -0.9556 -0.8892
14600TIP3   OH265290   2.163   0.685  15.977 -0.4061 -0.1794 -0.0388
14600TIP3    H165291   2.252   0.650  15.980 -0.2806  0.1019 -0.4903
14600TIP3    H265292   2.173   0.775  15.947 -0.9106 -0.3898 -0.8756
14601TIP3   OH265293   3.526   1.718   0.910  0.0268 -0.0054  0.0596
14601TIP3    H165294   3.544   1.762   0.993  0.1492  0.9248 -0.4373
14601TIP3    H265295   3.475   1.782   0.860 -2.6620 -1.6456  0.5183
14602TIP3   OH265296   5.013   2.771  16.948 -0.5651 -0.5468  0.9487
14602TIP3    H165297   5.071   2.714  16.999 -0.6430 -0.8002  0.7615
14602TIP3    H265298   5.069   2.840  16.914 -0.8959  0.9743  3.2937
14603TIP3   OH265299   4.022   3.835  15.835  0.0328 -0.3221 -0.2039
14603TIP3    H165300   4.017   3.779  15.758 -1.8661  0.9751 -1.1089
14603TIP3    H265301   4.090   3.899  15.814  0.1074 -0.4786 -0.4461
14604TIP3   OH265302   5.853   5.249  16.182  0.2006 -0.5733 -0.2849
14604TIP3    H165303   5.937   5.228  16.142  0.7012 -0.0216  0.4293
14604TIP3    H265304   5.807   5.302  16.116  0.1919 -1.3067 -0.8763
14605TIP3   OH265305   5.688   1.239   6.250  0.0640 -0.5686  0.4789
14605TIP3    H165306   5.723   1.235   6.339 -1.1300  0.0472  0.9910
14605TIP3    H265307   5.697   1.331   6.225  0.7566 -0.8066 -0.2081
14606TIP3   OH265308   5.487   3.905  12.455  0.1045 -0.0089 -0.2653
14606TIP3    H165309   5.424   3.841  12.488 -0.2159  0.2954 -0.2835
14606TIP3    H265310   5.488   3.890  12.360 -1.1016  1.0130 -0.4627
14607TIP3   OH265311   4.656   2.352  16.764  0.2266  0.4433  0.0618
14607TIP3    H165312   4.688   2.439  16.788  0.0246  0.3944  0.5275
14607TIP3    H265313   4.714   2.324  16.693 -0.2948  1.3389 -0.7409
14608TIP3   OH265314   3.942   0.289   2.878  0.1034 -0.6843 -0.0268
14608TIP3    H165315   3.933   0.361   2.940  1.7700  1.3516 -2.0075
14608TIP3    H265316   3.852   0.273   2.847 -0.3840 -0.0099  0.9811
14609TIP3   OH265317   1.139   4.987  15.840 -0.2147 -0.7507  0.7715
14609TIP3    H165318   1.222   5.017  15.802 -0.7340 -1.0082 -0.6097
14609TIP3    H265319   1.123   4.902  15.799 -1.5584 -0.3431  0.3988
14610TIP3   OH265320   3.549   6.234   5.010  0.0126 -0.1142  0.8104
14610TIP3    H165321   3.542   6.266   4.920 -1.2639 -0.7608  0.6503
14610TIP3    H265322   3.542   6.313   5.064 -1.2056  0.0998  0.3728
14611TIP3   OH265323   4.114   6.237   5.525 -0.0449 -0.1973 -1.2436
14611TIP3    H165324   4.113   6.325   5.489 -0.5871  0.5955  0.5758
14611TIP3    H265325   4.067   6.245   5.608  0.2134 -2.1296 -0.8719
14612TIP3   OH265326   4.590   6.409  12.475 -0.1460  0.2347 -0.3779
14612TIP3    H165327   4.584   6.398  12.570  0.5309 -1.1909 -0.4845
14612TIP3    H265328   4.676   6.448  12.461 -0.3285  0.6361 -0.4052
14613TIP3   OH265329   2.760   3.810   1.597 -0.1154 -0.1555 -0.2153
14613TIP3    H165330   2.853   3.815   1.574 -0.1441 -0.3192 -0.3721
14613TIP3    H265331   2.717   3.871   1.537 -0.0176  0.4924  0.3701
14614TIP3   OH265332   4.509   2.304   1.694  0.1716 -0.5412  0.4266
14614TIP3    H165333   4.532   2.311   1.601 -2.0758 -1.1153 -0.2243
14614TIP3    H265334   4.453   2.379   1.711  2.4794  0.9691  2.0426
14615TIP3   OH265335   3.802   1.867  15.827 -0.3150  0.0040 -0.5878
14615TIP3    H165336   3.753   1.941  15.792 -1.5570 -0.5351 -0.0314
14615TIP3    H265337   3.861   1.841  15.756  0.9916  2.2116 -0.4186
14616TIP3   OH265338   4.750   2.627  14.161 -0.0907  0.2167  0.3429
14616TIP3    H165339   4.765   2.593  14.249  0.3653 -0.7304 -0.0837
14616TIP3    H265340   4.738   2.721  14.173 -2.1785 -0.1595  1.6602
14617TIP3   OH265341   2.740   2.150  13.024 -0.4054 -0.0415 -0.4538
14617TIP3    H165342   2.681   2.080  12.993  0.3888  0.4380 -3.4131
14617TIP3    H265343   2.696   2.230  12.997 -0.0817  0.5049  0.6090
14618TIP3   OH265344   4.628   1.056   3.295  0.0089  0.3616 -0.0266
14618TIP3    H165345   4.560   1.123   3.289  1.2185  1.7083  0.6644
14618TIP3    H265346   4.596   0.984   3.241 -2.3649  0.5846  0.9739
14619TIP3   OH265347   4.960   2.500  16.063  0.3365 -0.1983  0.3665
14619TIP3    H165348   4.976   2.412  16.028  1.9239 -0.3652  1.4628
14619TIP3    H265349   4.865   2.503  16.074  0.2082 -1.6273 -0.0431
14620TIP3   OH265350   5.365   0.637   5.709 -0.3110  0.0210 -0.1538
14620TIP3    H165351   5.349   0.580   5.784  1.5490  1.2003  1.2153
14620TIP3    H265352   5.322   0.592   5.636  0.2493 -2.6627  1.0314
14621TIP3   OH265353   1.743   4.048   0.534 -0.0407 -0.0093  0.1005
14621TIP3    H165354   1.678   4.115   0.518 -0.1007 -0.3150 -1.0156
14621TIP3    H265355   1.694   3.976   0.575 -0.7431 -0.8466 -2.1082
14622TIP3   OH265356   0.157   2.794  15.249  0.2088 -0.3237 -0.5720
14622TIP3    H165357   0.206   2.770  15.170  0.0705  0.7431 -0.9966
14622TIP3    H265358   0.180   2.885  15.264 -0.9619 -0.0744 -0.2589
14623TIP3   OH265359   6.468   0.272   6.405 -0.1329  0.2313  0.8207
14623TIP3    H165360   6.415   0.350   6.387  2.0460  1.5905 -0.0952
14623TIP3    H265361   6.553   0.291   6.365  0.6978 -2.3488  1.1893
14624TIP3   OH265362   6.534   0.968  12.102 -0.3353 -0.7926  0.2250
14624TIP3    H165363   6.568   1.056  12.091  0.1881 -1.1385 -1.0505
14624TIP3    H265364   6.606   0.919  12.142 -0.1817 -0.9389 -0.2265
14625TIP3   OH265365   1.484   2.124  11.721  0.1729 -0.1118 -0.6628
14625TIP3    H165366   1.555   2.086  11.669 -1.2586 -0.7981 -2.2266
14625TIP3    H265367   1.438   2.047  11.756  0.3467  0.3311  0.5742
14626TIP3   OH265368   0.141   3.294   0.463 -0.0192  0.1265  0.1929
14626TIP3    H165369   0.210   3.270   0.400 -1.2654  1.0759 -1.6201
14626TIP3    H265370   0.117   3.384   0.439 -1.1081  0.2194  1.5258
14627TIP3   OH265371   3.527   1.170  12.314  0.7396  0.4311  0.9087
14627TIP3    H165372   3.444   1.123  12.319  0.6473  0.6647  1.6066
14627TIP3    H265373   3.519   1.241  12.377  1.1945  0.8951  0.4548
14628TIP3   OH265374   1.489   4.139  12.841 -0.0904 -0.0754  0.3099
14628TIP3    H165375   1.559   4.189  12.883  1.1214 -1.0800 -0.4335
14628TIP3    H265376   1.410   4.189  12.859  0.8489  1.2574  0.9371
14629TIP3   OH265377   1.005   4.652  15.206 -0.4265  0.1178  0.5164
14629TIP3    H165378   1.039   4.565  15.226 -0.4163  0.4869  2.2778
14629TIP3    H265379   0.940   4.637  15.138 -1.1260 -1.4235  1.4621
14630TIP3   OH265380   5.208   1.425   4.237 -0.4961  0.2214 -0.2784
14630TIP3    H165381   5.126   1.468   4.212 -0.4656 -0.0699 -0.8954
14630TIP3    H265382   5.277   1.485   4.208 -0.4914  0.6248  0.5424
14631TIP3   OH265383   6.427   1.931  16.429 -0.8647 -0.7608 -0.0416
14631TIP3    H165384   6.388   1.891  16.351 -0.9616  2.6312 -1.9244
14631TIP3    H265385   6.353   1.968  16.476 -0.4596  1.2437 -0.8976
14632TIP3   OH265386   2.609   4.794   3.928 -0.1588  0.7788 -0.2333
14632TIP3    H165387   2.677   4.862   3.924  1.0952 -0.4801 -1.0957
14632TIP3    H265388   2.586   4.778   3.836 -0.7497  0.3069 -0.0104
14633TIP3   OH265389   6.772   3.630   5.635  0.0189 -0.0563  0.2741
14633TIP3    H165390   6.821   3.625   5.717  2.0424 -1.1921 -0.9104
14633TIP3    H265391   6.752   3.723   5.624 -0.2097  0.1157  1.9781
14634TIP3   OH265392   4.983   3.355  14.398  0.1372  0.0736 -0.1628
14634TIP3    H165393   4.938   3.411  14.335 -1.9621 -1.8686 -0.5085
14634TIP3    H265394   4.986   3.269  14.356 -1.0838 -1.2287  2.2141
14635TIP3   OH265395   6.222   6.425   4.582  0.0927 -0.2338 -0.3675
14635TIP3    H165396   6.305   6.383   4.606  0.6543  1.0075 -0.0793
14635TIP3    H265397   6.158   6.353   4.582  1.2321 -1.2983 -1.0195
14636TIP3   OH265398   1.399   3.765  17.101  0.0724 -0.4475 -0.1550
14636TIP3    H165399   1.377   3.830  17.169  1.8808 -0.8976  0.9395
14636TIP3    H265400   1.477   3.721  17.136  0.5650 -1.2565 -2.1814
14637TIP3   OH265401   4.843   3.708  11.997 -0.0894 -0.6112  0.0713
14637TIP3    H165402   4.776   3.670  11.939 -1.1229  0.9519  0.1853
14637TIP3    H265403   4.799   3.714  12.082 -0.0790  1.0707 -0.0121
14638TIP3   OH265404   5.898   4.342  13.102  0.1296 -0.3549 -0.0953
14638TIP3    H165405   5.818   4.368  13.148 -0.3580  0.0570 -1.1407
14638TIP3    H265406   5.930   4.424  13.063  1.2810 -0.4401  0.6187
14639TIP3   OH265407   3.186   5.323  11.280 -0.0631 -0.6071  0.1914
14639TIP3    H165408   3.144   5.240  11.304  0.7597 -0.8123  0.9578
14639TIP3    H265409   3.142   5.349  11.199 -0.2969 -1.8162 -0.0908
14640TIP3   OH265410   2.581   4.618  11.062  0.2752 -0.2174 -0.1993
14640TIP3    H165411   2.590   4.643  10.970 -1.9298 -1.1169 -0.7235
14640TIP3    H265412   2.630   4.536  11.069  0.2392 -0.2791 -0.6371
14641TIP3   OH265413   6.284   5.554  11.961 -0.7910  0.0449 -0.4223
14641TIP3    H165414   6.216   5.544  12.028  0.7147 -0.7429  1.0730
14641TIP3    H265415   6.277   5.476  11.907 -1.6541  0.4110 -0.8516
14642TIP3   OH265416   4.090   5.252   3.801  0.1954 -0.0340 -0.7038
14642TIP3    H165417   4.004   5.236   3.763 -1.0750 -2.0184  2.5812
14642TIP3    H265418   4.072   5.294   3.885  2.6018  1.2409 -0.7285
14643TIP3   OH265419   3.257   3.329  13.124  0.4463  0.0671  0.1229
14643TIP3    H165420   3.252   3.233  13.122  1.4215 -0.0070 -2.0096
14643TIP3    H265421   3.195   3.355  13.192 -0.6074 -2.0376  0.0544
14644TIP3   OH265422   1.050   5.176  11.174  0.3648 -0.0382 -0.2169
14644TIP3    H165423   1.044   5.085  11.202 -1.3422 -0.1995 -0.9343
14644TIP3    H265424   1.102   5.173  11.094  1.0891 -0.2444  0.2554
14645TIP3   OH265425   5.858   3.151  12.285  0.3527 -0.3726 -0.5934
14645TIP3    H165426   5.823   3.167  12.197  0.3101 -2.2612 -0.9645
14645TIP3    H265427   5.888   3.060  12.282 -1.7193 -1.2673  1.9937
14646TIP3   OH265428   6.315   0.307   4.714  0.3010 -0.1046 -0.3025
14646TIP3    H165429   6.384   0.241   4.705 -1.8025 -2.2301 -2.3957
14646TIP3    H265430   6.284   0.298   4.804  0.6411 -1.3918 -0.2978
14647TIP3   OH265431   6.807   0.511  13.789  0.4660 -0.2502 -0.4133
14647TIP3    H165432   6.791   0.464  13.870  1.2932  0.0973 -0.0397
14647TIP3    H265433   6.769   0.598  13.802  0.0043 -0.4157 -0.6505
14648TIP3   OH265434   4.350   5.440   3.168  0.0294 -0.0686 -0.8648
14648TIP3    H165435   4.344   5.534   3.187  3.3478 -0.0501  0.8498
14648TIP3    H265436   4.388   5.436   3.081 -0.6439  0.1396 -1.1753
14649TIP3   OH265437   1.775   3.472  16.939  0.5433  0.0398  0.0125
14649TIP3    H165438   1.851   3.469  16.997  0.5799 -0.8729 -0.0656
14649TIP3    H265439   1.720   3.542  16.976  0.4028 -0.7427  1.3715
14650TIP3   OH265440   3.572   5.289   4.813 -0.3056 -0.3802  0.3151
14650TIP3    H165441   3.652   5.306   4.863  0.8370 -0.8965 -1.2331
14650TIP3    H265442   3.517   5.238   4.873 -0.3615  1.6650  2.1129
14651TIP3   OH265443   1.825   0.544   3.327 -0.4486  0.0627  0.3232
14651TIP3    H165444   1.762   0.610   3.355 -0.2846  0.2561  0.2494
14651TIP3    H265445   1.779   0.461   3.333 -0.6438  0.1813  0.4620
14652TIP3   OH265446   1.246   6.428  15.595  0.3486 -0.1719  0.4980
14652TIP3    H165447   1.184   6.501  15.592  0.3933 -0.0531  1.8413
14652TIP3    H265448   1.279   6.421  15.505 -0.2283  0.9678  0.1765
14653TIP3   OH265449   2.367   5.905   4.747  0.1042  0.0731 -0.2150
14653TIP3    H165450   2.369   5.914   4.652  0.1210 -0.3702 -0.2584
14653TIP3    H265451   2.282   5.864   4.766 -0.3410  1.0793  0.0477
14654TIP3   OH265452   6.149   4.052   2.092  0.1299  0.6269 -0.0222
14654TIP3    H165453   6.229   4.028   2.139 -0.7840  0.4347  1.5106
14654TIP3    H265454   6.175   4.053   1.999  1.4487 -1.2702  0.2646
14655TIP3   OH265455   2.850   5.373  14.202 -0.1242  0.0957  0.0093
14655TIP3    H165456   2.831   5.281  14.184  0.7561  0.0364 -0.6819
14655TIP3    H265457   2.945   5.380  14.191  0.0089  0.7815  1.4832
14656TIP3   OH265458   4.902   2.465  11.984 -0.4059 -0.3164 -0.5595
14656TIP3    H165459   4.887   2.396  12.049 -0.7383  0.4543  0.2057
14656TIP3    H265460   4.998   2.470  11.976 -0.3159  0.1529  0.5386
14657TIP3   OH265461   6.608   2.715  13.267 -0.1989 -0.3347 -0.3699
14657TIP3    H165462   6.700   2.723  13.295 -0.9012  0.5774  1.9592
14657TIP3    H265463   6.593   2.620  13.264  0.5426 -0.4951  0.3098
14658TIP3   OH265464   4.607   3.314   5.875  0.5784 -0.2231 -0.1789
14658TIP3    H165465   4.562   3.397   5.858  0.5544 -0.0343  0.7651
14658TIP3    H265466   4.664   3.332   5.950  0.3436 -1.1361  0.2344
14659TIP3   OH265467   2.201   5.613  17.038 -0.2626  0.3439 -0.7025
14659TIP3    H165468   2.222   5.703  17.013 -0.8334  0.8151  0.4899
14659TIP3    H265469   2.230   5.605  17.129 -3.0891  0.3398  0.2985
14660TIP3   OH265470   1.597   2.418   1.459 -0.1652  0.2662 -0.0858
14660TIP3    H165471   1.656   2.471   1.405  0.0487  0.7018  0.5528
14660TIP3    H265472   1.561   2.352   1.399 -0.2122  0.9540 -0.8267
14661TIP3   OH265473   4.692   5.179   0.090 -0.1784 -0.8860 -0.0396
14661TIP3    H165474   4.752   5.118   0.047  0.5690 -0.7486  0.7702
14661TIP3    H265475   4.712   5.264   0.051 -0.4379 -0.9776 -0.3727
14662TIP3   OH265476   3.743   4.532   2.747 -0.4397 -0.1928  0.3533
14662TIP3    H165477   3.679   4.472   2.709  0.5124  0.4594 -2.5426
14662TIP3    H265478   3.692   4.587   2.806 -1.8509 -1.9254  0.8535
14663TIP3   OH265479   0.008   3.058   5.283  0.0553 -0.3735  0.1237
14663TIP3    H165480   0.007   3.114   5.205 -1.1779 -1.0516 -0.3705
14663TIP3    H265481   0.079   3.093   5.336 -0.5102  1.4926 -0.2754
14664TIP3   OH265482   2.552   4.254  11.543 -0.0896 -0.2807  0.5362
14664TIP3    H165483   2.589   4.311  11.476  0.9319 -0.2212  1.1279
14664TIP3    H265484   2.605   4.270  11.621  1.2192 -3.0941  0.3541
14665TIP3   OH265485   2.904   4.910   2.357  0.1388  0.1059  0.3960
14665TIP3    H165486   2.968   4.860   2.306 -1.1560 -0.3483 -0.8470
14665TIP3    H265487   2.941   4.999   2.362  2.1089 -0.7103  2.0065
14666TIP3   OH265488   0.110   0.897   5.518 -0.2991 -0.3731 -0.0310
14666TIP3    H165489   0.116   0.912   5.612 -1.3625 -2.1985  0.3683
14666TIP3    H265490   0.088   0.804   5.509 -0.1714 -0.2522 -2.0812
14667TIP3   OH265491   3.564   2.082  12.974 -0.2023  0.5736  0.2787
14667TIP3    H165492   3.641   2.058  12.923 -0.5547 -0.5399  0.2247
14667TIP3    H265493   3.596   2.090  13.064 -0.3576 -2.0890  0.6510
14668TIP3   OH265494   2.398   3.692   5.271 -0.2268 -0.0499  0.0273
14668TIP3    H165495   2.403   3.772   5.220 -0.9581 -0.7528 -1.1889
14668TIP3    H265496   2.306   3.665   5.265  0.4752 -2.3619 -1.8154
14669TIP3   OH265497   1.517   3.721  16.601 -0.0004  0.1665 -0.6776
14669TIP3    H165498   1.508   3.807  16.640 -0.0393  1.0188 -2.4680
14669TIP3    H265499   1.606   3.719  16.566  1.3918 -1.9626  2.4993
14670TIP3   OH265500   5.709   5.205  13.094 -0.4719 -0.0522  0.2971
14670TIP3    H165501   5.755   5.130  13.130 -0.1900 -1.1236 -2.1042
14670TIP3    H265502   5.619   5.196  13.124 -0.4807 -1.4890 -0.1082
14671TIP3   OH265503   4.214   5.837  14.224 -0.1131  0.0144  0.1477
14671TIP3    H165504   4.191   5.861  14.134 -0.6502  0.6423  0.4464
14671TIP3    H265505   4.301   5.876  14.237 -0.4190  0.7061  0.1895
14672TIP3   OH265506   2.671   1.671   5.238  0.5172 -0.4441 -0.1118
14672TIP3    H165507   2.611   1.733   5.198 -1.4836 -1.3562  1.3137
14672TIP3    H265508   2.744   1.664   5.176 -0.4103  1.3777 -1.4739
14673TIP3   OH265509   2.269   4.060   0.371 -0.0291  0.5881  0.2901
14673TIP3    H165510   2.340   4.075   0.308 -0.8565  0.2000 -0.7751
14673TIP3    H265511   2.279   3.968   0.396 -1.2014 -0.0261 -1.2834
14674TIP3   OH265512   1.756   2.029   0.751  0.2982 -0.2170  0.1984
14674TIP3    H165513   1.714   2.115   0.754 -0.8270 -0.6582 -1.5201
14674TIP3    H265514   1.724   1.984   0.829  0.8660  0.8761  1.0955
14675TIP3   OH265515   2.097   1.912   3.330  0.3603 -0.2296 -0.0332
14675TIP3    H165516   2.093   1.874   3.417  0.7581 -2.0324 -0.7531
14675TIP3    H265517   2.156   1.855   3.281 -3.3124 -2.0946 -2.7625
14676TIP3   OH265518   3.825   0.471   2.114 -0.0356 -0.5235 -0.2933
14676TIP3    H165519   3.864   0.433   2.035  0.3961  1.8157 -1.2864
14676TIP3    H265520   3.767   0.540   2.082 -1.7404 -1.0807  1.3654
14677TIP3   OH265521   3.796   5.043   6.755  0.0760  0.1713  0.3175
14677TIP3    H165522   3.753   4.966   6.791  0.2224  0.0619  0.2607
14677TIP3    H265523   3.725   5.104   6.735 -0.3434 -1.1351 -2.5474
14678TIP3   OH265524   0.438   5.221  15.052  0.0962  0.1296 -0.6839
14678TIP3    H165525   0.495   5.285  15.008 -0.2027  0.0498 -1.1901
14678TIP3    H265526   0.459   5.231  15.145  1.4781 -0.4161 -0.9067
14679TIP3   OH265527   4.605   5.776   5.351  0.0670 -0.2987  0.1708
14679TIP3    H165528   4.564   5.708   5.406  0.5123  0.3561  1.3442
14679TIP3    H265529   4.626   5.846   5.412 -0.0824  0.7749 -0.9758
14680TIP3   OH265530   1.566   1.772  13.130 -0.0210 -0.2263 -0.6422
14680TIP3    H165531   1.540   1.846  13.184  0.7434 -0.1877 -0.3187
14680TIP3    H265532   1.609   1.811  13.054 -0.5284 -0.3034 -0.9722
14681TIP3   OH265533   1.965   6.576  14.002  0.5075  0.4564  0.5635
14681TIP3    H165534   1.979   6.624  13.920  0.6368  0.1113  0.3816
14681TIP3    H265535   1.893   6.623  14.045  0.0353  0.2828 -0.0262
14682TIP3   OH265536   0.269   1.872  16.536 -0.2928 -0.3480  0.6007
14682TIP3    H165537   0.270   1.782  16.504 -3.2079 -0.1212 -0.3895
14682TIP3    H265538   0.219   1.869  16.617 -0.7452  0.4076  0.3628
14683TIP3   OH265539   6.776   0.256  16.734  0.2980 -0.2040  0.4147
14683TIP3    H165540   6.841   0.271  16.667 -1.9767 -1.8024 -2.3545
14683TIP3    H265541   6.815   0.192  16.793  1.1389 -1.4335 -1.4034
14684TIP3   OH265542   0.511   4.570  10.557  0.2575 -0.0404 -0.2217
14684TIP3    H165543   0.575   4.561  10.627 -0.3799 -0.1149  0.3652
14684TIP3    H265544   0.525   4.494  10.501  1.9348  0.9034 -1.1672
14685TIP3   OH265545   5.343   0.726  12.878  0.4105 -0.6201 -0.2281
14685TIP3    H165546   5.299   0.791  12.823  0.1809 -1.2188 -0.7617
14685TIP3    H265547   5.425   0.709  12.833  1.4406  0.8251  0.9942
14686TIP3   OH265548   5.187   0.380   4.793  0.1480  0.2694 -0.0704
14686TIP3    H165549   5.171   0.318   4.722 -0.2571 -2.0656  1.9145
14686TIP3    H265550   5.272   0.418   4.773 -0.7665  1.1451 -2.7194
14687TIP3   OH265551   3.677   3.510   2.628  0.6094 -0.2399  0.6267
14687TIP3    H165552   3.666   3.427   2.675  2.0484 -1.8079 -1.5738
14687TIP3    H265553   3.751   3.553   2.671  1.2851 -1.1820  0.4339
14688TIP3   OH265554   2.189   4.424   1.276  0.0555 -0.4099  0.0424
14688TIP3    H165555   2.196   4.435   1.371  0.0509 -0.3849  0.0399
14688TIP3    H265556   2.274   4.452   1.242 -0.1856  0.2542 -0.0206
14689TIP3   OH265557   1.269   4.450  11.926 -0.1172  0.1493  0.3911
14689TIP3    H165558   1.333   4.516  11.953 -1.6237  0.8458  2.5745
14689TIP3    H265559   1.208   4.445  12.000 -1.6475 -1.6673 -0.9109
14690TIP3   OH265560   2.170   0.816   6.064 -0.1466  0.4337 -0.0670
14690TIP3    H165561   2.148   0.723   6.067 -0.9556  0.5973 -0.6017
14690TIP3    H265562   2.145   0.849   6.150 -0.1106  0.2086  0.0311
14691TIP3   OH265563   6.203   0.305   6.201  0.0497 -0.0430 -0.1038
14691TIP3    H165564   6.141   0.233   6.209 -0.1054  0.1556  0.6369
14691TIP3    H265565   6.200   0.348   6.287 -0.2403  1.1414 -0.6877
14692TIP3   OH265566   3.405   6.699   5.185 -0.4745  0.1981  0.1141
14692TIP3    H165567   3.370   6.713   5.097  0.6956 -0.7040 -0.5180
14692TIP3    H265568   3.478   6.761   5.191 -1.4280  1.2780  1.0075
14693TIP3   OH265569   2.402   0.182  12.231 -0.2415  0.2251  0.2954
14693TIP3    H165570   2.440   0.103  12.192  0.8550 -0.4570  2.5894
14693TIP3    H265571   2.412   0.170  12.325 -1.0318  2.6499  0.7632
14694TIP3   OH265572   5.324   6.466  13.806 -0.1821  0.5473 -0.0060
14694TIP3    H165573   5.294   6.421  13.727  0.5575 -0.1696  0.1090
14694TIP3    H265574   5.245   6.477  13.859 -0.4591 -0.1850 -0.2578
14695TIP3   OH265575   5.213   0.657   2.375 -0.2853  0.3077 -0.0163
14695TIP3    H165576   5.262   0.576   2.364 -1.4150 -0.3594 -0.2817
14695TIP3    H265577   5.127   0.639   2.336 -0.6166  1.5632  0.0912
14696TIP3   OH265578   1.738   0.224  16.511 -0.0897 -0.2947  0.4062
14696TIP3    H165579   1.669   0.164  16.538 -0.4347 -1.1431 -2.0334
14696TIP3    H265580   1.734   0.223  16.415  3.5298 -0.6670  0.1110
14697TIP3   OH265581   4.286   4.100  16.748  0.3770  0.6997  0.3249
14697TIP3    H165582   4.242   4.117  16.831  1.3239  0.8239  0.8185
14697TIP3    H265583   4.376   4.131  16.762  1.0407 -0.9434 -0.1426
14698TIP3   OH265584   0.924   1.247  16.415  0.1648 -0.2119 -0.4582
14698TIP3    H165585   0.928   1.330  16.462  0.9630 -0.5556  0.0978
14698TIP3    H265586   0.917   1.272  16.322 -0.3704  0.4626 -0.2464
14699TIP3   OH265587   4.812   5.135   5.102 -0.3179 -0.2735  1.2555
14699TIP3    H165588   4.830   5.080   5.179 -0.1208  0.2624  1.5974
14699TIP3    H265589   4.812   5.224   5.136  0.0650 -0.0105  0.5765
14700TIP3   OH265590   5.859   2.596   0.586  0.8228 -0.0176  0.7059
14700TIP3    H165591   5.833   2.514   0.626  0.3961  0.1468  0.7729
14700TIP3    H265592   5.952   2.586   0.568  1.0436 -0.0726  1.7959
14701TIP3   OH265593   5.062   3.621  17.066 -0.1569  0.2994  0.1068
14701TIP3    H165594   5.137   3.562  17.067 -0.6216 -0.2863  0.3504
14701TIP3    H265595   5.043   3.637  17.159  1.1502  2.3653  0.1080
14702TIP3   OH265596   3.137   5.088   0.018  0.2102  0.0757 -0.0185
14702TIP3    H165597   3.153   5.023  -0.050 -1.1418  0.3987 -0.6961
14702TIP3    H265598   3.171   5.170  -0.018 -0.1258  0.1676 -0.1292
14703TIP3   OH265599   6.723   1.826  14.757  0.5596 -0.0203  0.0469
14703TIP3    H165600   6.655   1.850  14.820  0.0954  0.9912 -0.8096
14703TIP3    H265601   6.734   1.732  14.767 -1.4006 -0.3028 -0.2090
14704TIP3   OH265602   1.320   6.495  15.300 -0.4572 -0.5845 -0.3208
14704TIP3    H165603   1.347   6.404  15.291  0.4573 -0.3073 -0.4154
14704TIP3    H265604   1.224   6.492  15.294 -0.5615 -1.7279  1.2438
14705TIP3   OH265605   0.525   5.573   5.533 -0.4429  0.6694  0.4406
14705TIP3    H165606   0.529   5.668   5.521  1.5231  0.4363 -1.1846
14705TIP3    H265607   0.485   5.540   5.453 -0.1110  0.0654  0.5168
14706TIP3   OH265608   1.220   1.586   2.460 -0.2836  0.4344  0.0549
14706TIP3    H165609   1.254   1.661   2.509 -1.0153  0.5023  0.4761
14706TIP3    H265610   1.235   1.511   2.517  0.0271  0.3215 -0.1700
14707TIP3   OH265611   5.530   4.311   2.984 -0.1374 -0.1771  0.4414
14707TIP3    H165612   5.507   4.402   2.969  2.1869  0.5484  0.8652
14707TIP3    H265613   5.614   4.299   2.939 -0.2728 -2.0457  0.5937
14708TIP3   OH265614   5.115   4.487  14.705 -0.6185  0.0149  0.2669
14708TIP3    H165615   5.136   4.396  14.683 -1.3181 -0.2196  0.5728
14708TIP3    H265616   5.158   4.538  14.636  0.3854 -0.4983  0.4942
14709TIP3   OH265617   6.449   2.247  14.685  0.6274  0.5557 -0.1172
14709TIP3    H165618   6.468   2.316  14.748 -2.3023  0.8785  0.5535
14709TIP3    H265619   6.411   2.176  14.737 -1.0802  0.4859 -1.3834
14710TIP3   OH265620   6.328   0.601  15.240  0.2796 -0.0539 -0.6127
14710TIP3    H165621   6.345   0.695  15.253  0.8731 -0.2649  0.1691
14710TIP3    H265622   6.257   0.599  15.175 -1.0378  0.9952  0.7135
14711TIP3   OH265623   4.558   5.232  15.070 -0.2063  0.1626  0.0018
14711TIP3    H165624   4.605   5.313  15.049 -0.2568  0.2072  0.0623
14711TIP3    H265625   4.467   5.250  15.047 -0.1775  0.0407 -0.2111
14712TIP3   OH265626   6.206   0.400  13.347  0.4769  0.7654 -0.5035
14712TIP3    H165627   6.127   0.349  13.327 -0.1925  1.7849 -0.5162
14712TIP3    H265628   6.268   0.375  13.279 -0.3869  1.1379 -1.4538
14713TIP3   OH265629   5.651   4.009  16.230  0.0200  0.4969  0.5683
14713TIP3    H165630   5.621   4.084  16.283  0.5570  0.1942  1.3245
14713TIP3    H265631   5.728   3.977  16.277  0.4176  0.1248 -0.3353
14714TIP3   OH265632   2.303   5.171   0.912  0.4919 -0.1248 -0.8772
14714TIP3    H165633   2.210   5.192   0.910 -0.0065 -0.9525  3.3296
14714TIP3    H265634   2.306   5.076   0.913  1.2727 -0.1100 -0.0977
14715TIP3   OH265635   5.252   0.578  10.383  0.3675  0.3421 -0.1699
14715TIP3    H165636   5.203   0.639  10.438  1.1956  0.5968  0.3128
14715TIP3    H265637   5.230   0.491  10.418 -0.9431  0.3319 -0.9653
14716TIP3   OH265638   3.092   2.170  14.212  0.0426 -0.3976  0.1134
14716TIP3    H165639   3.143   2.089  14.224 -0.0694 -0.6381 -0.9350
14716TIP3    H265640   3.066   2.168  14.120  1.2153  1.5112 -0.3201
14717TIP3   OH265641   6.447   6.209  12.962 -0.2621  0.5564  0.5697
14717TIP3    H165642   6.488   6.187  13.045  0.6916  0.1694  0.0117
14717TIP3    H265643   6.517   6.247  12.909 -0.8699  0.8764 -0.0300
14718TIP3   OH265644   2.630   2.304  14.121 -0.1338 -0.5191 -0.0401
14718TIP3    H165645   2.688   2.376  14.146 -0.6404 -0.5324  1.2972
14718TIP3    H265646   2.551   2.347  14.087  0.4345 -0.4918 -1.3434
14719TIP3   OH265647   3.628   3.783   5.255 -0.4439 -0.4743 -0.2435
14719TIP3    H165648   3.564   3.757   5.321  0.8715 -1.2371  0.7745
14719TIP3    H265649   3.699   3.719   5.264  0.8126  0.7950 -0.8200
14720TIP3   OH265650   6.697   4.998   3.131  0.3627  0.5334 -0.5069
14720TIP3    H165651   6.793   5.000   3.124  0.4594  2.0456  0.6898
14720TIP3    H265652   6.680   4.958   3.216 -0.0889 -0.0044 -0.8448
14721TIP3   OH265653   2.392   4.432   6.198 -0.7625 -0.1855 -0.4833
14721TIP3    H165654   2.303   4.422   6.232 -1.1155  1.2804 -0.9450
14721TIP3    H265655   2.420   4.518   6.227  0.8604 -0.9628  0.3906
14722TIP3   OH265656   2.436   6.381  15.433  0.1030  0.0752  0.2505
14722TIP3    H165657   2.384   6.416  15.360 -1.4513 -0.0140  1.2634
14722TIP3    H265658   2.416   6.439  15.507 -1.0854 -1.8143  1.4896
14723TIP3   OH265659   3.834   1.562  16.103  0.2976 -0.0422  0.3511
14723TIP3    H165660   3.777   1.548  16.027  0.4940  1.1019 -0.0235
14723TIP3    H265661   3.774   1.563  16.178  0.2558 -2.6748  0.4279
14724TIP3   OH265662   6.069   1.715  14.804  0.2455  0.5944  0.0803
14724TIP3    H165663   6.107   1.778  14.742 -0.4929  1.0473  0.0776
14724TIP3    H265664   6.140   1.697  14.866  0.3000  1.8493  0.4028
14725TIP3   OH265665   6.600   1.107  16.612  0.3464  0.4232 -0.1519
14725TIP3    H165666   6.578   1.018  16.639  0.6897  0.3920  0.0241
14725TIP3    H265667   6.522   1.158  16.636 -0.3756 -0.0332 -1.3970
14726TIP3   OH265668   1.894   2.594   6.255  0.5220 -0.5089  0.2475
14726TIP3    H165669   1.921   2.666   6.313  0.8797 -0.4063 -0.0402
14726TIP3    H265670   1.941   2.518   6.288 -0.0516 -0.6684  0.7073
14727TIP3   OH265671   0.747   1.056  14.552 -0.2985 -0.3724 -0.0756
14727TIP3    H165672   0.682   1.069  14.483 -1.3719 -2.8726  0.3867
14727TIP3    H265673   0.822   1.017  14.508  0.5881  1.6115 -0.4349
14728TIP3   OH265674   1.772   0.491   0.355  0.1650  0.0651 -0.0768
14728TIP3    H165675   1.722   0.411   0.339 -0.9229  0.8666 -0.8273
14728TIP3    H265676   1.730   0.530   0.432  3.7754 -2.4812  3.5741
14729TIP3   OH265677   4.654   0.428   1.107  0.4347 -0.6334  0.0955
14729TIP3    H165678   4.684   0.390   1.190 -2.5261  1.1655  2.1443
14729TIP3    H265679   4.673   0.521   1.115  0.3866 -0.4690 -1.4524
14730TIP3   OH265680   4.423   5.523   5.060  0.4544  0.5878 -0.2384
14730TIP3    H165681   4.501   5.551   5.012  0.9514 -0.9686 -0.3748
14730TIP3    H265682   4.455   5.501   5.147  0.1006  0.2819 -0.1847
14731TIP3   OH265683   4.709   5.036  11.117  0.3129  0.0883 -0.2713
14731TIP3    H165684   4.735   5.062  11.029 -0.0988 -1.0424 -0.7471
14731TIP3    H265685   4.790   5.006  11.158  0.3021 -0.5475 -0.6975
14732TIP3   OH265686   2.875   0.731   2.473  0.2785  0.4964 -0.2718
14732TIP3    H165687   2.796   0.721   2.525 -0.3539 -1.6822 -1.5239
14732TIP3    H265688   2.844   0.742   2.383  1.3435 -1.1047 -0.8943
14733TIP3   OH265689   2.351   6.166  16.263 -0.2572  0.0039 -0.0866
14733TIP3    H165690   2.348   6.132  16.173 -0.7553 -0.1656 -0.0119
14733TIP3    H265691   2.433   6.133  16.298 -0.2884 -0.3336 -0.3243
14734TIP3   OH265692   1.037   4.791   6.474 -0.1337  0.2866 -0.7893
14734TIP3    H165693   1.112   4.747   6.515 -3.2643 -2.9085  2.2380
14734TIP3    H265694   0.996   4.839   6.546 -2.4887 -0.3261 -1.6602
14735TIP3   OH265695   3.311   5.464  11.885 -0.3903 -0.2131  0.0504
14735TIP3    H165696   3.331   5.423  11.801  0.6011 -1.2116  0.7546
14735TIP3    H265697   3.396   5.488  11.921 -0.6546 -1.3251  1.5172
14736TIP3   OH265698   1.297   4.751   2.082  0.6672 -0.1025 -0.0796
14736TIP3    H165699   1.242   4.731   2.158 -0.7441 -0.8042 -1.2451
14736TIP3    H265700   1.266   4.837   2.052  1.0119  0.0340 -0.0477
14737TIP3   OH265701   2.330   3.455   2.979 -0.6834 -0.1748 -0.6292
14737TIP3    H165702   2.389   3.530   2.975  0.1969 -0.8973 -1.7446
14737TIP3    H265703   2.245   3.490   2.952 -0.7898  0.8515  0.8806
14738TIP3   OH265704   6.365   0.920   0.533  0.8788  0.2792 -0.3400
14738TIP3    H165705   6.434   0.955   0.590  2.1668 -1.4016 -0.7843
14738TIP3    H265706   6.390   0.948   0.445 -0.5497  1.9916 -0.2586
14739TIP3   OH265707   1.576   5.753  15.496  0.0359  0.3883  0.1653
14739TIP3    H165708   1.490   5.745  15.455  0.2321 -0.7506 -0.0503
14739TIP3    H265709   1.638   5.730  15.426  0.5806  1.8226  0.1231
14740TIP3   OH265710   4.655   2.793   6.815 -0.7593 -0.3665 -0.3833
14740TIP3    H165711   4.601   2.755   6.746 -2.7344 -0.8840  1.3520
14740TIP3    H265712   4.665   2.722   6.879  0.6762  0.2151  0.0783
14741TIP3   OH265713   6.022   2.438   2.238 -0.1548  0.2041  0.0213
14741TIP3    H165714   6.053   2.500   2.305  1.4503  1.0225 -1.4005
14741TIP3    H265715   6.005   2.357   2.286 -0.6802  1.2294  1.6664
14742TIP3   OH265716   4.140   4.028   4.653 -0.2273  0.2338 -0.1535
14742TIP3    H165717   4.122   4.108   4.603  0.3758  0.4951  0.0368
14742TIP3    H265718   4.229   4.003   4.628  0.7573  1.3045  1.9925
14743TIP3   OH265719   5.360   1.522  14.221  0.0501  0.5551  0.3560
14743TIP3    H165720   5.324   1.447  14.173  2.6427  1.2974 -3.1863
14743TIP3    H265721   5.301   1.595  14.200 -0.6189  0.2197  1.0370
14744TIP3   OH265722   4.664   3.109  15.860 -0.1148  0.1602  0.3417
14744TIP3    H165723   4.644   3.132  15.769  0.3085  2.7971  0.8310
14744TIP3    H265724   4.736   3.047  15.853 -0.4008 -0.0547 -1.1249
14745TIP3   OH265725   3.581   6.618  16.084  0.5233  0.2176  0.3540
14745TIP3    H165726   3.661   6.670  16.090  0.2083  1.1105 -2.1802
14745TIP3    H265727   3.607   6.540  16.036 -0.0864  0.4962 -0.4547
14746TIP3   OH265728   2.789   3.823  13.829 -0.1083 -0.2122  0.0661
14746TIP3    H165729   2.729   3.752  13.850  1.9832 -1.9513  0.5410
14746TIP3    H265730   2.766   3.893  13.890 -0.4144 -1.5663  1.5557
14747TIP3   OH265731   0.738   1.613  11.953  0.0860 -0.3137 -0.0143
14747TIP3    H165732   0.721   1.685  11.892 -0.5533  0.6284  1.2126
14747TIP3    H265733   0.782   1.547  11.901  0.6037  0.9308 -1.2175
14748TIP3   OH265734   3.437   3.276   2.462  0.0495  0.3274  0.0673
14748TIP3    H165735   3.409   3.195   2.504  0.5690  0.3185  0.4149
14748TIP3    H265736   3.508   3.308   2.518  2.6477 -1.0570 -2.2330
14749TIP3   OH265737   1.643   5.397  12.116 -0.5938  0.1122 -0.1063
14749TIP3    H165738   1.576   5.431  12.057 -0.4256 -0.4990 -0.6578
14749TIP3    H265739   1.711   5.464  12.117 -0.2219 -0.2282 -1.2569
14750TIP3   OH265740   1.804   6.483   2.582  0.0503  0.1043 -0.0969
14750TIP3    H165741   1.804   6.391   2.609  0.4321  0.2749  0.5068
14750TIP3    H265742   1.859   6.527   2.647 -1.2962  1.0104  0.4688
14751TIP3   OH265743   0.560   3.644   4.214  0.1395  0.3546 -0.5819
14751TIP3    H165744   0.562   3.664   4.121  0.7324  2.4654 -0.1669
14751TIP3    H265745   0.537   3.727   4.256 -1.7577 -0.9101  1.0838
14752TIP3   OH265746   5.306   4.261  15.602 -0.1061  0.1596 -0.5207
14752TIP3    H165747   5.265   4.345  15.624  0.8588  0.4495  0.2595
14752TIP3    H265748   5.296   4.254  15.507 -2.0335  0.1484 -0.3574
14753TIP3   OH265749   3.038   6.027   2.757  0.1835  0.1849 -0.0268
14753TIP3    H165750   3.092   6.049   2.681  0.2851 -0.4107 -0.1322
14753TIP3    H265751   2.967   6.091   2.755  0.4464  0.4724 -0.3454
14754TIP3   OH265752   1.750   6.145  12.865 -0.1846  0.2439  0.3541
14754TIP3    H165753   1.789   6.232  12.856 -1.4489  0.9447  1.3749
14754TIP3    H265754   1.690   6.138  12.791 -1.0912  0.8111  1.0192
14755TIP3   OH265755   5.465   5.870  13.114  0.0060 -0.6137 -0.1982
14755TIP3    H165756   5.453   5.965  13.125 -1.6264 -0.7370 -0.5885
14755TIP3    H265757   5.548   5.861  13.067 -0.4921  0.7120 -1.3895
14756TIP3   OH265758   5.115   1.820  16.191  0.0647 -0.3150  0.0387
14756TIP3    H165759   5.128   1.729  16.218  1.5643 -0.1692 -0.0822
14756TIP3    H265760   5.022   1.826  16.170 -0.3844 -1.4034  1.5413
14757TIP3   OH265761   1.241   2.754  16.235 -0.3048 -0.6496 -0.6816
14757TIP3    H165762   1.255   2.849  16.236  1.3689 -0.8095  2.0447
14757TIP3    H265763   1.299   2.722  16.167  1.0307  0.1167  0.0559
14758TIP3   OH265764   6.423   2.260  12.313 -0.1176  0.5171 -0.0486
14758TIP3    H165765   6.511   2.275  12.347  0.2786 -0.5837 -0.5503
14758TIP3    H265766   6.365   2.304  12.375  0.6437 -0.6549  1.5506
14759TIP3   OH265767   6.355   6.220   1.313  0.2775  0.1319  1.0429
14759TIP3    H165768   6.274   6.186   1.274  0.7244 -1.3012  1.2833
14759TIP3    H265769   6.419   6.215   1.243  0.5219 -0.2406  1.2862
14760TIP3   OH265770   2.695   5.901  11.226 -0.6946 -0.0718 -0.0069
14760TIP3    H165771   2.720   5.883  11.135 -1.1829  1.5634 -0.4953
14760TIP3    H265772   2.745   5.980  11.249 -0.3755 -0.6146  1.2483
14761TIP3   OH265773   0.545   5.788   3.757  0.4961 -0.2403  0.2998
14761TIP3    H165774   0.493   5.731   3.815 -1.4886 -0.3430 -1.4618
14761TIP3    H265775   0.571   5.731   3.684  1.8729  0.1972  0.4118
14762TIP3   OH265776   2.732   4.284  16.082  0.2907 -0.4126  0.4310
14762TIP3    H165777   2.749   4.192  16.060  0.3228 -0.2681 -0.1499
14762TIP3    H265778   2.811   4.331  16.054 -0.7094  0.1499 -1.5888
14763TIP3   OH265779   6.494   3.313   4.014 -0.4206 -0.1709  0.1613
14763TIP3    H165780   6.513   3.221   3.995  0.1671 -0.3199  1.3690
14763TIP3    H265781   6.439   3.311   4.092  0.0913  0.5225  0.5471
14764TIP3   OH265782   1.776   5.438  15.098 -0.2460 -0.4127  0.2529
14764TIP3    H165783   1.718   5.481  15.036 -0.3004  0.2257  0.7319
14764TIP3    H265784   1.790   5.351  15.062 -1.1319 -0.4152 -0.1070
14765TIP3   OH265785   3.723   3.665  12.361  0.2953 -0.2519  0.1037
14765TIP3    H165786   3.767   3.601  12.306  0.8138 -0.8151  1.1622
14765TIP3    H265787   3.724   3.627  12.449  0.7871  1.2793  0.7973
14766TIP3   OH265788   6.306   4.997  16.612  0.2172 -0.6832  0.3294
14766TIP3    H165789   6.370   5.064  16.587 -0.7752  0.5477  0.9447
14766TIP3    H265790   6.268   5.029  16.694 -0.5350 -1.8337  0.4592
14767TIP3   OH265791   1.775   3.130  16.791  0.6312 -0.4151 -0.0628
14767TIP3    H165792   1.864   3.164  16.799  1.0794 -1.6097  0.2587
14767TIP3    H265793   1.719   3.206  16.806  1.5879  0.1885  0.5602
14768TIP3   OH265794   3.363   4.534  16.056 -0.0374  0.5088 -0.1153
14768TIP3    H165795   3.329   4.452  16.022 -3.8503  1.4663  0.8877
14768TIP3    H265796   3.391   4.583  15.978 -0.4264 -0.6187 -0.9802
14769TIP3   OH265797   5.062   5.757   5.307  0.4353  0.2289 -0.1197
14769TIP3    H165798   5.061   5.837   5.255 -0.1896 -0.7913 -1.7569
14769TIP3    H265799   5.129   5.702   5.265 -0.7991 -1.0148 -0.5547
14770TIP3   OH265800   1.380   4.730  15.549  0.0916 -0.1607  0.0549
14770TIP3    H165801   1.291   4.755  15.524 -0.2896 -0.1050  1.3881
14770TIP3    H265802   1.388   4.758  15.640  2.8396  3.4612 -1.0848
14771TIP3   OH265803   6.616   6.556   2.156  0.4261  0.7785 -0.1252
14771TIP3    H165804   6.696   6.503   2.160  1.1212  1.6490 -1.7004
14771TIP3    H265805   6.555   6.502   2.106 -0.2395 -0.1502  1.5949
14772TIP3   OH265806   5.570   6.073  16.755  0.0610 -0.2308  0.1935
14772TIP3    H165807   5.654   6.118  16.747 -0.0719  0.0965  0.5901
14772TIP3    H265808   5.549   6.078  16.849 -0.4395 -0.2390  0.0834
14773TIP3   OH265809   6.427   4.315  14.520  0.1216  0.1907 -0.5752
14773TIP3    H165810   6.486   4.324  14.446  0.7268 -0.8851 -0.2496
14773TIP3    H265811   6.410   4.405  14.549  1.5143  0.5283 -0.7466
14774TIP3   OH265812   5.450   5.662   2.021 -0.4629 -0.4727 -0.0306
14774TIP3    H165813   5.415   5.643   1.934 -0.2914  0.4512 -0.3143
14774TIP3    H265814   5.388   5.725   2.059 -0.5260 -0.8528  0.5044
14775TIP3   OH265815   2.175   1.159  11.872  0.4794 -0.0212 -0.3903
14775TIP3    H165816   2.190   1.189  11.961  3.1504 -3.1103  0.3848
14775TIP3    H265817   2.232   1.214  11.818  1.6573 -0.4743  0.3518
14776TIP3   OH265818   4.495   5.256  10.565 -0.4753  0.8971  0.0973
14776TIP3    H165819   4.429   5.188  10.574  0.0315  0.2463 -0.8547
14776TIP3    H265820   4.506   5.291  10.653 -0.9120 -0.0964  0.5629
14777TIP3   OH265821   0.051   6.683   0.383  0.3520  0.5753  0.1541
14777TIP3    H165822   0.054   6.659   0.291 -0.4952 -0.3678  0.3549
14777TIP3    H265823   0.066   6.777   0.384  2.5688  0.2701 -0.7625
14778TIP3   OH265824   0.333   2.322   0.882 -0.4309  0.0079 -0.6588
14778TIP3    H165825   0.389   2.379   0.934 -1.8624  0.4319  0.4742
14778TIP3    H265826   0.245   2.336   0.917 -0.9651 -2.1687 -0.9802
14779TIP3   OH265827   0.571   3.297  13.614 -0.6434  0.2283  0.8524
14779TIP3    H165828   0.610   3.376  13.652  1.4885  0.0969 -0.8846
14779TIP3    H265829   0.533   3.326  13.531 -3.8145  0.1971  2.1372
14780TIP3   OH265830   1.552   3.651  14.481 -0.2488  0.2575  0.0363
14780TIP3    H165831   1.516   3.689  14.401 -0.8966  1.0258  0.6685
14780TIP3    H265832   1.507   3.568  14.491 -0.3595  0.2827 -0.2573
14781TIP3   OH265833   4.717   6.667   4.670 -0.2126  0.0608 -0.1613
14781TIP3    H165834   4.729   6.608   4.596 -1.4427 -0.0640 -0.2868
14781TIP3    H265835   4.672   6.743   4.634 -0.3744  0.2208  0.3608
14782TIP3   OH265836   5.419   3.522   2.055  0.1226  0.1244 -0.0077
14782TIP3    H165837   5.393   3.432   2.035  1.0245  0.1213 -1.2778
14782TIP3    H265838   5.403   3.531   2.149  1.1258 -1.7408  0.3865
14783TIP3   OH265839   2.870   5.923  16.908 -0.1942  0.0003 -0.3785
14783TIP3    H165840   2.899   5.847  16.858 -1.0947 -2.6467  2.8291
14783TIP3    H265841   2.778   5.935  16.883  0.5950  1.8868 -2.8407
14784TIP3   OH265842   4.873   1.055   2.619  0.1031  0.5833  0.4240
14784TIP3    H165843   4.912   0.967   2.614 -0.0315  0.5976 -1.7001
14784TIP3    H265844   4.779   1.039   2.615  0.0469  0.8055  0.7980
14785TIP3   OH265845   2.958   5.223  16.571  0.0566 -0.4396 -0.1063
14785TIP3    H165846   2.881   5.171  16.551 -0.2346  0.0274 -0.2347
14785TIP3    H265847   3.032   5.169  16.544 -0.2627 -0.5437 -0.8007
14786TIP3   OH265848   3.926   2.490   6.495 -0.2450  0.8138 -0.8272
14786TIP3    H165849   3.852   2.514   6.439 -2.1407 -1.4807  0.5054
14786TIP3    H265850   3.978   2.431   6.441 -3.6537 -3.8763  0.3836
14787TIP3   OH265851   3.089   1.152   5.932 -0.7718  0.3257 -0.0998
14787TIP3    H165852   3.156   1.159   5.865  0.8222  1.8291  1.5190
14787TIP3    H265853   3.017   1.104   5.891  1.6011 -2.1524 -1.6483
14788TIP3   OH265854   3.477   0.454   5.693  0.3822 -0.1062  0.2720
14788TIP3    H165855   3.446   0.364   5.680  3.3789 -1.0841 -1.1940
14788TIP3    H265856   3.560   0.443   5.740  0.1708  2.0480  1.2411
14789TIP3   OH265857   2.503   0.399  15.382  0.3584 -0.0890  0.1858
14789TIP3    H165858   2.480   0.481  15.427 -1.8846 -0.7032  0.2670
14789TIP3    H265859   2.519   0.425  15.292 -1.8342  0.3304 -0.1491
14790TIP3   OH265860   4.596   2.344  13.474  0.1628 -0.6435 -0.6765
14790TIP3    H165861   4.667   2.320  13.415  0.3763 -1.1848 -0.2137
14790TIP3    H265862   4.640   2.387  13.548 -0.3386  3.2342 -2.3891
14791TIP3   OH265863   2.728   1.988  11.402  0.2485 -0.0369 -0.4547
14791TIP3    H165864   2.818   1.987  11.434  0.5143 -1.6499 -1.1247
14791TIP3    H265865   2.733   2.034  11.318  0.6388 -0.8826 -0.9127
14792TIP3   OH265866   4.551   5.816   2.035 -0.0944  0.8293  0.0386
14792TIP3    H165867   4.613   5.748   2.011  0.2451  1.3438 -0.5609
14792TIP3    H265868   4.479   5.769   2.077  0.8661  0.2684  1.0832
14793TIP3   OH265869   0.706   0.068  12.232  0.5458  0.0893  0.2650
14793TIP3    H165870   0.625   0.098  12.274  0.5663  0.6596 -0.0896
14793TIP3    H265871   0.676   0.025  12.151  0.5416 -0.5210  0.5869
14794TIP3   OH265872   2.926   0.305  13.061  0.0251 -0.4504  0.4741
14794TIP3    H165873   2.893   0.318  12.972  0.2417 -0.2832  0.4178
14794TIP3    H265874   2.848   0.303  13.116 -0.1075 -0.5254  0.2825
14795TIP3   OH265875   4.888   5.829   4.854 -0.9117  0.3711 -0.7411
14795TIP3    H165876   4.885   5.845   4.760  1.2604 -0.6267 -1.0476
14795TIP3    H265877   4.981   5.836   4.877 -1.0261 -1.9321  0.8257
14796TIP3   OH265878   2.004   4.704  14.060  0.4371 -0.1683  0.7443
14796TIP3    H165879   2.011   4.796  14.084  2.9224 -0.3612  1.0898
14796TIP3    H265880   1.934   4.669  14.115 -1.1688  1.6646 -0.0359
14797TIP3   OH265881   4.181   6.514   3.852 -0.0967 -0.3322  0.1921
14797TIP3    H165882   4.229   6.481   3.928 -0.7074  0.2798  0.8681
14797TIP3    H265883   4.089   6.501   3.875 -0.2881 -0.1603 -0.4564
14798TIP3   OH265884   3.513   4.371   5.325  0.4475 -0.2561  0.0974
14798TIP3    H165885   3.510   4.376   5.230  0.8149 -2.8628 -0.1248
14798TIP3    H265886   3.605   4.355   5.346  0.7152  2.1381  1.0930
14799TIP3   OH265887   5.539   6.460   5.766  0.6023 -0.1646  0.1454
14799TIP3    H165888   5.563   6.552   5.759  2.4068 -0.6468 -1.1125
14799TIP3    H265889   5.446   6.457   5.743  0.5439  1.3247  0.0838
14800TIP3   OH265890   3.860   3.289  13.783  0.7605 -0.4227 -0.2242
14800TIP3    H165891   3.785   3.341  13.811  1.5820  0.8138 -0.2694
14800TIP3    H265892   3.821   3.214  13.737 -0.4329  0.8394 -1.3547
14801TIP3   OH265893   6.070   1.902  16.944  0.4497  0.6562  0.3558
14801TIP3    H165894   6.127   1.828  16.925  0.9831  0.6091  1.9396
14801TIP3    H265895   5.982   1.873  16.920  0.7653 -0.2026  0.2267
14802TIP3   OH265896   5.214   0.008   6.337 -0.1590  0.1371  0.2037
14802TIP3    H165897   5.215   0.102   6.354 -0.5589  0.1169  0.3362
14802TIP3    H265898   5.304  -0.012   6.311 -0.2799  0.7098 -0.7044
14803TIP3   OH265899   1.491   1.252   2.361  0.1337  0.2075 -0.4114
14803TIP3    H165900   1.421   1.300   2.317  0.6250 -1.4164 -3.1721
14803TIP3    H265901   1.572   1.286   2.323  0.5847 -1.2775 -0.8436
14804TIP3   OH265902   1.356   0.663  13.454 -0.3869 -0.1485 -0.1905
14804TIP3    H165903   1.315   0.748  13.462  0.4679  0.1872  0.8270
14804TIP3    H265904   1.286   0.600  13.471 -1.0884  0.3266 -1.2591
14805TIP3   OH265905   1.210   2.617  15.393  0.7405 -0.0585  0.6994
14805TIP3    H165906   1.270   2.669  15.446 -1.3320  3.4996 -0.0833
14805TIP3    H265907   1.222   2.651  15.304  0.4722 -2.2209 -0.2181
14806TIP3   OH265908   4.198   3.341   0.220 -0.0983 -0.4912  0.2271
14806TIP3    H165909   4.175   3.387   0.300 -0.3419  0.4627 -0.3788
14806TIP3    H265910   4.222   3.410   0.158  1.0778 -1.2627 -0.2164
14807TIP3   OH265911   2.097   2.083  11.598 -0.6602 -0.4902 -0.6928
14807TIP3    H165912   2.102   2.174  11.626 -0.2948 -0.6869 -0.1058
14807TIP3    H265913   2.060   2.036  11.673 -3.2820 -0.4616 -1.8670
14808TIP3   OH265914   5.218   5.953   3.250 -0.0641 -0.1590  0.2812
14808TIP3    H165915   5.144   5.989   3.298  0.1940  0.2815  0.3605
14808TIP3    H265916   5.295   5.995   3.290  0.1554  0.2126 -0.5129
14809TIP3   OH265917   1.783   6.546   2.275 -0.1483 -0.3289 -0.7409
14809TIP3    H165918   1.824   6.507   2.352  0.5775  1.4966 -0.1563
14809TIP3    H265919   1.831   6.627   2.261 -2.1793  0.8395 -1.3364
14810TIP3   OH265920   5.100   4.923   2.426 -0.0521  0.8975 -0.3384
14810TIP3    H165921   5.107   4.901   2.519  0.9231 -1.0221 -0.8293
14810TIP3    H265922   5.025   4.873   2.395 -0.0908  1.1797 -0.7059
14811TIP3   OH265923   5.974   1.630   5.165  0.3052  0.6386  0.9031
14811TIP3    H165924   5.961   1.676   5.082  0.0182 -0.3714  0.3672
14811TIP3    H265925   5.916   1.554   5.159  1.7803 -0.5590  1.1579
14812TIP3   OH265926   2.837   4.880  16.294 -0.0813  0.4807 -0.7325
14812TIP3    H165927   2.848   4.951  16.357 -0.0589 -0.3324  0.2079
14812TIP3    H265928   2.774   4.914  16.230  0.3272  1.5245 -0.5957
14813TIP3   OH265929   4.239   2.089  11.218 -0.4769  0.0657  0.0883
14813TIP3    H165930   4.326   2.119  11.190 -0.0505  0.5408  1.7935
14813TIP3    H265931   4.252   2.059  11.308 -2.2107  0.8066  0.6237
14814TIP3   OH265932   3.141   0.597  13.834 -0.2182 -0.1014  0.3268
14814TIP3    H165933   3.057   0.561  13.862 -0.2839 -0.3943 -0.2406
14814TIP3    H265934   3.199   0.581  13.909 -0.4838 -0.5429  0.4454
14815TIP3   OH265935   2.709   3.255  12.141 -0.4029 -0.3236 -0.2170
14815TIP3    H165936   2.736   3.328  12.085 -2.1522  1.8949  1.6193
14815TIP3    H265937   2.613   3.256  12.136 -0.4976 -1.9267  0.6123
14816TIP3   OH265938   0.446   3.491   5.374  0.1940 -0.4428  0.2281
14816TIP3    H165939   0.486   3.435   5.308  0.7395  0.3384 -0.1290
14816TIP3    H265940   0.504   3.486   5.450  1.5272  1.3535 -0.5801
14817TIP3   OH265941   1.733   4.472   2.368 -0.0655 -0.2743 -0.0105
14817TIP3    H165942   1.683   4.490   2.448  0.8587 -0.0514  0.5344
14817TIP3    H265943   1.692   4.527   2.301 -0.6475 -0.2258  0.3748
14818TIP3   OH265944   3.883   4.413   2.306  0.3196  0.2019  0.3319
14818TIP3    H165945   3.939   4.491   2.297  1.3192 -0.6575 -1.3600
14818TIP3    H265946   3.796   4.444   2.282  0.6143  0.9021  0.1145
14819TIP3   OH265947   0.789   0.063  12.470 -0.1539  0.3221 -0.6779
14819TIP3    H165948   0.777   0.056  12.376 -1.0141 -0.5653 -0.5136
14819TIP3    H265949   0.728   0.132  12.497  3.6020  4.4425 -1.3743
14820TIP3   OH265950   1.460   1.660   0.426  0.0005  0.3403 -0.4646
14820TIP3    H165951   1.410   1.600   0.481  1.1494 -1.6647 -1.4597
14820TIP3    H265952   1.393   1.706   0.375 -0.9339 -1.1197 -0.6467
14821TIP3   OH265953   3.168   3.364   1.811  0.9347 -0.3800 -0.0821
14821TIP3    H165954   3.198   3.292   1.757  0.3058  0.6389 -1.8715
14821TIP3    H265955   3.103   3.325   1.869  2.0229 -1.6041  0.3719
14822TIP3   OH265956   6.731   0.271  12.087  0.1471 -0.1704  0.4029
14822TIP3    H165957   6.782   0.290  12.008 -0.3610  1.4913  0.4307
14822TIP3    H265958   6.644   0.249  12.055  0.0651  0.0486  0.4705
14823TIP3   OH265959   1.640   0.611   0.575  0.3012 -0.0357  0.4083
14823TIP3    H165960   1.571   0.659   0.528  0.3599  0.5787  0.9307
14823TIP3    H265961   1.605   0.523   0.586 -0.7783  0.4818  1.3844
14824TIP3   OH265962   4.521   6.207   3.998 -0.1016  0.3288  0.7301
14824TIP3    H165963   4.429   6.221   4.020 -0.0867  2.4901 -0.2895
14824TIP3    H265964   4.552   6.293   3.970  2.5002 -0.1123  1.9377
14825TIP3   OH265965   5.565   3.674   5.204  0.2432 -0.9136  0.2924
14825TIP3    H165966   5.503   3.694   5.274  0.0484 -1.2127  0.2036
14825TIP3    H265967   5.574   3.579   5.205  0.7122 -0.8717  0.3153
14826TIP3   OH265968   3.902   2.923   4.657  0.3088  0.2961  0.9468
14826TIP3    H165969   3.849   2.982   4.710 -1.8134 -0.2296 -0.4401
14826TIP3    H265970   3.839   2.861   4.619  1.8930 -0.2903 -0.9558
14827TIP3   OH265971   0.503   4.265  12.156 -0.0940 -0.0737  0.5255
14827TIP3    H165972   0.489   4.227  12.069  1.7489 -0.2427  0.2588
14827TIP3    H265973   0.429   4.323  12.169  1.0563  2.3293 -2.4888
14828TIP3   OH265974   6.309   1.635  14.969 -0.7047  0.5977  0.3587
14828TIP3    H165975   6.379   1.700  14.971 -0.1808  0.0327  0.7339
14828TIP3    H265976   6.354   1.551  14.965 -1.3022  0.1290  2.4187
14829TIP3   OH265977   6.795   5.456  14.541 -0.2309  0.5970 -0.0856
14829TIP3    H165978   6.762   5.518  14.606 -0.7451 -0.2739  0.5013
14829TIP3    H265979   6.730   5.386  14.540  0.3562  0.0479 -0.7165
14830TIP3   OH265980   4.731   2.972   3.470  0.4082  0.8409  0.1012
14830TIP3    H165981   4.812   2.948   3.426 -0.8295 -1.4778 -1.1778
14830TIP3    H265982   4.755   2.981   3.562  2.2037  0.8481 -0.3313
14831TIP3   OH265983   3.904   1.128  15.662  0.3717  0.3747  0.1359
14831TIP3    H165984   3.877   1.036  15.656  1.4961 -0.0172  0.8770
14831TIP3    H265985   3.823   1.174  15.685 -0.1939 -0.4251 -0.1716
14832TIP3   OH265986   3.213   5.575   2.019  0.9687  0.1841  0.1388
14832TIP3    H165987   3.181   5.659   2.051  0.7569  1.0566 -2.1997
14832TIP3    H265988   3.135   5.532   1.983  0.8186 -1.6257  2.3781
14833TIP3   OH265989   3.698   2.467  11.251  0.3291  0.7299 -0.0666
14833TIP3    H165990   3.609   2.463  11.285 -0.2155  1.1573 -1.4217
14833TIP3    H265991   3.710   2.558  11.224  0.4471  0.2215 -1.8041
14834TIP3   OH265992   1.886   3.545   0.835  0.2934  0.1895 -0.4585
14834TIP3    H165993   1.922   3.633   0.828 -0.9496  0.8419  1.0768
14834TIP3    H265994   1.949   3.497   0.889 -0.6286  1.1092  1.5388
14835TIP3   OH265995   0.602   2.755   5.203  0.1658  0.3470  0.1032
14835TIP3    H165996   0.656   2.767   5.125  0.1439  1.1073  0.2014
14835TIP3    H265997   0.517   2.792   5.180  0.3493  1.1578  0.7012
14836TIP3   OH265998   0.435   3.473   2.761 -0.2058  0.1160 -0.2166
14836TIP3    H165999   0.346   3.508   2.761  0.4146  1.8397 -1.4277
14836TIP3    H266000   0.441   3.421   2.681  0.4465  1.7377 -1.2784
14837TIP3   OH266001   4.397   4.669  14.032  0.6599 -0.6720  0.5818
14837TIP3    H166002   4.384   4.749  14.083 -3.4401 -0.7377 -0.0170
14837TIP3    H266003   4.417   4.699  13.944  1.5171 -0.3996  0.8631
14838TIP3   OH266004   1.623   3.906   0.898 -0.5600  0.0339 -0.8217
14838TIP3    H166005   1.556   3.951   0.846 -0.8574 -0.3719 -0.7999
14838TIP3    H266006   1.641   3.966   0.970 -0.6532  0.2958 -1.0143
14839TIP3   OH266007   3.432   6.310  15.944  0.4447 -0.1451  0.2619
14839TIP3    H166008   3.375   6.259  15.886  1.0565 -0.8653  0.2682
14839TIP3    H266009   3.384   6.391  15.961  0.4155  0.2555 -1.5620
14840TIP3   OH266010   1.932   1.544   4.120  0.3001 -0.3578 -0.1600
14840TIP3    H166011   1.858   1.590   4.160 -0.0315 -1.0230  0.0090
14840TIP3    H266012   1.941   1.463   4.171  0.9132 -0.4534 -0.4090
14841TIP3   OH266013   3.042   4.052   0.955  0.1020 -0.2652 -0.1334
14841TIP3    H166014   2.967   4.066   1.013  0.0849  0.3731 -0.3072
14841TIP3    H266015   3.078   4.139   0.940 -0.7883 -0.1999 -2.2678
14842TIP3   OH266016   2.419   3.793  14.534  0.2569  0.1916  0.5357
14842TIP3    H166017   2.503   3.801  14.489 -1.3729  1.7359 -2.5166
14842TIP3    H266018   2.410   3.875  14.583 -1.7293  2.8781 -3.7314
14843TIP3   OH266019   0.107   2.701   2.642  0.3936 -0.0490  0.3567
14843TIP3    H166020   0.017   2.673   2.655 -0.4048  2.3804  0.5414
14843TIP3    H266021   0.104   2.753   2.562  1.0736  2.1364  1.6834
14844TIP3   OH266022   2.780   1.052   3.188 -0.2135  0.5301  0.2518
14844TIP3    H166023   2.826   0.967   3.195 -0.8612  0.2822  2.2474
14844TIP3    H266024   2.837   1.113   3.236  0.0676  1.1774 -0.8697
14845TIP3   OH266025   4.148   2.142   2.059  0.8667  0.0237 -0.3532
14845TIP3    H166026   4.242   2.146   2.037  0.4965  0.8292 -2.0041
14845TIP3    H266027   4.122   2.234   2.065  0.0931 -0.1979 -0.3221
14846TIP3   OH266028   4.761   1.958  16.331 -0.1318 -0.2889  0.1140
14846TIP3    H166029   4.855   1.953  16.348 -0.1382 -1.3679 -0.0956
14846TIP3    H266030   4.721   1.969  16.417  0.1450 -0.5661  0.2783
14847TIP3   OH266031   1.755   1.529   4.821  0.3788 -0.2013 -0.3431
14847TIP3    H166032   1.813   1.555   4.750 -0.1760 -0.4803 -0.9119
14847TIP3    H266033   1.795   1.566   4.900  0.0183  1.7228 -1.0092
14848TIP3   OH266034   3.084   5.377   1.241 -0.0409 -0.4538  0.3824
14848TIP3    H166035   3.025   5.434   1.290  1.1360 -0.8641  2.3789
14848TIP3    H266036   3.080   5.293   1.286  0.1279 -1.2403 -1.0206
14849TIP3   OH266037   4.609   5.512  11.532 -0.0435 -0.2954 -0.0093
14849TIP3    H166038   4.573   5.501  11.620  1.9435 -1.1537  0.7680
14849TIP3    H266039   4.699   5.540  11.547 -0.0517  0.8387 -1.8202
14850TIP3   OH266040   0.969   0.997  14.245 -0.1827 -0.4279 -0.3104
14850TIP3    H166041   0.974   1.087  14.276 -1.6762 -0.0232 -1.1399
14850TIP3    H266042   0.975   1.004  14.150 -0.3414 -1.1930 -0.3830
14851TIP3   OH266043   2.177   1.795  17.132 -0.4070 -0.2746 -0.0318
14851TIP3    H166044   2.164   1.724  17.069 -0.6747 -1.7313  1.5700
14851TIP3    H266045   2.232   1.756  17.200  0.4109  1.4369  0.3275
14852TIP3   OH266046   2.139   5.848   4.488  0.3102  0.4666  0.7759
14852TIP3    H166047   2.081   5.889   4.553 -0.1377  0.3115  0.4841
14852TIP3    H266048   2.125   5.754   4.499 -0.0332  0.4487  0.2257
14853TIP3   OH266049   3.739   5.675  16.534 -0.0752 -0.1247 -0.2227
14853TIP3    H166050   3.795   5.688  16.457 -0.3804 -0.7042 -0.5463
14853TIP3    H266051   3.743   5.759  16.581 -0.1019  0.3308 -1.0141
14854TIP3   OH266052   2.299   4.524  15.180  0.3665 -0.4172 -0.0747
14854TIP3    H166053   2.296   4.619  15.170  3.1305 -0.0916  1.2222
14854TIP3    H266054   2.218   4.501  15.224  1.3320  1.9592  3.2855
14855TIP3   OH266055   0.968   5.594   2.467  0.1470 -0.0907  0.3254
14855TIP3    H166056   0.946   5.685   2.487  1.5541  0.7134 -1.5002
14855TIP3    H266057   0.903   5.543   2.515 -1.7419  1.9162  0.0849
14856TIP3   OH266058   0.199   6.283   1.854  0.4439  0.0671  0.2191
14856TIP3    H166059   0.269   6.308   1.915  0.7941 -0.2937 -0.0264
14856TIP3    H266060   0.214   6.336   1.776 -1.4911  2.4085  1.3110
14857TIP3   OH266061   6.481   1.487  13.291  0.3177  0.2877 -0.2477
14857TIP3    H166062   6.417   1.511  13.358  0.1634  0.2188 -0.3693
14857TIP3    H266063   6.482   1.391  13.292 -1.4653  0.1859 -1.9874
14858TIP3   OH266064   2.268   6.733  13.540 -0.3648  0.1748 -0.1774
14858TIP3    H166065   2.270   6.829  13.536  0.3538  0.1393 -1.0785
14858TIP3    H266066   2.306   6.712  13.626 -0.4638  0.6968 -0.0034
14859TIP3   OH266067   3.334   5.044   1.712  0.0275 -0.9376 -0.4575
14859TIP3    H166068   3.398   5.112   1.694 -1.0413 -0.1614 -1.4337
14859TIP3    H266069   3.385   4.963   1.715  1.3622 -0.0854  1.0872
14860TIP3   OH266070   3.423   2.659   1.926 -0.0952  0.1148 -0.1261
14860TIP3    H166071   3.440   2.606   1.848  1.3040  0.6247 -0.1887
14860TIP3    H266072   3.411   2.748   1.893 -0.4279  0.1778  0.1589
14861TIP3   OH266073   0.074   3.805   2.838  0.0300 -0.2335 -0.3586
14861TIP3    H166074   0.165   3.797   2.811  0.5027  1.2782  0.6037
14861TIP3    H266075   0.048   3.717   2.864  0.6839 -0.9930 -2.1632
14862TIP3   OH266076   5.548   2.409   3.585 -0.7473  0.0246 -0.1198
14862TIP3    H166077   5.460   2.374   3.596 -1.2561  1.0635 -0.7436
14862TIP3    H266078   5.538   2.504   3.595  0.3880  0.1194  0.3075
14863TIP3   OH266079   3.467   2.124   3.016 -0.0410 -0.8363 -0.0976
14863TIP3    H166080   3.392   2.175   2.987  0.8207 -0.2840 -1.4592
14863TIP3    H266081   3.526   2.122   2.940  1.3990 -1.0855  0.9819
14864TIP3   OH266082   5.280   3.546   3.321  0.0224 -0.3297 -0.3395
14864TIP3    H166083   5.317   3.467   3.362  1.6315  0.5651 -0.0047
14864TIP3    H266084   5.355   3.603   3.306 -1.2959  1.9526  1.1550
14865TIP3   OH266085   6.631   6.736  10.762 -0.1248  0.2039 -0.2274
14865TIP3    H166086   6.560   6.704  10.706 -1.0612 -1.3121  1.7249
14865TIP3    H266087   6.601   6.822  10.792  0.0835  0.7249 -1.4120
14866TIP3   OH266088   5.423   1.828   6.859 -0.0352 -0.2608  0.5976
14866TIP3    H166089   5.383   1.899   6.809  1.5905  0.5261  0.3456
14866TIP3    H266090   5.517   1.834   6.839  0.4559 -0.9387  2.4823
14867TIP3   OH266091   0.306   4.071   3.410 -0.3166 -0.4717  0.2466
14867TIP3    H166092   0.304   4.119   3.327 -1.2174  3.7030  2.3912
14867TIP3    H266093   0.391   4.092   3.448 -1.5908  1.6516  2.2355
14868TIP3   OH266094   0.620   0.317   3.549 -0.3336  0.3181  0.2058
14868TIP3    H166095   0.678   0.302   3.624 -0.3763  2.0932  0.6422
14868TIP3    H266096   0.542   0.266   3.568  0.1217 -0.1774  0.7912
14869TIP3   OH266097   0.670   6.254  15.566  0.2640  0.2959  0.1555
14869TIP3    H166098   0.655   6.275  15.474 -0.4793 -1.6338 -0.1963
14869TIP3    H266099   0.765   6.257  15.575  0.3997 -0.2238 -0.8801
14870TIP3   OH266100   5.658   6.414  10.654  0.5562  0.2079  0.3259
14870TIP3    H166101   5.615   6.328  10.655 -0.2462  0.5588 -1.2194
14870TIP3    H266102   5.587   6.476  10.668  0.9792  0.6626  0.4431
14871TIP3   OH266103   0.756   3.731  16.362  0.1045  0.5002 -0.2598
14871TIP3    H166104   0.704   3.667  16.411 -0.5172  0.7034 -0.6469
14871TIP3    H266105   0.836   3.683  16.339  0.1763  0.2404  0.4874
14872TIP3   OH266106   5.415   6.440   3.400 -0.1306  0.4090  0.3013
14872TIP3    H166107   5.392   6.349   3.416  1.0438  0.1120  0.3744
14872TIP3    H266108   5.331   6.484   3.389 -0.6966 -0.8182 -0.4939
14873TIP3   OH266109   1.186   6.530  16.489  0.6174  0.2038  0.3032
14873TIP3    H166110   1.141   6.605  16.452  0.6130 -0.2226 -0.5969
14873TIP3    H266111   1.261   6.516  16.430  1.4520  0.3920  1.2884
14874TIP3   OH266112   4.313   6.592   1.486 -0.0512 -0.6237 -0.4004
14874TIP3    H166113   4.318   6.569   1.579 -0.2272  0.6629 -0.0624
14874TIP3    H266114   4.402   6.617   1.463 -0.5108  1.8036  0.1857
14875TIP3   OH266115   0.891   3.292   1.092  0.1507  0.1745 -0.3439
14875TIP3    H166116   0.945   3.309   1.169 -0.1330 -0.6424  0.0492
14875TIP3    H266117   0.927   3.349   1.024  2.9355 -1.8249 -0.7293
14876TIP3   OH266118   4.525   6.416  14.941 -0.2705 -0.9766  0.2763
14876TIP3    H166119   4.578   6.461  15.007 -0.8250 -1.1143  0.8170
14876TIP3    H266120   4.584   6.351  14.903  0.2606 -0.4253  0.1351
14877TIP3   OH266121   3.031   6.055   5.902  0.0371  0.5940  0.2406
14877TIP3    H166122   2.979   6.006   5.838  1.4762 -0.6130 -0.0612
14877TIP3    H266123   3.089   6.109   5.849  0.1531  0.7854  0.5590
14878TIP3   OH266124   0.228   0.835  14.167 -0.9376  0.3031 -0.1209
14878TIP3    H166125   0.134   0.853  14.163 -0.8950  0.3816 -0.9647
14878TIP3    H266126   0.255   0.830  14.076  0.4972  3.4995  0.0011
14879TIP3   OH266127   3.856   3.135   1.887 -0.1568 -0.4979 -0.1016
14879TIP3    H166128   3.794   3.197   1.926 -0.2877 -0.0894 -0.9470
14879TIP3    H266129   3.917   3.115   1.958  0.4933  1.3851 -0.0742
14880TIP3   OH266130   0.352   2.194  12.433 -0.1774  0.2412 -0.7144
14880TIP3    H166131   0.264   2.168  12.460  0.3865 -2.0009 -0.8706
14880TIP3    H266132   0.376   2.264  12.494 -1.7747  0.3795 -0.2014
14881TIP3   OH266133   2.243   0.912   5.060  0.1157 -0.5672  0.6138
14881TIP3    H166134   2.270   0.842   5.119  0.7950 -1.3126 -0.5557
14881TIP3    H266135   2.154   0.888   5.034  0.9056 -1.9147 -1.0455
14882TIP3   OH266136   0.177   3.174   1.421 -0.4368 -0.5562 -0.2276
14882TIP3    H166137   0.176   3.085   1.458 -0.5763 -0.7034 -0.5781
14882TIP3    H266138   0.215   3.163   1.334  2.0798  0.1255  0.6906
14883TIP3   OH266139   3.801   0.734  14.948 -0.2665  0.2768  0.0981
14883TIP3    H166140   3.788   0.640  14.942 -0.1032  0.2125  0.6934
14883TIP3    H266141   3.885   0.750  14.905 -0.4563  0.1990 -0.3084
14884TIP3   OH266142   0.070   3.894   3.287 -0.2650  0.4687 -0.2212
14884TIP3    H166143   0.138   3.837   3.323 -0.6858  0.2480  0.2215
14884TIP3    H266144   0.118   3.953   3.228  0.5719  1.3892  1.3130
14885TIP3   OH266145   2.620   6.656  14.323 -0.5587 -0.2755  0.1533
14885TIP3    H166146   2.656   6.706  14.397 -1.1904 -1.0825  1.0330
14885TIP3    H266147   2.525   6.657  14.338 -0.6961 -0.4267 -0.6734
14886TIP3   OH266148   4.681   0.534   0.799  0.0267  0.2985 -0.1098
14886TIP3    H166149   4.657   0.625   0.782  1.6467  0.6854 -0.5852
14886TIP3    H266150   4.631   0.483   0.734 -2.1199  0.6343  1.1934
14887TIP3   OH266151   5.228   3.528  12.650  0.3747 -0.2501 -0.0044
14887TIP3    H166152   5.221   3.598  12.715  0.0277  0.3415 -0.6633
14887TIP3    H266153   5.276   3.458  12.694 -0.2077 -0.0214  1.0180
14888TIP3   OH266154   1.644   5.826   4.416  0.4327  0.0927 -1.0257
14888TIP3    H166155   1.575   5.765   4.391  0.2438  0.0984 -0.5318
14888TIP3    H266156   1.647   5.821   4.512 -0.3700  1.6950 -0.8871
14889TIP3   OH266157   3.974   2.333   2.289 -0.4029  0.1058  0.1108
14889TIP3    H166158   3.926   2.287   2.221  0.0180 -0.4973  0.2200
14889TIP3    H266159   3.962   2.426   2.268  0.2039 -0.0772 -1.1111
14890TIP3   OH266160   1.145   3.078  12.532  0.6038  0.1443  0.2870
14890TIP3    H166161   1.058   3.039  12.522  0.9403 -0.9605  1.3702
14890TIP3    H266162   1.138   3.135  12.608  0.8494 -0.0272  0.4401
14891TIP3   OH266163   3.597   5.151   5.293 -0.3943  0.0109  0.3208
14891TIP3    H166164   3.659   5.210   5.336  0.3354 -1.0594  0.7737
14891TIP3    H266165   3.533   5.129   5.360 -1.2753  1.1045 -0.1440
14892TIP3   OH266166   4.686   1.627  14.042  0.2696  0.2838  0.1589
14892TIP3    H166167   4.724   1.711  14.066  1.2721  0.1145 -0.7728
14892TIP3    H266168   4.736   1.563  14.094 -0.5437  0.2523  0.9276
14893TIP3   OH266169   0.182   1.978   1.582 -0.0060  0.0511  0.1856
14893TIP3    H166170   0.227   1.947   1.660 -0.0017 -2.1535 -0.6070
14893TIP3    H266171   0.090   1.986   1.609  0.1907  0.5781  0.7302
14894TIP3   OH266172   0.107   1.278  16.396  0.5815  0.7082  0.0884
14894TIP3    H166173   0.162   1.243  16.326 -0.6844 -0.4407 -0.3704
14894TIP3    H266174   0.021   1.237  16.382 -0.4393  2.5301  0.7074
14895TIP3   OH266175   2.682   2.093  14.501 -0.4032 -0.1580  0.2169
14895TIP3    H166176   2.775   2.113  14.501 -0.4586  0.3014  1.8852
14895TIP3    H266177   2.659   2.085  14.409  1.3420 -0.5987 -0.2182
14896TIP3   OH266178   2.621   5.900   3.658  0.2085  0.4166 -0.1405
14896TIP3    H166179   2.587   5.950   3.732 -0.7589 -1.1254  0.5154
14896TIP3    H266180   2.709   5.874   3.685  0.4890  1.2201 -0.2416
14897TIP3   OH266181   5.135   2.154   5.582 -0.1698  0.3880  0.1322
14897TIP3    H166182   5.222   2.143   5.619 -0.6037  0.5611  1.2309
14897TIP3    H266183   5.087   2.076   5.610 -0.2127 -0.0198 -0.9920
14898TIP3   OH266184   3.723   2.536  16.609  0.3309  0.0681  0.3772
14898TIP3    H166185   3.764   2.514  16.526  0.0323  1.5572 -0.2008
14898TIP3    H266186   3.795   2.557  16.668  0.4826  0.9272 -0.1038
14899TIP3   OH266187   0.198   2.823   6.493  0.3127 -0.1454  0.2413
14899TIP3    H166188   0.268   2.858   6.437 -0.0284  2.4555  1.2640
14899TIP3    H266189   0.117   2.839   6.443  0.3035 -2.3454 -0.5593
14900TIP3   OH266190   6.483   5.427  16.077 -0.6200  0.4376  0.0424
14900TIP3    H166191   6.574   5.435  16.105 -0.0892  2.3421 -2.0021
14900TIP3    H266192   6.470   5.334  16.064  1.4443  0.2179 -0.8302
14901TIP3   OH266193   0.814   4.987   5.369 -0.4118  0.7466  0.0544
14901TIP3    H166194   0.744   5.041   5.405  0.3581  0.9925  1.2315
14901TIP3    H266195   0.768   4.916   5.323 -1.5769 -1.1090  3.7092
14902TIP3   OH266196   5.730   3.153  12.031  0.0799 -0.0669  0.4860
14902TIP3    H166197   5.786   3.213  11.980 -0.5723  0.1908  0.0648
14902TIP3    H266198   5.660   3.128  11.970  0.9469 -2.1824  0.2489
14903TIP3   OH266199   4.397   4.994  10.337 -0.4177  0.0868  0.0344
14903TIP3    H166200   4.488   4.990  10.365 -0.9005 -0.6633  1.5983
14903TIP3    H266201   4.356   5.058  10.395 -1.4436 -1.5062  1.1369
14904TIP3   OH266202   6.249   5.818   1.799  0.1705 -0.0251  0.1146
14904TIP3    H166203   6.277   5.863   1.720 -0.6458  0.4209  0.0705
14904TIP3    H266204   6.220   5.888   1.858 -0.1622 -0.4176  0.4298
14905TIP3   OH266205   4.968   0.458   3.602  0.2458 -0.6149 -0.7227
14905TIP3    H166206   4.889   0.405   3.613  0.1409 -0.2355  0.4128
14905TIP3    H266207   5.014   0.416   3.529 -0.5342 -1.4091 -0.7810
14906TIP3   OH266208   4.600   4.084  15.045 -0.6835 -0.4589  0.5877
14906TIP3    H166209   4.549   4.114  15.120 -2.0888  2.6301 -1.3832
14906TIP3    H266210   4.536   4.065  14.977  0.5271  2.4296 -1.6003
14907TIP3   OH266211   5.001   4.674  15.880 -0.4737 -0.0104 -0.4665
14907TIP3    H166212   5.013   4.762  15.846  1.2340 -0.0804 -0.1285
14907TIP3    H266213   5.020   4.682  15.974 -0.4230 -0.7072 -0.4126
14908TIP3   OH266214   6.519   0.055   1.331  0.1476  0.3025  0.0501
14908TIP3    H166215   6.497   0.135   1.378 -2.6312 -0.2326 -0.2154
14908TIP3    H266216   6.488   0.070   1.242 -0.6376 -1.1260  0.0520
14909TIP3   OH266217   1.488   1.752  14.934  0.4684  0.3652 -0.1209
14909TIP3    H166218   1.571   1.797  14.953  0.2835  0.8969 -0.5459
14909TIP3    H266219   1.488   1.743  14.839  0.4879 -0.5155 -0.0394
14910TIP3   OH266220   3.573   1.373  10.928  0.3164 -0.2119  0.3498
14910TIP3    H166221   3.623   1.395  11.007 -0.8913 -0.1174  1.1223
14910TIP3    H266222   3.574   1.453  10.876  0.8718 -0.1831  0.3929
14911TIP3   OH266223   6.762   2.479  17.068 -0.2639 -0.4427 -0.2224
14911TIP3    H166224   6.835   2.486  17.006 -0.1230  2.4212  0.1349
14911TIP3    H266225   6.750   2.385  17.081  2.1054 -1.0295 -1.7548
14912TIP3   OH266226   1.217   0.408  16.130 -0.2301 -0.3460  0.3532
14912TIP3    H166227   1.310   0.412  16.105 -0.5874  0.0413 -1.0377
14912TIP3    H266228   1.193   0.500  16.143 -0.2781 -0.4884  1.3369
14913TIP3   OH266229   4.976   2.641   5.972 -0.0051  0.0274  0.0380
14913TIP3    H166230   4.928   2.564   6.001  0.1655  0.1199  0.5834
14913TIP3    H266231   5.033   2.663   6.046 -0.8591  1.3370  0.3436
14914TIP3   OH266232   6.730   6.019  12.232  0.2557  0.0727 -0.6425
14914TIP3    H166233   6.721   6.105  12.190 -2.1424  0.6525  0.8900
14914TIP3    H266234   6.793   6.033  12.303 -1.2616  1.0401  0.5777
14915TIP3   OH266235   6.214   4.882   6.521 -0.3525  0.1986 -0.3353
14915TIP3    H166236   6.158   4.958   6.539 -0.4604  0.0402 -0.0003
14915TIP3    H266237   6.153   4.809   6.513 -0.3279  0.2875 -1.5173
14916TIP3   OH266238   6.701   3.180   2.703  0.2256  0.6075 -0.2557
14916TIP3    H166239   6.721   3.095   2.744  0.0846  0.6140 -0.1709
14916TIP3    H266240   6.730   3.171   2.613 -0.6198  0.1462 -0.4961
14917TIP3   OH266241   3.158   3.938   4.796 -0.0251  0.0966 -0.5560
14917TIP3    H166242   3.229   3.894   4.750  1.1695  1.5133 -0.1669
14917TIP3    H266243   3.171   4.031   4.776  0.3483  0.7512  2.3358
14918TIP3   OH266244   6.583   2.280   4.118 -0.3464 -0.6516  0.2009
14918TIP3    H166245   6.547   2.365   4.141 -0.6558 -0.1492 -1.9462
14918TIP3    H266246   6.630   2.295   4.036 -0.2681 -2.5189 -0.1414
14919TIP3   OH266247   0.806   6.329   0.599  0.3643  0.2452 -0.9389
14919TIP3    H166248   0.856   6.409   0.610  2.1211 -0.6378 -1.9689
14919TIP3    H266249   0.864   6.272   0.548  0.0431 -2.4437  1.4473
14920TIP3   OH266250   3.955   6.690   1.221  0.2491  0.4027  0.0360
14920TIP3    H166251   3.977   6.715   1.132 -1.0643  0.8635 -0.1903
14920TIP3    H266252   3.952   6.595   1.219 -0.8563  0.4332 -0.7167
14921TIP3   OH266253   1.489   6.181   5.618  0.1113 -0.3223  0.2078
14921TIP3    H166254   1.445   6.266   5.610 -0.6867 -0.4565  2.3668
14921TIP3    H266255   1.534   6.185   5.703  1.0584 -1.6349 -0.1979
14922TIP3   OH266256   3.069   4.756   1.760  0.3684 -0.3078 -0.1112
14922TIP3    H166257   3.136   4.744   1.692  0.3896 -0.0666 -0.1322
14922TIP3    H266258   3.009   4.683   1.747  0.4391 -0.3307 -0.3126
14923TIP3   OH266259   3.891   1.485   3.504  0.0950  0.0485  0.5135
14923TIP3    H166260   3.914   1.479   3.597  1.3957 -0.9824  0.1510
14923TIP3    H266261   3.970   1.520   3.462 -0.7386  1.2242 -0.1195
14924TIP3   OH266262   3.195   2.296  13.471  0.2957 -0.3171  0.3715
14924TIP3    H166263   3.225   2.343  13.549 -1.0529  0.0086  0.7309
14924TIP3    H266264   3.268   2.239  13.447  0.8777 -0.1495  1.6577
14925TIP3   OH266265   2.794   4.448   4.224 -0.1200  0.2245  0.2770
14925TIP3    H166266   2.881   4.463   4.261  0.6945  2.3265 -2.1910
14925TIP3    H266267   2.752   4.534   4.228 -1.0404 -0.1425 -1.0274
14926TIP3   OH266268   4.195   0.231   0.899 -0.2849  0.0339  0.0150
14926TIP3    H166269   4.260   0.240   0.829 -0.1924 -0.1208  0.0808
14926TIP3    H266270   4.245   0.208   0.976  0.0856  3.8335  1.0935
14927TIP3   OH266271   3.114   3.827  13.334 -0.0605  0.2540 -0.3678
14927TIP3    H166272   3.160   3.829  13.418  1.0937  0.8541 -0.9892
14927TIP3    H266273   3.145   3.748  13.291 -0.6835 -0.0756 -0.2331
14928TIP3   OH266274   0.230   3.661   6.578 -0.1878 -0.9910 -0.9809
14928TIP3    H166275   0.215   3.605   6.502  1.5026 -0.2599 -1.8977
14928TIP3    H266276   0.242   3.749   6.541 -0.8655 -0.3426  0.2743
14929TIP3   OH266277   5.077   4.393   5.137 -0.1671 -0.4974 -0.6161
14929TIP3    H166278   5.033   4.404   5.221 -2.3207  0.4111 -1.7767
14929TIP3    H266279   5.148   4.458   5.139 -0.3939 -0.2582  0.3558
14930TIP3   OH266280   1.028   5.672  14.962  0.0158  0.3176  0.0727
14930TIP3    H166281   0.994   5.600  15.015  0.2447 -0.3884 -0.7120
14930TIP3    H266282   0.982   5.664  14.879  0.2396  0.9200 -0.1151
14931TIP3   OH266283   3.170   1.924  13.796 -0.0284 -0.2445 -0.4412
14931TIP3    H166284   3.131   1.900  13.712 -1.0453  0.3376 -0.1608
14931TIP3    H266285   3.239   1.986  13.775  1.6976 -2.2610 -1.0594
14932TIP3   OH266286   6.382   1.888   5.185 -0.5878  0.1062 -0.0155
14932TIP3    H166287   6.306   1.856   5.234  0.3475 -1.1796  0.6579
14932TIP3    H266288   6.442   1.919   5.253 -0.5227  1.1694 -0.5424
14933TIP3   OH266289   3.565   4.450  14.084 -1.0887  0.4016  0.1046
14933TIP3    H166290   3.631   4.515  14.059  0.1454 -1.2122 -1.0425
14933TIP3    H266291   3.486   4.477  14.037  0.0339 -0.1355 -2.2227
14934TIP3   OH266292   2.618   3.004  10.857 -0.1473  0.1723 -0.2836
14934TIP3    H166293   2.638   3.058  10.933  0.4907  2.0722 -1.7178
14934TIP3    H266294   2.597   3.067  10.788 -2.4478 -1.5109 -1.2587
14935TIP3   OH266295   1.367   3.834   3.959  0.1502  0.0400  0.0593
14935TIP3    H166296   1.414   3.834   4.043  0.0651 -0.9434  0.1274
14935TIP3    H266297   1.329   3.746   3.954 -0.9663  0.5330 -0.3959
14936TIP3   OH266298   1.535   6.674   0.580  0.2655  0.1772  0.4942
14936TIP3    H166299   1.606   6.614   0.602 -0.0876  0.1335  1.6034
14936TIP3    H266300   1.497   6.640   0.499  0.5466 -0.6650  0.7139
14937TIP3   OH266301   1.230   4.916   3.026  0.1725 -0.1180  0.3725
14937TIP3    H166302   1.198   4.923   3.116 -0.2487  1.5617  0.1269
14937TIP3    H266303   1.215   5.003   2.988 -0.6566 -1.0792 -1.6509
14938TIP3   OH266304   6.498   2.041  16.128  0.0607 -0.0831 -0.6738
14938TIP3    H166305   6.427   2.092  16.166 -1.3248 -0.7766 -2.2099
14938TIP3    H266306   6.477   1.950  16.150 -0.6373 -0.4830 -2.7299
14939TIP3   OH266307   3.348   6.238   0.807  0.2481 -0.0991  0.0302
14939TIP3    H166308   3.291   6.293   0.860  1.4444  0.2410  1.0177
14939TIP3    H266309   3.433   6.283   0.808  1.0507 -1.5433  0.1985
14940TIP3   OH266310   2.338   3.933  12.613  0.1601 -1.0716  0.1098
14940TIP3    H166311   2.407   3.890  12.562  0.4538 -0.4205 -0.0629
14940TIP3    H266312   2.375   3.940  12.701  0.0480 -1.3142  0.1762
14941TIP3   OH266313   4.957   2.946   1.991 -0.2926  0.2175  0.1166
14941TIP3    H166314   4.901   2.988   2.057 -1.6447 -1.0294 -0.1927
14941TIP3    H266315   4.926   2.856   1.987  1.0830 -0.2444 -0.8259
14942TIP3   OH266316   3.026   1.041   3.771 -1.0631 -0.0733 -0.0352
14942TIP3    H166317   3.094   0.998   3.721  0.2833  0.4014  1.3099
14942TIP3    H266318   3.036   1.006   3.860 -2.5070  0.0945  0.2267
14943TIP3   OH266319   2.743   3.913  14.830  0.1085  0.0032 -0.0507
14943TIP3    H166320   2.765   3.833  14.877  1.0790  0.8907  1.0946
14943TIP3    H266321   2.657   3.896  14.792  2.2949 -3.4651 -4.3211
14944TIP3   OH266322   2.166   1.854   2.557  0.2086 -0.6204 -0.3445
14944TIP3    H166323   2.078   1.836   2.525  0.1903  0.1381 -0.7453
14944TIP3    H266324   2.152   1.900   2.640  0.2158  0.0132 -0.6915
14945TIP3   OH266325   6.741   0.936   0.109 -0.5913 -0.1039 -0.9804
14945TIP3    H166326   6.812   0.987   0.148 -1.1900  1.9043 -2.3365
14945TIP3    H266327   6.749   0.952   0.015 -0.9837 -2.3930 -1.4686
14946TIP3   OH266328   4.347   1.864   4.980 -0.2499 -0.6843  0.1956
14946TIP3    H166329   4.258   1.832   4.996 -0.5735 -0.5529 -1.2122
14946TIP3    H266330   4.351   1.877   4.885  1.1130 -0.2025  0.2999
14947TIP3   OH266331   5.874   4.536  16.986  0.0064  0.3835  0.0443
14947TIP3    H166332   5.811   4.541  16.914 -2.3239  1.2958  2.0103
14947TIP3    H266333   5.941   4.475  16.955 -0.1115  1.7749 -3.4069
14948TIP3   OH266334   5.604   1.091  12.155 -0.0224  0.0422 -0.0503
14948TIP3    H166335   5.601   1.180  12.118  0.4524  0.3270  0.5718
14948TIP3    H266336   5.637   1.037  12.083  1.7719  0.7411  0.1924
14949TIP3   OH266337   2.842   0.225  12.806  0.3691 -0.2696 -0.0454
14949TIP3    H166338   2.747   0.240  12.806  0.1979 -0.9066  2.2384
14949TIP3    H266339   2.851   0.136  12.840  1.8125  0.1300  0.6615
14950TIP3   OH266340   0.673   4.289   5.259 -0.5915 -0.0093 -0.6145
14950TIP3    H166341   0.698   4.239   5.337 -0.5825 -0.7536 -1.0861
14950TIP3    H266342   0.753   4.294   5.207 -0.9733 -0.8932 -1.3117
14951TIP3   OH266343   4.236   4.569  13.281 -0.0943  0.4177  0.2233
14951TIP3    H166344   4.149   4.586  13.246 -0.3726 -0.8065  0.2700
14951TIP3    H266345   4.291   4.554  13.204  0.4649  2.7552  0.1139
14952TIP3   OH266346   1.465   3.097   4.764  0.1337  0.3884  0.1489
14952TIP3    H166347   1.388   3.149   4.742  2.0460  3.2113 -0.3782
14952TIP3    H266348   1.517   3.095   4.684  1.4174  0.0883  0.9451
14953TIP3   OH266349   0.885   2.361   4.840 -0.2831  0.2682  0.3531
14953TIP3    H166350   0.870   2.367   4.934 -0.2454 -0.7259  0.4266
14953TIP3    H266351   0.934   2.280   4.828 -2.8647 -1.2252 -0.8327
14954TIP3   OH266352   0.583   4.443   1.561  0.5009 -0.1887 -0.1037
14954TIP3    H166353   0.621   4.522   1.521  1.3769 -0.4339  0.2065
14954TIP3    H266354   0.525   4.476   1.629  0.5582  0.1970 -0.2381
14955TIP3   OH266355   2.423   5.774  12.625 -0.4517 -0.4678  0.2691
14955TIP3    H166356   2.509   5.789  12.587 -0.2122  0.2759  1.0619
14955TIP3    H266357   2.375   5.724  12.558  0.1242  0.3133 -0.7520
14956TIP3   OH266358   6.435   2.463   4.378 -0.1351 -0.4038 -0.1231
14956TIP3    H166359   6.399   2.397   4.318  0.1568 -1.0989  0.4564
14956TIP3    H266360   6.391   2.544   4.353 -0.8289 -0.9044 -0.5602
14957TIP3   OH266361   2.076   1.895   1.692 -0.2427  0.9252  0.1485
14957TIP3    H166362   2.060   1.941   1.774  1.8437  0.4307  0.8918
14957TIP3    H266363   2.054   1.958   1.624 -0.0139  2.0661  1.1107
14958TIP3   OH266364   2.482   4.776   4.950  0.6399  0.1980 -0.0026
14958TIP3    H166365   2.487   4.859   4.903 -1.4310  0.2907 -0.1515
14958TIP3    H266366   2.552   4.723   4.913  0.6413  1.1410 -1.4169
14959TIP3   OH266367   5.980   1.186   1.511 -0.2387 -0.0903 -0.0523
14959TIP3    H166368   5.972   1.261   1.452  3.1095  0.1833 -0.3612
14959TIP3    H266369   5.997   1.225   1.597  0.9457 -0.4355 -0.1090
14960TIP3   OH266370   6.461   5.528   3.915 -0.0921 -0.0893  0.4415
14960TIP3    H166371   6.428   5.599   3.970  1.1696  1.1538 -0.3642
14960TIP3    H266372   6.382   5.485   3.883 -0.8699 -0.5156  2.7461
14961TIP3   OH266373   0.142   0.044   2.603 -0.1805 -0.1768  0.0483
14961TIP3    H166374   0.124  -0.021   2.535 -1.4900  0.1786  0.0164
14961TIP3    H266375   0.174   0.121   2.556 -0.0529 -0.2937 -0.0572
14962TIP3   OH266376   4.804   0.142   4.848  0.4129 -0.1281 -0.4104
14962TIP3    H166377   4.885   0.099   4.821  0.7525  0.9808 -1.2321
14962TIP3    H266378   4.803   0.225   4.800  0.3577  1.3394  1.9433
14963TIP3   OH266379   5.528   2.680  13.632 -0.2754 -0.3166  0.2250
14963TIP3    H166380   5.579   2.753  13.598  1.9198 -2.1307 -0.6718
14963TIP3    H266381   5.561   2.604  13.584 -2.3338 -1.9254  1.2173
14964TIP3   OH266382   5.792   5.844   0.330  0.5932  0.0915  0.6901
14964TIP3    H166383   5.862   5.894   0.288 -0.1902  1.8214  1.3471
14964TIP3    H266384   5.833   5.806   0.407  2.1340 -3.3912 -1.6036
14965TIP3   OH266385   3.236   4.303   5.059 -0.2801 -0.0968  0.3776
14965TIP3    H166386   3.185   4.263   4.988 -1.4351 -0.6555  1.4923
14965TIP3    H266387   3.236   4.237   5.128  0.1724  0.7523  1.2006
14966TIP3   OH266388   3.614   1.686  13.394 -0.2541  0.2332  0.1256
14966TIP3    H166389   3.666   1.684  13.314 -0.4737 -1.0924 -0.0050
14966TIP3    H266390   3.527   1.658  13.368 -0.0364 -1.4214  0.9855
14967TIP3   OH266391   2.948   2.020  11.542 -0.0698  0.1052 -0.1938
14967TIP3    H166392   3.038   2.030  11.573 -0.1832 -1.8308  0.9580
14967TIP3    H266393   2.895   2.061  11.610 -0.0867  0.8095 -0.6285
14968TIP3   OH266394   1.509   2.620   2.380  0.1099  0.0437  0.1147
14968TIP3    H166395   1.578   2.635   2.316 -0.5211 -0.0531 -0.5925
14968TIP3    H266396   1.437   2.676   2.352  0.8163  2.2687  2.3847
14969TIP3   OH266397   2.686   5.222   3.662 -0.8025 -0.7107  0.6185
14969TIP3    H166398   2.778   5.208   3.685 -0.8107 -1.3349  0.3141
14969TIP3    H266399   2.637   5.173   3.728 -1.0154  1.2184  1.9673
14970TIP3   OH266400   3.373   0.360  14.977  0.2690  0.8946  0.2653
14970TIP3    H166401   3.304   0.322  15.030  0.6820 -0.0134  0.1776
14970TIP3    H266402   3.443   0.381  15.039  0.3461  0.7857  0.2161
14971TIP3   OH266403   5.697   6.447   4.216  0.2589  0.1574  0.2567
14971TIP3    H166404   5.681   6.432   4.123  1.3296  1.2447 -0.1313
14971TIP3    H266405   5.741   6.532   4.219 -0.8334  0.7009  1.8692
14972TIP3   OH266406   4.088   5.607  12.483  0.9145  0.5277  0.8363
14972TIP3    H166407   4.000   5.570  12.474  1.7201 -1.0805 -1.1008
14972TIP3    H266408   4.109   5.596  12.576  0.6914 -3.0755  0.5839
14973TIP3   OH266409   3.673   1.402   2.016 -0.2100 -0.4428 -0.2815
14973TIP3    H166410   3.704   1.447   1.937 -0.2641 -0.8366 -0.5325
14973TIP3    H266411   3.631   1.470   2.068  0.3213 -0.0659 -0.3297
14974TIP3   OH266412   5.828   1.412  15.138  0.4555  0.3673 -0.0781
14974TIP3    H166413   5.911   1.380  15.103  1.6735 -1.5811  3.9895
14974TIP3    H266414   5.844   1.504  15.158  1.5219  0.0999  0.3416
14975TIP3   OH266415   4.673   0.873  15.424 -1.0656 -0.2463  0.1265
14975TIP3    H166416   4.596   0.906  15.470  0.9233  2.9417  1.5517
14975TIP3    H266417   4.730   0.839  15.492 -0.2192 -0.3242 -0.5935
14976TIP3   OH266418   3.054   1.296  14.567  0.0595 -0.0450  0.2368
14976TIP3    H166419   3.137   1.268  14.604  0.0585  0.2363  0.4529
14976TIP3    H266420   3.005   1.330  14.641  0.1093  0.6530 -0.0452
14977TIP3   OH266421   5.919   0.408  12.011  0.0715  0.0255  0.2901
14977TIP3    H166422   5.895   0.424  12.102 -0.0209  1.4097  0.0304
14977TIP3    H266423   5.930   0.495  11.973 -0.2379 -0.5310 -1.1199
14978TIP3   OH266424   3.655   0.201   1.465  0.4210  0.5878 -0.5034
14978TIP3    H166425   3.687   0.118   1.429 -1.9906 -0.7843  0.3103
14978TIP3    H266426   3.601   0.238   1.396  1.5019  1.5562 -0.8688
14979TIP3   OH266427   0.578   6.160   0.128  0.2097  0.0337 -0.1542
14979TIP3    H166428   0.651   6.108   0.093  0.3168  0.1010 -0.0326
14979TIP3    H266429   0.561   6.225   0.060 -0.8578 -1.0250 -0.9456
14980TIP3   OH266430   4.128   6.472   0.853  0.1355  0.0598 -0.1740
14980TIP3    H166431   4.033   6.465   0.848  0.1559 -1.6239  1.0099
14980TIP3    H266432   4.145   6.565   0.868 -1.2168  0.6041 -1.7977
14981TIP3   OH266433   3.257   4.306  14.974  0.2347  0.2877  1.2603
14981TIP3    H166434   3.351   4.323  14.979  0.0884  1.7923 -0.1129
14981TIP3    H266435   3.218   4.393  14.979 -1.1609 -0.3750  2.6925
14982TIP3   OH266436   6.489   5.329   4.665  0.5613  0.2441 -0.1793
14982TIP3    H166437   6.480   5.276   4.745  3.7577 -0.2380 -0.0111
14982TIP3    H266438   6.471   5.418   4.693  1.9015  0.1192  1.2026
14983TIP3   OH266439   1.082   2.391   0.565 -0.1613 -0.3520 -0.1380
14983TIP3    H166440   1.153   2.442   0.605  0.3080 -0.6537 -0.5711
14983TIP3    H266441   1.040   2.452   0.504 -2.1715  0.7551  2.1901
14984TIP3   OH266442   3.311   0.123  12.931 -0.0940  0.2298  0.7938
14984TIP3    H166443   3.274   0.191  12.987 -0.8323 -0.6042  1.3707
14984TIP3    H266444   3.331   0.051  12.992 -0.9587 -0.7162 -0.0023
14985TIP3   OH266445   4.078   0.987  13.646  0.3304  0.3897 -0.0369
14985TIP3    H166446   4.052   1.073  13.677 -0.4504  0.2097 -0.1712
14985TIP3    H266447   4.100   0.938  13.726  0.6560  0.6739  0.0481
14986TIP3   OH266448   6.708   4.857   2.445  0.5021 -0.7163 -0.0438
14986TIP3    H166449   6.725   4.949   2.428 -2.2170  0.3006  1.9295
14986TIP3    H266450   6.613   4.851   2.454  0.5968 -3.6604  0.2141
14987TIP3   OH266451   6.225   5.883   0.362 -0.3728 -0.0575 -0.0983
14987TIP3    H166452   6.253   5.807   0.311  0.0068  0.4135 -0.6139
14987TIP3    H266453   6.288   5.952   0.338 -0.2317  0.1999  0.9579
14988TIP3   OH266454   6.519   5.251  13.343  0.1783  0.1656  0.0893
14988TIP3    H166455   6.455   5.273  13.410 -1.5362  0.4284 -1.5473
14988TIP3    H266456   6.603   5.252  13.389 -1.0771 -1.7289  2.6722
14989TIP3   OH266457   1.222   5.624  16.492 -0.2961  0.2875 -0.5225
14989TIP3    H166458   1.301   5.642  16.544 -0.1120  0.8669 -1.0032
14989TIP3    H266459   1.209   5.529  16.502  0.9575  0.0342 -1.1345
14990TIP3   OH266460   1.369   0.211   4.234 -0.7693  0.0086  0.4203
14990TIP3    H166461   1.323   0.205   4.318 -1.8316 -1.5231 -0.2240
14990TIP3    H266462   1.404   0.123   4.219 -0.6911  0.2217 -0.7841
14991TIP3   OH266463   5.130   2.044   0.802  0.0997  0.8535 -0.2741
14991TIP3    H166464   5.092   2.118   0.848 -0.6438 -0.3632  1.1888
14991TIP3    H266465   5.099   2.051   0.712 -1.6613  1.1999  0.3358
14992TIP3   OH266466   0.608   5.570   2.471  0.1326  0.6692 -0.0213
14992TIP3    H166467   0.626   5.663   2.454  0.4136  0.6248  0.0281
14992TIP3    H266468   0.605   5.530   2.384  0.7217  0.5960 -0.0080
14993TIP3   OH266469   3.619   6.292   3.808  0.3705  0.0198 -0.2804
14993TIP3    H166470   3.637   6.257   3.721 -1.1637 -1.7145  0.0112
14993TIP3    H266471   3.669   6.373   3.813  1.4297 -0.4422 -2.3207
14994TIP3   OH266472   6.003   3.993   3.894  0.5152 -0.9502 -0.2049
14994TIP3    H166473   6.091   3.997   3.933  0.3920  0.4513 -0.0157
14994TIP3    H266474   6.005   4.058   3.824 -0.6536 -0.2014  0.4272
14995TIP3   OH266475   4.760   6.825  15.776  0.1878 -0.8220  0.5171
14995TIP3    H166476   4.854   6.807  15.773  0.1881 -0.7638  0.1554
14995TIP3    H266477   4.742   6.873  15.695 -0.1184 -0.6619  0.6779
14996TIP3   OH266478   0.562   4.189  14.053 -0.1570 -0.1962 -0.0511
14996TIP3    H166479   0.600   4.128  13.990 -1.4002  0.0855 -1.1226
14996TIP3    H266480   0.517   4.134  14.117  1.2420 -0.4919  0.7081
14997TIP3   OH266481   2.547   2.756  15.515  0.3070 -0.1407 -0.2072
14997TIP3    H166482   2.495   2.760  15.596  1.2859 -1.5527  0.5384
14997TIP3    H266483   2.498   2.698  15.457  0.2406 -0.1760 -0.1157
14998TIP3   OH266484   5.294   6.727  13.078 -0.3404  0.7636 -0.1386
14998TIP3    H166485   5.247   6.805  13.052  0.2618  0.6370 -1.7175
14998TIP3    H266486   5.377   6.732  13.031  0.8215  0.4731  1.7664
14999TIP3   OH266487   4.398   0.042  14.543  0.2108  0.0635 -0.1598
14999TIP3    H166488   4.473   0.033  14.603  0.2175 -0.4656 -0.2447
14999TIP3    H266489   4.437   0.066  14.459  0.1693  1.2666  0.1440
15000TIP3   OH266490   0.904   1.516  16.539 -0.1722  0.2034 -0.5176
15000TIP3    H166491   0.963   1.503  16.613 -0.1213  0.7483 -0.4535
15000TIP3    H266492   0.828   1.560  16.577 -0.5442 -0.3337 -0.6315
15001TIP3   OH266493   6.171   5.624   1.586 -0.0760  0.2024 -0.1856
15001TIP3    H166494   6.115   5.677   1.529 -2.2051 -0.0770  1.5484
15001TIP3    H266495   6.171   5.670   1.669  0.2053 -1.1471  0.5892
15002TIP3   OH266496   1.612   4.372  13.786 -0.0551 -0.1702  0.3867
15002TIP3    H166497   1.582   4.365  13.877  0.5272  0.6783  0.6569
15002TIP3    H266498   1.531   4.384  13.736 -0.3406 -0.0686  0.8604
15003TIP3   OH266499   5.801   6.037   3.416 -0.2969  0.5135 -0.2848
15003TIP3    H166500   5.873   6.090   3.382  0.0250  0.5158  0.3782
15003TIP3    H266501   5.821   6.025   3.509 -0.7833 -0.0939 -0.2458
15004TIP3   OH266502   4.142   6.115  12.297  0.0761 -0.8721  0.7189
15004TIP3    H166503   4.157   6.021  12.299  0.5259 -0.7985  1.8844
15004TIP3    H266504   4.214   6.152  12.349 -0.6933  0.0134  1.1999
15005TIP3   OH266505   6.249   3.315  14.544 -0.3496 -0.0213  0.3263
15005TIP3    H166506   6.227   3.313  14.450 -1.5512 -0.2890  0.5913
15005TIP3    H266507   6.268   3.407  14.562 -0.4461  0.0880 -0.1055
15006TIP3   OH266508   4.427   6.162   0.841 -0.0165  0.6973  0.2751
15006TIP3    H166509   4.506   6.156   0.896 -0.2816  1.4056  0.7421
15006TIP3    H266510   4.393   6.073   0.839 -0.3296  0.7563  1.7725
15007TIP3   OH266511   5.043   6.484  12.217 -0.3960 -0.5397 -0.1162
15007TIP3    H166512   5.004   6.397  12.215 -0.8678 -0.3182 -0.7499
15007TIP3    H266513   4.968   6.544  12.222 -0.0504 -0.1981  1.4606
15008TIP3   OH266514   5.411   2.821  15.534  0.3187  0.1751  0.4123
15008TIP3    H166515   5.447   2.894  15.484  0.1387  0.2465  0.3880
15008TIP3    H266516   5.487   2.766  15.554  0.3378 -0.0318 -0.2263
15009TIP3   OH266517   2.360   3.549  12.911  0.2135  0.3425 -0.3510
15009TIP3    H166518   2.394   3.634  12.939  2.0452 -0.2274 -0.6685
15009TIP3    H266519   2.333   3.563  12.820 -1.5833  1.1026  0.2730
15010TIP3   OH266520   0.181   5.346   3.829 -0.6281  0.5080 -0.5133
15010TIP3    H166521   0.203   5.360   3.921 -0.2491 -0.9212 -0.3608
15010TIP3    H266522   0.244   5.280   3.800 -1.1820  0.4530 -1.6255
15011TIP3   OH266523   5.569   4.856   1.180  0.2591  0.6515 -0.7763
15011TIP3    H166524   5.527   4.924   1.127 -1.8027 -0.6532 -0.9499
15011TIP3    H266525   5.565   4.889   1.270 -1.4995  0.4415 -0.7488
15012TIP3   OH266526   5.212   2.847  15.153 -0.0844  0.2497 -0.3418
15012TIP3    H166527   5.152   2.862  15.080 -1.4204 -1.4985  0.3335
15012TIP3    H266528   5.155   2.828  15.227  1.3009 -0.5553  0.5560
15013TIP3   OH266529   4.566   4.455  12.456  0.2196  0.5085 -0.4699
15013TIP3    H166530   4.601   4.430  12.371  2.8415  1.0497  0.3441
15013TIP3    H266531   4.603   4.542  12.473 -1.3663  1.0103  0.6436
15014TIP3   OH266532   4.536   0.354  15.583  0.4631 -0.2207  0.0040
15014TIP3    H166533   4.614   0.300  15.570  0.5505 -0.2242  0.5429
15014TIP3    H266534   4.480   0.332  15.509  1.4991  0.7301 -1.1137
15015TIP3   OH266535   4.519   4.421  10.429 -0.6181 -0.1636 -0.4920
15015TIP3    H166536   4.474   4.503  10.445  0.5405  0.1570  1.5321
15015TIP3    H266537   4.565   4.434  10.346  0.0935  1.5156  0.1317
15016TIP3   OH266538   4.197   3.964  14.467  0.2445 -0.3146 -0.3029
15016TIP3    H166539   4.160   3.966  14.556  1.5950 -0.8452  0.2965
15016TIP3    H266540   4.137   3.908  14.418 -1.1516  0.8928 -0.0566
15017TIP3   OH266541   1.202   5.330  16.162 -0.0752  0.1173 -0.6912
15017TIP3    H166542   1.229   5.418  16.186 -0.3586  0.0886 -0.2550
15017TIP3    H266543   1.108   5.327  16.183 -0.5033  0.2929 -2.3958
15018TIP3   OH266544   5.364   5.330   1.745  0.2137  0.3728 -0.9656
15018TIP3    H166545   5.329   5.362   1.828 -0.8170 -1.4362 -0.6493
15018TIP3    H266546   5.458   5.324   1.758  0.0221 -0.2179  0.2051
15019TIP3   OH266547   0.475   6.405  10.508 -0.4988 -0.0633  0.0760
15019TIP3    H166548   0.386   6.383  10.483 -0.1252 -1.9314  0.2452
15019TIP3    H266549   0.508   6.327  10.553  0.7997  1.0497  1.1597
15020TIP3   OH266550   0.264   4.030  15.859  0.0391  0.4126  0.6312
15020TIP3    H166551   0.353   4.063  15.850  0.2623  0.2890  2.2290
15020TIP3    H266552   0.264   3.982  15.941 -1.4154  0.0994  0.4768
15021TIP3   OH266553   3.441   5.300  13.982  0.3741 -0.1761  0.1370
15021TIP3    H166554   3.499   5.260  14.046  1.0493 -2.2931 -1.6517
15021TIP3    H266555   3.381   5.353  14.033  1.3164 -1.1904  2.4171
15022TIP3   OH266556   4.250   0.308  15.701  0.1558 -0.0177 -0.3379
15022TIP3    H166557   4.324   0.247  15.696  1.0904  1.0778 -0.1830
15022TIP3    H266558   4.257   0.361  15.621 -0.0303  0.5704  0.0320
15023TIP3   OH266559   1.402   4.592   1.897  0.4173 -0.0318  1.1412
15023TIP3    H166560   1.326   4.544   1.865  0.2215 -0.6145  2.4102
15023TIP3    H266561   1.365   4.663   1.949  0.6211  2.8156 -2.2363
15024TIP3   OH266562   3.146   0.683   4.516 -0.4427  0.2112  0.3190
15024TIP3    H166563   3.148   0.776   4.542 -0.3466  0.5788 -0.9626
15024TIP3    H266564   3.119   0.684   4.425 -0.1584 -1.0142  0.2089
15025TIP3   OH266565   1.923   4.081  16.166  0.4000  0.2495 -0.5420
15025TIP3    H166566   1.863   4.013  16.195 -0.2203  0.6989 -0.7526
15025TIP3    H266567   1.923   4.074  16.071 -1.1041  1.7215 -0.6904
15026TIP3   OH266568   2.100   4.060  12.645  0.3934  0.4828 -0.3299
15026TIP3    H166569   2.169   3.994  12.649 -1.1995 -1.1933  2.1011
15026TIP3    H266570   2.046   4.034  12.570  1.6233  1.0838 -1.4702
15027TIP3   OH266571   5.373   1.612   0.981 -0.2088  0.2690 -0.4673
15027TIP3    H166572   5.309   1.561   0.931 -0.7756 -1.4205  1.8361
15027TIP3    H266573   5.336   1.617   1.069  1.8842  1.0227  0.4211
15028TIP3   OH266574   1.424   4.908   4.357 -0.3542  0.0298  0.1323
15028TIP3    H166575   1.369   4.844   4.312 -0.4396 -2.2448  3.1400
15028TIP3    H266576   1.512   4.868   4.355 -0.1920  0.3178  1.1331
15029TIP3   OH266577   3.890   2.630   1.805 -0.3012  0.0910 -0.1267
15029TIP3    H166578   3.836   2.555   1.777  1.4869 -1.1748 -0.3756
15029TIP3    H266579   3.920   2.669   1.723  1.3930 -0.9639 -0.0783
15030TIP3   OH266580   1.462   4.510   0.479 -0.0493  0.1406 -0.0800
15030TIP3    H166581   1.442   4.486   0.570  2.0339 -1.3179  0.0632
15030TIP3    H266582   1.398   4.463   0.427 -1.4857  1.2566  0.6043
15031TIP3   OH266583   4.481   3.632   6.263 -0.0394  0.7261 -0.1316
15031TIP3    H166584   4.474   3.547   6.306 -0.5001  0.3897 -0.8630
15031TIP3    H266585   4.400   3.677   6.285 -0.6335  0.2487 -1.2798
15032TIP3   OH266586   3.906   6.790  13.545 -0.1438  0.0620 -0.2074
15032TIP3    H166587   3.957   6.768  13.467 -0.1189  1.4430 -0.6022
15032TIP3    H266588   3.815   6.785  13.516 -0.1805 -0.5398 -0.0063
15033TIP3   OH266589   3.820   4.547   1.638 -0.3909  0.1140 -0.1430
15033TIP3    H166590   3.891   4.486   1.659 -1.4652 -0.9885  0.3649
15033TIP3    H266591   3.845   4.583   1.552 -0.2692 -1.8727 -0.9848
15034TIP3   OH266592   5.591   3.940   2.088 -0.0347 -0.6474  0.3161
15034TIP3    H166593   5.638   3.865   2.124 -0.2043 -0.3206  1.2429
15034TIP3    H266594   5.659   4.003   2.065  0.1187 -1.1197 -0.5918
15035TIP3   OH266595   2.623   4.696  13.311 -0.2125 -0.2858  0.4907
15035TIP3    H166596   2.621   4.658  13.224  0.2766  1.3549 -0.2634
15035TIP3    H266597   2.706   4.665  13.349  0.4997  0.5179 -0.3597
15036TIP3   OH266598   0.020   1.131   2.027 -0.1068  0.0101 -0.2730
15036TIP3    H166599   0.041   1.050   1.980 -3.1349 -1.5795  0.8411
15036TIP3    H266600   0.036   1.110   2.119 -2.6956 -0.0866  0.2327
15037TIP3   OH266601   0.403   4.157  11.530  0.2299  0.4283  0.2145
15037TIP3    H166602   0.390   4.065  11.508 -1.6886  0.3411  1.4687
15037TIP3    H266603   0.412   4.158  11.625 -1.7966  1.6574  0.4699
15038TIP3   OH266604   5.918   0.727   1.152  0.1752  0.1391  0.0615
15038TIP3    H166605   5.888   0.782   1.225 -1.2345  0.8864 -1.0203
15038TIP3    H266606   5.840   0.716   1.097  0.7368 -1.9166 -0.4289
15039TIP3   OH266607   6.134   2.255  14.672  0.0259  0.6463 -0.4516
15039TIP3    H166608   6.111   2.323  14.735 -1.4855 -1.2054  1.1008
15039TIP3    H266609   6.174   2.186  14.724 -1.3348 -0.9751 -1.4311
15040TIP3   OH266610   1.357   2.843  14.258 -0.0489  0.3470  0.5616
15040TIP3    H166611   1.353   2.765  14.203  0.3119 -0.7080  1.9627
15040TIP3    H266612   1.443   2.840  14.298  1.3424  3.2925 -1.8197
15041TIP3   OH266613   2.717   2.381   2.494  0.1164  0.1993  0.2481
15041TIP3    H166614   2.760   2.372   2.579  0.1542 -0.6213  0.1478
15041TIP3    H266615   2.788   2.405   2.434  0.1927  0.1952  0.3357
15042TIP3   OH266616   1.816   1.893  17.145 -0.2324 -0.3718  0.3160
15042TIP3    H166617   1.900   1.915  17.104 -0.5304 -1.2746 -0.8650
15042TIP3    H266618   1.813   1.946  17.224  0.5937  1.1162 -0.6046
15043TIP3   OH266619   2.960   6.032   5.009  0.1837  0.1838  0.3110
15043TIP3    H166620   2.955   6.120   5.047  1.2359  1.3420 -2.0029
15043TIP3    H266621   3.051   6.022   4.984 -0.2976 -0.7492 -1.2216
15044TIP3   OH266622   4.927   1.295   1.962 -0.3882  0.9294 -0.2502
15044TIP3    H166623   4.921   1.339   1.878 -2.2866 -1.2489 -1.3883
15044TIP3    H266624   5.021   1.283   1.977 -0.0209  0.8502 -2.3732
15045TIP3   OH266625   4.708   3.309  15.211  0.6792  0.1550 -0.6908
15045TIP3    H166626   4.720   3.245  15.142  1.2612  0.8330 -1.2380
15045TIP3    H266627   4.620   3.294  15.244  1.3404 -1.9687  0.2893
15046TIP3   OH266628   5.844   6.072   1.162 -0.3374 -0.3213  0.0406
15046TIP3    H166629   5.829   6.080   1.256 -0.1276  1.4624 -0.0371
15046TIP3    H266630   5.795   6.145   1.124 -0.1817 -0.8511 -1.2008
15047TIP3   OH266631   4.512   5.434  13.994 -0.1051  0.2259 -0.2651
15047TIP3    H166632   4.474   5.426  13.906 -0.1351  0.9264 -0.3228
15047TIP3    H266633   4.586   5.373  13.993  1.1584  1.6423 -1.5082
15048TIP3   OH266634   1.453   1.170   5.295 -0.3870 -0.0100  0.2761
15048TIP3    H166635   1.358   1.164   5.288 -0.3295 -3.0973  0.7085
15048TIP3    H266636   1.477   1.100   5.356  2.2667 -0.2204 -0.8736
15049TIP3   OH266637   4.116   3.945   2.843  0.1191  0.6765  0.1659
15049TIP3    H166638   4.202   3.986   2.854  0.6764  0.1244 -1.6857
15049TIP3    H266639   4.111   3.881   2.914  1.5380  0.2634 -0.0551
15050TIP3   OH266640   5.847   1.752   2.565  0.3536  0.0426 -0.2626
15050TIP3    H166641   5.922   1.779   2.618  2.4875 -2.3982 -1.7936
15050TIP3    H266642   5.784   1.824   2.574  2.0686  1.3686  2.5760
15051TIP3   OH266643   2.386   5.123  16.071  0.0783 -0.0253  0.6061
15051TIP3    H166644   2.383   5.094  16.162  2.7668  0.8958  1.0720
15051TIP3    H266645   2.375   5.218  16.076 -2.6808 -0.1966 -0.3677
15052TIP3   OH266646   4.740   0.591  16.359 -0.2349 -0.5688  0.0786
15052TIP3    H166647   4.755   0.672  16.408 -1.3857 -0.1884 -0.1587
15052TIP3    H266648   4.723   0.525  16.427  1.1435 -0.7332  0.2931
15053TIP3   OH266649   5.668   6.291   2.923 -0.2959 -0.0122 -0.6658
15053TIP3    H166650   5.574   6.279   2.911 -0.2916  0.8257 -1.6829
15053TIP3    H266651   5.675   6.369   2.977 -0.1852 -0.5386  0.0995
15054TIP3   OH266652   3.753   4.143  11.314 -0.2018  0.0109 -0.1349
15054TIP3    H166653   3.772   4.125  11.406 -1.1857  0.3238  0.1418
15054TIP3    H266654   3.671   4.191  11.315  0.3223  0.9686 -1.1185
15055TIP3   OH266655   1.389   4.654   0.196 -0.1009 -0.2002  0.1876
15055TIP3    H166656   1.413   4.747   0.201  0.1221 -0.3167  3.7817
15055TIP3    H266657   1.306   4.654   0.149  0.5130  1.6534 -1.0331
15056TIP3   OH266658   3.820   5.391  12.200 -0.1044  0.6734 -0.0863
15056TIP3    H166659   3.914   5.376  12.187 -0.3390 -0.5050 -0.4808
15056TIP3    H266660   3.792   5.436  12.120 -0.2765 -0.8908 -0.9509
15057TIP3   OH266661   4.402   6.719  13.984  0.0595  0.6299  0.2912
15057TIP3    H166662   4.371   6.633  13.956  0.5013  0.4254  0.4210
15057TIP3    H266663   4.421   6.765  13.902  0.2726  0.4330  0.2272
15058TIP3   OH266664   5.316   0.926   2.820  0.1404  0.6266 -0.1859
15058TIP3    H166665   5.327   0.996   2.756 -1.8005 -0.0745 -1.3597
15058TIP3    H266666   5.322   0.845   2.769 -0.0325 -0.0018  0.7513
15059TIP3   OH266667   5.389   1.377   5.844  0.7019 -0.0874  0.0733
15059TIP3    H166668   5.359   1.299   5.890 -0.0844  0.2362  0.1244
15059TIP3    H266669   5.309   1.419   5.813  1.0017  1.4224  1.2247
15060TIP3   OH266670   3.950   2.164  13.398  0.2586  0.1835  0.2624
15060TIP3    H166671   3.858   2.147  13.377  0.1390 -0.0646  0.9753
15060TIP3    H266672   3.960   2.136  13.489  0.4519  2.3991  0.9778
15061TIP3   OH266673   1.460   1.594   0.029 -0.5050 -0.1188 -0.2900
15061TIP3    H166674   1.410   1.540  -0.032 -0.4575 -0.0390 -0.3984
15061TIP3    H266675   1.404   1.670   0.046 -0.9347 -0.5966  0.5086
15062TIP3   OH266676   1.549   3.325  10.617 -0.3750  0.1491 -0.3617
15062TIP3    H166677   1.614   3.392  10.634 -1.1100  1.1200 -1.2412
15062TIP3    H266678   1.593   3.242  10.637  0.3250  0.9104  1.4020
15063TIP3   OH266679   2.470   2.742   6.189  0.1836  0.0769  0.2966
15063TIP3    H166680   2.528   2.818   6.193  2.1864 -1.3109 -0.6304
15063TIP3    H266681   2.473   2.705   6.278  0.0982  0.4354  0.4517
15064TIP3   OH266682   0.974   1.646   5.462 -0.4367  0.2126 -0.6680
15064TIP3    H166683   0.979   1.556   5.495  0.2967  0.9210  1.3193
15064TIP3    H266684   1.061   1.682   5.478 -1.6840  2.3667  2.1797
15065TIP3   OH266685   1.482   4.804  10.661 -0.3350  0.1735 -0.2292
15065TIP3    H166686   1.420   4.737  10.630 -0.7507  0.1768  0.5735
15065TIP3    H266687   1.565   4.781  10.620 -0.7749 -0.0634 -1.0102
15066TIP3   OH266688   6.378   1.733   1.353  0.4779  0.0603 -0.2415
15066TIP3    H166689   6.465   1.712   1.385  0.7145 -0.4355 -1.1759
15066TIP3    H266690   6.385   1.727   1.258 -1.0266 -1.7607 -0.2840
15067TIP3   OH266691   3.545   4.592   3.804  0.1790 -0.2587  0.1869
15067TIP3    H166692   3.454   4.573   3.780  0.3276 -0.8869  0.1135
15067TIP3    H266693   3.542   4.680   3.841 -0.3679 -0.0424 -0.3521
15068TIP3   OH266694   6.012   3.217  14.581  0.6346 -0.4453  0.2008
15068TIP3    H166695   6.105   3.238  14.567  0.5886 -0.9251 -0.9340
15068TIP3    H266696   5.996   3.242  14.672  2.4643 -2.4337  1.1608
15069TIP3   OH266697   6.466   2.283   0.075 -0.3889 -0.1872 -0.1139
15069TIP3    H166698   6.386   2.232   0.092 -0.2725 -0.4930 -0.4647
15069TIP3    H266699   6.512   2.232   0.009 -0.5917  0.7260 -0.9707
15070TIP3   OH266700   0.675   5.842  12.430  0.0933  0.1018  0.0202
15070TIP3    H166701   0.684   5.938  12.430 -1.3705  0.2748 -0.8606
15070TIP3    H266702   0.609   5.825  12.362  1.9728 -1.7094 -1.4499
15071TIP3   OH266703   0.560   4.945   2.487  0.6296  0.0484  0.4808
15071TIP3    H166704   0.588   4.975   2.400 -1.9821  1.0839 -0.0977
15071TIP3    H266705   0.504   4.869   2.468 -0.1324  0.4156  1.2380
15072TIP3   OH266706   0.209   3.039   3.806 -0.1852  0.4288 -0.2983
15072TIP3    H166707   0.178   3.055   3.895 -0.9553 -0.4488 -0.3910
15072TIP3    H266708   0.172   3.110   3.754  0.3163  0.9784  0.0741
15073TIP3   OH266709   1.788   4.388  13.574  0.0041 -0.2750 -0.1196
15073TIP3    H166710   1.777   4.457  13.508  0.9847 -0.0721 -0.0924
15073TIP3    H266711   1.713   4.400  13.633 -1.1316 -0.7334 -1.4120
15074TIP3   OH266712   2.202   1.664   5.880 -0.0179  0.2277  0.3307
15074TIP3    H166713   2.189   1.570   5.898 -0.3104  0.4829  1.5307
15074TIP3    H266714   2.199   1.670   5.785  0.3144 -1.0323  0.2113
15075TIP3   OH266715   0.299   0.981  13.784 -0.0056 -0.3604  0.1029
15075TIP3    H166716   0.276   0.897  13.824 -0.9774 -0.2556 -0.2110
15075TIP3    H266717   0.357   1.022  13.848 -0.2922 -0.8643  0.7041
15076TIP3   OH266718   2.565   6.009   1.357 -0.1489  0.4152 -0.0316
15076TIP3    H166719   2.559   6.104   1.371 -1.6806  0.4410 -0.7021
15076TIP3    H266720   2.589   5.974   1.443 -0.2947  1.3443  0.4026
15077TIP3   OH266721   2.712   3.792  16.044 -0.1204 -0.1086  0.1200
15077TIP3    H166722   2.753   3.876  16.022 -0.6168 -0.0293 -0.5307
15077TIP3    H266723   2.696   3.797  16.138  0.6191  0.1885  0.2314
15078TIP3   OH266724   1.895   0.607   0.831 -0.3737  0.9170 -0.1505
15078TIP3    H166725   1.885   0.702   0.840  1.1121  0.9654  1.6052
15078TIP3    H266726   1.806   0.573   0.837 -0.8293  2.1164  0.2858
15079TIP3   OH266727   5.816   3.154   4.213  0.2203  0.2061 -0.1939
15079TIP3    H166728   5.800   3.212   4.138 -0.7107 -1.2076 -1.1382
15079TIP3    H266729   5.799   3.210   4.289 -0.4149  1.2545 -1.0577
15080TIP3   OH266730   3.411   4.067   5.911 -0.4299 -0.0400  0.2644
15080TIP3    H166731   3.412   4.150   5.959 -0.2810  0.4743 -0.6096
15080TIP3    H266732   3.318   4.046   5.903 -0.4635 -0.0309  0.6014
15081TIP3   OH266733   3.603   3.038  14.866 -0.4490 -0.1544 -0.1084
15081TIP3    H166734   3.653   3.079  14.796  0.2112  0.8470  0.9119
15081TIP3    H266735   3.613   2.944  14.852 -1.9814 -0.0378 -2.4898
15082TIP3   OH266736   5.206   5.673  10.976  0.5955  0.2108  0.1815
15082TIP3    H166737   5.291   5.684  10.932 -0.0422  0.8801 -0.9085
15082TIP3    H266738   5.148   5.637  10.909 -0.4853  1.5577  0.3568
15083TIP3   OH266739   4.070   3.617   3.598  0.1935  0.1672  0.4734
15083TIP3    H166740   4.117   3.679   3.543  0.4729 -1.5078 -1.2844
15083TIP3    H266741   4.125   3.539   3.600 -1.5852 -1.1729 -0.0683
15084TIP3   OH266742   2.583   4.549  12.205  0.4416 -0.2841  0.2282
15084TIP3    H166743   2.497   4.568  12.167  0.4682 -0.4228  0.0949
15084TIP3    H266744   2.636   4.522  12.130 -0.0057 -2.3317  0.5900
15085TIP3   OH266745   0.184   4.115  17.205 -0.1288 -0.1636 -0.7328
15085TIP3    H166746   0.186   4.162  17.121 -1.2450  1.6233  0.1854
15085TIP3    H266747   0.143   4.177  17.266 -2.5368 -2.6638  0.3709
15086TIP3   OH266748   4.536   6.245   2.913 -0.4244 -0.1985  0.0248
15086TIP3    H166749   4.507   6.232   2.823  1.2117 -0.3284 -0.5272
15086TIP3    H266750   4.504   6.169   2.961 -0.3648 -0.6930 -0.7095
15087TIP3   OH266751   2.227   6.405   0.140  0.2104 -0.1126 -0.1763
15087TIP3    H166752   2.224   6.373   0.050 -0.5283  0.8472 -0.5139
15087TIP3    H266753   2.175   6.342   0.190  0.6377 -0.6599 -0.4184
15088TIP3   OH266754   6.602   1.070  10.844 -0.3917  0.1632 -0.3850
15088TIP3    H166755   6.669   1.036  10.785 -0.1144 -0.8233  0.4616
15088TIP3    H266756   6.520   1.034  10.811 -0.4622  0.9458 -1.1118
15089TIP3   OH266757   3.825   3.414  15.230  0.3189 -0.0046 -0.3997
15089TIP3    H166758   3.847   3.489  15.286  1.0955 -0.8037  0.4023
15089TIP3    H266759   3.874   3.430  15.149 -1.8204  1.8260 -1.4685
15090TIP3   OH266760   2.532   3.402  15.928  0.3042 -0.4877 -0.2572
15090TIP3    H166761   2.567   3.321  15.966  1.2584  0.2830  0.5761
15090TIP3    H266762   2.610   3.454  15.907 -0.2503 -0.3482 -2.0910
15091TIP3   OH266763   0.622   0.690   2.845 -0.1369  0.0966 -0.3072
15091TIP3    H166764   0.681   0.623   2.879 -0.4604 -0.1481 -0.2177
15091TIP3    H266765   0.570   0.644   2.779  0.1592  0.4489 -0.7857
15092TIP3   OH266766   1.824   5.421   2.949  0.1584 -0.4373  0.1470
15092TIP3    H166767   1.830   5.481   3.024  0.2780 -1.5535  1.0654
15092TIP3    H266768   1.895   5.358   2.964  0.1676 -0.6941 -0.9074
15093TIP3   OH266769   3.935   2.266  16.220 -0.8015  0.5735  0.0653
15093TIP3    H166770   3.928   2.225  16.307 -0.0080  0.5827  0.1484
15093TIP3    H266771   4.029   2.265  16.202 -0.8221  1.8164 -0.1967
15094TIP3   OH266772   6.455   6.605  12.650 -0.4054 -0.1801 -0.2462
15094TIP3    H166773   6.368   6.565  12.656 -1.0348  0.8749 -1.6343
15094TIP3    H266774   6.465   6.652  12.732 -0.7463 -1.0740  0.3202
15095TIP3   OH266775   0.139   1.765  17.222 -0.3886  0.0655  0.0826
15095TIP3    H166776   0.225   1.797  17.194  0.4292 -1.4549  0.7568
15095TIP3    H266777   0.123   1.688  17.168 -1.4944  0.5111 -0.2496
15096TIP3   OH266778   4.742   6.038   4.093  0.4630  0.0234 -0.2153
15096TIP3    H166779   4.672   6.098   4.067 -1.0952 -1.7386 -0.3663
15096TIP3    H266780   4.716   6.007   4.180  2.2425  0.9609  0.7040
15097TIP3   OH266781   5.809   3.470   6.166  0.5513  0.4241 -0.2131
15097TIP3    H166782   5.787   3.550   6.212 -1.8828 -0.4434  0.2764
15097TIP3    H266783   5.903   3.460   6.178  0.8029  2.8455  0.2319
15098TIP3   OH266784   3.312   1.965  11.847 -0.2764  0.4403 -0.4365
15098TIP3    H166785   3.244   1.955  11.914 -1.4769 -1.5138 -1.8125
15098TIP3    H266786   3.267   2.006  11.773  1.0482  2.6520 -0.0916
15099TIP3   OH266787   2.361   6.085  16.763  0.1562  0.0281  0.2288
15099TIP3    H166788   2.271   6.111  16.780  0.2766  2.6480 -2.3937
15099TIP3    H266789   2.359   6.047  16.676  1.5410 -0.1313  0.2401
15100TIP3   OH266790   1.494   5.942  13.329 -0.7561  0.4614  0.5696
15100TIP3    H166791   1.469   5.895  13.249  0.5155  0.5355  0.1196
15100TIP3    H266792   1.544   6.017  13.299 -2.6208  2.0870  1.2974
15101TIP3   OH266793   2.558   1.719  12.035 -0.1824  0.3804  0.7940
15101TIP3    H166794   2.577   1.791  12.095  0.4689  1.7958 -0.9798
15101TIP3    H266795   2.627   1.725  11.968 -0.6682 -1.3123  0.0844
15102TIP3   OH266796   3.972   1.202   3.241  0.1594 -1.0768 -0.2177
15102TIP3    H166797   4.015   1.215   3.325  0.2740  0.0348 -0.4380
15102TIP3    H266798   3.920   1.281   3.227 -0.8199 -1.7686 -0.6337
15103TIP3   OH266799   4.853   5.906   5.776  0.4983 -0.8219 -0.0144
15103TIP3    H166800   4.852   5.970   5.848  0.8873 -1.2637  0.3899
15103TIP3    H266801   4.946   5.890   5.760  0.4759  0.4975 -1.7409
15104TIP3   OH266802   0.269   3.198  13.254 -0.4569 -0.5885 -0.2503
15104TIP3    H166803   0.244   3.226  13.166  2.8380  0.9565 -0.8098
15104TIP3    H266804   0.201   3.235  13.311 -1.6919 -0.1299 -1.9454
15105TIP3   OH266805   5.301   5.690   4.041  0.3376  0.4437  0.2711
15105TIP3    H166806   5.237   5.621   4.057 -0.7319  1.6144  1.1794
15105TIP3    H266807   5.299   5.702   3.946  0.4704 -0.6845  0.1103
15106TIP3   OH266808   3.925   1.281   4.719 -0.1993 -0.2882  0.3090
15106TIP3    H166809   3.938   1.234   4.801 -1.2152  0.9994  1.2386
15106TIP3    H266810   4.011   1.279   4.677  0.4866 -0.4668  1.6715
15107TIP3   OH266811   2.249   2.242  12.075 -0.1572  0.4727  0.5370
15107TIP3    H166812   2.247   2.288  11.991 -1.6318  1.9033  1.3200
15107TIP3    H266813   2.340   2.212  12.083 -0.6100 -2.7008 -3.0684
15108TIP3   OH266814   2.528   0.560  15.860 -0.8477  0.5604 -0.1520
15108TIP3    H166815   2.557   0.651  15.864 -0.1647  0.2955  1.5037
15108TIP3    H266816   2.497   0.540  15.948 -1.3298 -0.7183 -0.5787
15109TIP3   OH266817   6.206   4.360   2.390  0.3683 -0.0640 -0.4967
15109TIP3    H166818   6.202   4.341   2.297  0.7130  1.0986 -0.7581
15109TIP3    H266819   6.150   4.293   2.430 -3.4880  2.0146 -1.9438
15110TIP3   OH266820   0.718   6.758   1.256  0.3914 -0.3631 -0.5777
15110TIP3    H166821   0.662   6.699   1.206  0.5204 -0.4407 -0.6340
15110TIP3    H266822   0.806   6.743   1.220  0.3478  0.2190 -0.9225
15111TIP3   OH266823   5.513   0.289  12.879  0.2644  0.0813 -0.1504
15111TIP3    H166824   5.426   0.312  12.911  1.0040  1.8013  0.7415
15111TIP3    H266825   5.565   0.273  12.958  1.2554  1.0424 -0.5742
15112TIP3   OH266826   2.943   0.141  16.156  0.7198  0.0353  0.7103
15112TIP3    H166827   2.921   0.084  16.082  0.9676  1.4781 -0.5234
15112TIP3    H266828   2.941   0.083  16.232  1.2603 -1.6755 -0.5216
15113TIP3   OH266829   3.926   6.187   0.579  0.0132  0.5893  0.0553
15113TIP3    H166830   3.907   6.275   0.546  1.2515  0.4974 -0.9998
15113TIP3    H266831   4.020   6.189   0.597 -0.0433 -0.3759  0.4633
15114TIP3   OH266832   2.086   0.918   3.122  0.3098  0.2487  0.2586
15114TIP3    H166833   2.177   0.894   3.102  0.6223 -0.0445  1.8748
15114TIP3    H266834   2.082   1.012   3.101  1.2829  0.4902  1.0138
15115TIP3   OH266835   0.227   0.399   3.324  0.3188 -0.5521  0.1630
15115TIP3    H166836   0.142   0.377   3.287  0.8578  0.1159 -1.5675
15115TIP3    H266837   0.243   0.332   3.390 -0.7818 -1.6935 -0.6914
15116TIP3   OH266838   3.843   1.600   1.877  0.5316  0.0933 -0.0191
15116TIP3    H166839   3.938   1.595   1.874  0.5183  0.2538 -1.7661
15116TIP3    H266840   3.821   1.672   1.818 -0.6195  1.2176  1.6719
15117TIP3   OH266841   4.656   0.231   0.891  0.0012 -0.2172  0.4200
15117TIP3    H166842   4.735   0.180   0.909  0.4437 -0.3114 -1.5772
15117TIP3    H266843   4.680   0.321   0.914  1.1043 -0.0612 -1.1940
15118TIP3   OH266844   6.368   6.093  15.651  0.4343 -0.1305 -0.0065
15118TIP3    H166845   6.452   6.059  15.620  0.4812 -0.9613  0.9577
15118TIP3    H266846   6.316   6.014  15.670 -0.7044  0.3721 -0.9469
15119TIP3   OH266847   5.477   3.520  15.325 -0.4182  0.0772 -0.2469
15119TIP3    H166848   5.492   3.488  15.414  3.7871  1.0922 -0.3989
15119TIP3    H266849   5.490   3.615  15.331  0.5636  0.0950 -1.9957
15120TIP3   OH266850   5.493   3.516  13.012  0.0776  0.3292 -0.2064
15120TIP3    H166851   5.465   3.513  12.920 -0.8620  0.2362  0.0656
15120TIP3    H266852   5.426   3.466  13.058  1.8485 -1.7560  0.2378
15121TIP3   OH266853   1.614   3.009  14.029 -0.3717 -0.0098  0.6427
15121TIP3    H166854   1.568   2.966  14.101  1.5177 -1.8006  0.8448
15121TIP3    H266855   1.575   2.972  13.950 -1.0879  0.5059  0.7363
15122TIP3   OH266856   4.675   5.637   4.977  0.5119 -0.5720  0.0420
15122TIP3    H166857   4.733   5.656   4.903 -0.9350  0.8302 -0.7871
15122TIP3    H266858   4.729   5.655   5.055  0.9793  1.5395 -0.6906
15123TIP3   OH266859   4.984   1.914  15.448  0.2065 -0.3298  0.1979
15123TIP3    H166860   5.026   1.929  15.533 -1.0529  1.0751  0.6323
15123TIP3    H266861   5.036   1.845  15.407  1.1083 -0.7447  1.9260
15124TIP3   OH266862   5.823   4.159   3.686  0.3789 -0.0386  0.1823
15124TIP3    H166863   5.862   4.156   3.599 -0.1850  0.9400 -0.1297
15124TIP3    H266864   5.841   4.248   3.717 -1.4729  0.4296  0.0543
15125TIP3   OH266865   6.506   3.891   4.870  0.3805  0.1540 -0.1948
15125TIP3    H166866   6.571   3.874   4.802 -1.5434  0.2385 -2.1926
15125TIP3    H266867   6.511   3.817   4.929  0.7715 -0.9710 -1.5966
15126TIP3   OH266868   4.601   5.614   3.789  0.1535 -0.0737 -0.2230
15126TIP3    H166869   4.537   5.685   3.794 -0.3949 -0.5121 -0.7352
15126TIP3    H266870   4.551   5.540   3.753  0.4585 -1.0050  1.1835
15127TIP3   OH266871   4.402   4.541   4.541  0.2636 -0.1896 -0.4705
15127TIP3    H166872   4.395   4.583   4.456  1.6888 -1.3244 -1.1913
15127TIP3    H266873   4.397   4.447   4.522  0.9087 -0.4698  0.6429
15128TIP3   OH266874   4.936   4.556  14.395  0.0003 -0.0738  0.0026
15128TIP3    H166875   4.920   4.465  14.422  1.6182 -0.1463  0.8054
15128TIP3    H266876   4.981   4.548  14.311 -0.6286  0.0226 -0.3487
15129TIP3   OH266877   2.734   1.740  11.831  0.3676 -0.1337 -0.1250
15129TIP3    H166878   2.742   1.828  11.868 -1.5958 -0.4245  1.1495
15129TIP3    H266879   2.734   1.754  11.736  1.8712  1.0283  0.0168
15130TIP3   OH266880   1.337   1.361   1.460 -0.0924 -0.0409  0.2710
15130TIP3    H166881   1.317   1.329   1.372  0.4206 -0.4328  0.2964
15130TIP3    H266882   1.302   1.294   1.518 -1.3489  0.6956  0.4158
15131TIP3   OH266883   3.806   1.592  14.332 -0.0662 -0.5819  0.0581
15131TIP3    H166884   3.840   1.676  14.361  0.1690  0.0133 -1.7931
15131TIP3    H266885   3.879   1.551  14.285  0.0849 -2.2162  1.5981
15132TIP3   OH266886   2.037   5.935   3.583 -0.5201  0.0586 -0.6767
15132TIP3    H166887   2.132   5.943   3.576 -0.3729 -1.1092 -0.3570
15132TIP3    H266888   2.019   5.941   3.676 -0.6435 -0.6495 -0.6475
15133TIP3   OH266889   0.329   1.496   3.708 -0.3287  0.4034 -0.0869
15133TIP3    H166890   0.377   1.561   3.657 -1.7210  2.2059  0.7861
15133TIP3    H266891   0.254   1.473   3.654  0.2740 -0.7246 -0.4912
15134TIP3   OH266892   0.207   6.702   3.713 -0.0258  0.1186 -0.0099
15134TIP3    H166893   0.250   6.626   3.675  0.8429  0.8124 -0.4630
15134TIP3    H266894   0.271   6.737   3.776 -0.3048  0.6291 -0.0060
15135TIP3   OH266895   2.716   0.703   0.776  0.1633 -0.0863 -0.3912
15135TIP3    H166896   2.742   0.793   0.759  0.4864 -0.2616 -0.8365
15135TIP3    H266897   2.659   0.708   0.853  1.3978  0.3284  0.5409
15136TIP3   OH266898   2.510   0.057  13.359 -0.0878  0.3431  0.2646
15136TIP3    H166899   2.437   0.116  13.378 -0.7812  0.7109 -2.9309
15136TIP3    H266900   2.540   0.084  13.271 -0.5654 -4.0843 -1.4913
15137TIP3   OH266901   1.839   2.875  14.475  0.0818  0.0818 -0.0799
15137TIP3    H166902   1.805   2.956  14.512 -0.1028 -0.0920  0.1428
15137TIP3    H266903   1.806   2.807  14.534  2.2452  0.0327  1.1849
15138TIP3   OH266904   1.811   4.539   3.927  0.4066 -0.4521  0.1951
15138TIP3    H166905   1.824   4.448   3.901  0.3048 -0.3598 -0.1925
15138TIP3    H266906   1.896   4.567   3.961  0.4098 -0.7195  0.4094
15139TIP3   OH266907   3.515   2.012   4.416 -0.0961 -0.3274 -0.3159
15139TIP3    H166908   3.460   1.953   4.468  1.3551  0.0253  1.7619
15139TIP3    H266909   3.561   1.955   4.355  0.4531 -1.2436  0.9059
15140TIP3   OH266910   5.361   6.614   1.042 -0.3449  0.5268  0.6474
15140TIP3    H166911   5.370   6.558   1.119  1.4830 -0.0577  0.0793
15140TIP3    H266912   5.305   6.686   1.071 -1.2628 -0.6565  1.9360
15141TIP3   OH266913   5.435   6.449   2.077  0.2631  0.3054  0.0544
15141TIP3    H166914   5.414   6.358   2.096 -0.7383  0.4050 -0.5198
15141TIP3    H266915   5.382   6.471   2.000  2.0718  0.7542 -1.1186
15142TIP3   OH266916   4.109   3.945   1.760  0.1282  0.7122  0.3580
15142TIP3    H166917   4.075   4.031   1.785 -1.3667 -0.4628  2.7016
15142TIP3    H266918   4.115   3.897   1.843  1.8484 -1.1423 -0.7722
15143TIP3   OH266919   2.977   2.069   2.695 -0.4259  0.3442  0.0404
15143TIP3    H166920   3.024   1.999   2.650 -1.3444  0.1577 -0.6675
15143TIP3    H266921   2.966   2.038   2.785 -0.8148 -0.4338 -0.2615
15144TIP3   OH266922   3.733   0.858  10.975 -0.5658  0.0258 -0.5079
15144TIP3    H166923   3.758   0.793  10.909  1.7552  0.5423 -0.2153
15144TIP3    H266924   3.775   0.939  10.946 -2.8720  1.3147 -0.5188
15145TIP3   OH266925   3.508   1.491   3.236  0.0310 -0.4763  0.0669
15145TIP3    H166926   3.455   1.539   3.172 -0.3679  1.9598  2.0844
15145TIP3    H266927   3.466   1.508   3.320  1.5577 -2.0866  1.2223
15146TIP3   OH266928   5.334   1.121  12.192 -0.0987  0.3380 -0.4018
15146TIP3    H166929   5.430   1.118  12.202 -0.0551  0.1888 -0.8676
15146TIP3    H266930   5.315   1.064  12.118 -0.6955 -0.8203  0.6002
15147TIP3   OH266931   1.320   4.790  11.664  0.3096  0.0440 -0.2983
15147TIP3    H166932   1.409   4.799  11.698  0.5406  2.0075 -1.2664
15147TIP3    H266933   1.327   4.722  11.597  1.4913  1.2660 -1.4856
15148TIP3   OH266934   3.517   2.693  11.951  0.3035  0.0493 -0.6069
15148TIP3    H166935   3.610   2.696  11.931  0.2803  1.0964 -0.6124
15148TIP3    H266936   3.488   2.606  11.921  1.4031 -0.5537  0.0248
15149TIP3   OH266937   4.148   5.259  13.800 -0.3141 -0.0719 -0.5194
15149TIP3    H166938   4.070   5.273  13.854 -0.8584  0.5330 -1.4283
15149TIP3    H266939   4.124   5.294  13.715  1.0090  0.2399 -0.7819
15150TIP3   OH266940   3.372   1.442  15.482  0.3560 -0.2290  0.6336
15150TIP3    H166941   3.356   1.360  15.529  1.7782 -0.2166  1.2016
15150TIP3    H266942   3.365   1.509  15.550  0.5067 -0.0141  0.4367
15151TIP3   OH266943   5.564   2.205   0.681  0.6438 -0.0270  0.6936
15151TIP3    H166944   5.505   2.209   0.756  0.1770 -0.4726  0.3613
15151TIP3    H266945   5.548   2.119   0.642  2.4140 -0.6682  1.2993
15152TIP3   OH266946   6.459   4.628   2.282  0.0732  0.1254 -0.1439
15152TIP3    H166947   6.481   4.588   2.198  0.0411  0.8105 -0.4871
15152TIP3    H266948   6.363   4.620   2.289  0.1487 -0.5421  0.1471
15153TIP3   OH266949   2.640   0.136   2.869 -0.1667 -0.0687 -0.1087
15153TIP3    H166950   2.641   0.203   2.937  0.0079  0.2193 -0.3918
15153TIP3    H266951   2.596   0.178   2.795 -1.6758 -0.8549  0.3044
15154TIP3   OH266952   1.276   5.942   4.301  0.5001  0.5367  0.0037
15154TIP3    H166953   1.236   5.876   4.244  2.2528 -0.0220 -0.6605
15154TIP3    H266954   1.237   5.925   4.387 -0.4458 -0.1563 -0.5361
15155TIP3   OH266955   1.051   6.727  15.893  0.1408  0.2664  0.0735
15155TIP3    H166956   1.031   6.634  15.886  2.0491 -0.2203  0.5592
15155TIP3    H266957   0.966   6.770  15.902 -0.8469 -1.3105 -1.2906
15156TIP3   OH266958   2.319   5.119   4.623  0.5926 -0.0635 -0.5044
15156TIP3    H166959   2.355   5.042   4.578  1.4836  0.5404 -0.8362
15156TIP3    H266960   2.385   5.187   4.612  1.2541 -0.1012  2.3806
15157TIP3   OH266961   1.736   3.284   4.870 -0.3240 -0.0361  0.3152
15157TIP3    H166962   1.678   3.260   4.942  0.1350  0.3974  0.8350
15157TIP3    H266963   1.818   3.310   4.912  0.4222 -1.1052 -0.4371
15158TIP3   OH266964   1.281   2.686  15.142  0.1352 -0.2540 -0.2648
15158TIP3    H166965   1.277   2.623  15.070 -1.2846  0.9960 -1.3489
15158TIP3    H266966   1.373   2.714  15.144  0.1302 -0.0015 -1.9114
15159TIP3   OH266967   5.492   2.607   2.836  0.0889 -0.8683  0.1135
15159TIP3    H166968   5.527   2.546   2.900 -0.0702  0.2863  1.3607
15159TIP3    H266969   5.408   2.635   2.874  0.6883  0.9893  0.2167
15160TIP3   OH266970   2.207   5.722  11.459 -0.5814  0.1691  0.0162
15160TIP3    H166971   2.170   5.800  11.418 -0.8224  0.1118  0.1211
15160TIP3    H266972   2.300   5.741  11.467 -0.4816  0.0795 -0.7936
15161TIP3   OH266973   5.189   3.791  15.114 -0.2078 -0.8274  0.3029
15161TIP3    H166974   5.179   3.763  15.023 -0.2977 -0.1321  0.0907
15161TIP3    H266975   5.163   3.715  15.166 -1.1208 -0.9100 -0.2495
15162TIP3   OH266976   5.652   5.159   0.040  0.1596 -1.0720 -0.4159
15162TIP3    H166977   5.666   5.085   0.099  1.0800 -0.1469  0.5509
15162TIP3    H266978   5.565   5.192   0.064  0.7193 -0.4162  0.7640
15163TIP3   OH266979   2.781   2.001  12.571 -0.0178  0.6940  0.5551
15163TIP3    H166980   2.819   1.967  12.652  1.6114 -1.2087 -0.9119
15163TIP3    H266981   2.831   2.081  12.554 -0.9748  1.5982  1.8476
15164TIP3   OH266982   2.963   3.185   4.443 -0.4295  0.3250 -0.3227
15164TIP3    H166983   3.007   3.156   4.364 -0.1754 -0.3845  0.0667
15164TIP3    H266984   2.871   3.190   4.419 -0.1067  2.4544 -1.3315
15165TIP3   OH266985   6.253   4.202   6.454 -0.1667 -0.3843 -0.0777
15165TIP3    H166986   6.258   4.220   6.548 -0.7963 -0.4802 -0.0246
15165TIP3    H266987   6.311   4.267   6.414 -2.8658  2.2869  0.0453
15166TIP3   OH266988   1.046   0.416   3.438 -0.2937 -0.3077 -0.7271
15166TIP3    H166989   0.992   0.372   3.503  1.3374 -3.3838 -1.2244
15166TIP3    H266990   0.994   0.490   3.408 -2.5505 -0.8883  1.4957
15167TIP3   OH266991   1.312   4.554  10.601  0.3966 -0.2992  0.2268
15167TIP3    H166992   1.220   4.532  10.586  0.2157 -1.1171  2.2734
15167TIP3    H266993   1.356   4.469  10.612  1.1463  0.1267  0.6223
15168TIP3   OH266994   3.162   0.493   5.672 -0.1872  0.0412  0.0250
15168TIP3    H166995   3.228   0.437   5.712 -0.3343  0.6171  1.1078
15168TIP3    H266996   3.174   0.579   5.713 -2.7066 -0.2430  1.6054
15169TIP3   OH266997   1.935   3.679  12.662 -0.2949 -0.5873  0.2639
15169TIP3    H166998   1.858   3.726  12.630 -0.4210 -1.2043 -0.3783
15169TIP3    H266999   1.947   3.711  12.752 -1.6006 -0.8510  0.5574
15170TIP3   OH267000   5.182   3.033  11.040 -0.2364  0.3502 -0.3647
15170TIP3    H167001   5.089   3.054  11.051 -0.9313 -2.8427  0.7898
15170TIP3    H267002   5.183   2.957  10.982  1.6587  0.1521 -0.1246
15171TIP3   OH267003   0.309   5.179  12.042 -0.5013 -0.2066 -0.4299
15171TIP3    H167004   0.339   5.181  11.952  3.2390 -0.9565  0.6089
15171TIP3    H267005   0.343   5.260  12.081 -1.3980 -0.2477  0.5000
15172TIP3   OH267006   5.888   2.869  13.808  0.4455 -0.5293  0.7750
15172TIP3    H167007   5.875   2.891  13.716  1.5308  0.3524  0.8242
15172TIP3    H267008   5.884   2.773  13.810  0.4983 -0.5598 -0.1920
15173TIP3   OH267009   4.659   5.230  15.316 -0.0014  0.3690 -0.2877
15173TIP3    H167010   4.641   5.244  15.223  0.1653  2.3571 -0.0729
15173TIP3    H267011   4.574   5.240  15.359  0.2526  1.7101 -0.0443
15174TIP3   OH267012   6.534   3.904  12.871 -0.0795  0.7016  0.3044
15174TIP3    H167013   6.542   3.931  12.963  0.8105 -0.1785  0.5054
15174TIP3    H267014   6.623   3.883  12.845 -0.5034 -0.3702 -0.3455
15175TIP3   OH267015   3.245   2.900   1.094 -0.1192 -0.4386  0.0470
15175TIP3    H167016   3.315   2.944   1.143 -1.5680  0.0597  1.7764
15175TIP3    H267017   3.218   2.965   1.029 -0.5403  0.2648  0.9167
15176TIP3   OH267018   1.644   2.176  16.272 -0.0265  0.4222 -0.1048
15176TIP3    H167019   1.604   2.250  16.317 -3.4784 -1.6153  0.5812
15176TIP3    H267020   1.600   2.172  16.187  0.2798 -0.6759 -0.2329
15177TIP3   OH267021   5.569   2.908   2.806  0.6144  0.1126  0.5020
15177TIP3    H167022   5.530   2.836   2.855 -0.7050  0.7793  0.4799
15177TIP3    H267023   5.557   2.884   2.714  0.9225 -0.0242  0.4977
15178TIP3   OH267024   4.092   4.568   2.647  0.4274  0.3554  0.3081
15178TIP3    H167025   4.114   4.475   2.650 -0.8872  0.0203 -0.0873
15178TIP3    H267026   4.044   4.578   2.565  0.4839  1.3755  0.3942
15179TIP3   OH267027   3.895   0.581   5.584  0.0762  0.0789 -0.0948
15179TIP3    H167028   3.990   0.571   5.583 -0.1114 -2.1478 -0.1807
15179TIP3    H267029   3.868   0.540   5.666 -0.9616 -1.1363 -1.0152
15180TIP3   OH267030   6.760   2.943   1.881  0.3580 -0.1142 -0.8042
15180TIP3    H167031   6.722   2.894   1.808  0.8501 -1.9690  0.1067
15180TIP3    H267032   6.772   2.877   1.950  2.0123  1.0932  0.1383
15181TIP3   OH267033   0.983   3.344  13.068  0.2842  0.4782 -0.6364
15181TIP3    H167034   1.059   3.300  13.029  0.4832 -0.2997  0.5663
15181TIP3    H267035   1.021   3.416  13.118  0.1253  0.7555 -0.9092
15182TIP3   OH267036   0.408   0.660   4.781 -1.0113 -0.1562 -0.1830
15182TIP3    H167037   0.484   0.670   4.723 -2.0177  2.8621 -1.1809
15182TIP3    H267038   0.352   0.597   4.736 -0.5212  0.0489 -1.1030
15183TIP3   OH267039   3.082   0.057   1.008 -0.1739 -0.1212 -0.2556
15183TIP3    H167040   3.033   0.038   1.088 -1.8315  0.5342 -1.0701
15183TIP3    H267041   3.055   0.145   0.982  2.2391  0.7193 -0.2305
15184TIP3   OH267042   2.742   1.213  12.242 -0.8051  0.1065  0.3141
15184TIP3    H167043   2.701   1.274  12.181 -1.1767  0.0398  0.4896
15184TIP3    H267044   2.701   1.232  12.326 -0.8332 -0.2971  0.3955
15185TIP3   OH267045   5.247   1.904  15.977  0.4525  0.3669  0.0354
15185TIP3    H167046   5.210   1.877  16.062 -1.0366  1.3738 -0.2482
15185TIP3    H267047   5.268   1.996  15.988 -1.1425  0.9092 -1.0986
15186TIP3   OH267048   1.610   4.371   4.253 -0.2998  0.5224 -0.1952
15186TIP3    H167049   1.538   4.430   4.230 -1.0646 -0.5882 -0.7019
15186TIP3    H267050   1.616   4.311   4.179 -1.1443 -1.5704  1.3482
15187TIP3   OH267051   5.689   5.271   0.983 -0.4628  0.7909  0.4572
15187TIP3    H167052   5.739   5.328   0.925 -0.6677  0.6990  0.1889
15187TIP3    H267053   5.600   5.306   0.980 -0.3522  1.1388  1.1696
15188TIP3   OH267054   5.647   4.946   5.237 -0.3468  0.3204 -0.1095
15188TIP3    H167055   5.676   5.026   5.280 -2.8454  1.8067 -0.9982
15188TIP3    H267056   5.604   4.895   5.306  0.7408 -0.0177  0.3317
15189TIP3   OH267057   3.124   5.467   3.738  0.1900 -0.2930  0.3969
15189TIP3    H167058   3.142   5.533   3.805 -2.8098  0.5773  0.5181
15189TIP3    H267059   3.050   5.418   3.772 -1.3220  0.0474 -2.1105
15190TIP3   OH267060   0.204   0.594  10.392  0.1340 -0.6118 -0.1967
15190TIP3    H167061   0.124   0.567  10.438  0.8540 -0.8216  0.9865
15190TIP3    H267062   0.197   0.553  10.306 -1.7143  0.5829 -0.6677
15191TIP3   OH267063   3.493   2.831  15.245  0.6435  0.0160  0.3376
15191TIP3    H167064   3.467   2.861  15.332 -1.7211  0.6037 -0.5082
15191TIP3    H267065   3.492   2.910  15.191 -0.8363 -0.7742 -0.8536
15192TIP3   OH267066   1.087   6.265  14.112 -0.1952  0.0496  0.5910
15192TIP3    H167067   1.088   6.206  14.037 -0.3977  0.9626 -0.1414
15192TIP3    H267068   0.996   6.263  14.143  0.3906 -2.4066  2.5415
15193TIP3   OH267069   4.169   1.795   0.652  0.0896 -0.3825 -0.5576
15193TIP3    H167070   4.088   1.839   0.678 -0.4233 -1.4310 -0.3261
15193TIP3    H267071   4.238   1.848   0.691 -0.2843  2.0174 -2.8374
15194TIP3   OH267072   3.307   6.747   3.745  0.6677 -0.0463  0.0806
15194TIP3    H167073   3.299   6.839   3.721  0.5841  0.4074  1.7294
15194TIP3    H267074   3.218   6.721   3.772  1.2444  0.3372  2.6422
15195TIP3   OH267075   3.145   3.863  16.359 -0.0970  0.8361 -0.2494
15195TIP3    H167076   3.238   3.885  16.368 -0.6937  3.3698  0.8658
15195TIP3    H267077   3.110   3.876  16.447 -1.3866 -0.9220 -0.4703
15196TIP3   OH267078   1.849   5.766  13.327 -0.2247 -0.2599 -0.0530
15196TIP3    H167079   1.942   5.748  13.317 -0.3513 -0.4394 -1.0334
15196TIP3    H267080   1.814   5.759  13.238 -0.9715  0.9398  0.1256
15197TIP3   OH267081   3.215   0.056   4.155  0.4785  0.3493  0.6992
15197TIP3    H167082   3.209   0.018   4.242  2.2649 -1.3739  0.1437
15197TIP3    H267083   3.221   0.150   4.170  1.0368  0.0698  2.4595
15198TIP3   OH267084   0.586   5.573  17.011 -0.6380 -0.0461  0.3033
15198TIP3    H167085   0.558   5.608  17.096 -2.0894 -0.5493  0.0516
15198TIP3    H267086   0.614   5.484  17.030 -1.3964 -0.3146  0.1949
15199TIP3   OH267087   4.992   4.666   2.715 -0.2534  0.5281 -0.1432
15199TIP3    H167088   5.060   4.603   2.692 -1.5252 -0.8538 -0.2872
15199TIP3    H267089   5.025   4.710   2.793  0.5760 -0.5100  0.1169
15200TIP3   OH267090   3.291   6.567  16.059 -0.1880  0.4900  0.2694
15200TIP3    H167091   3.370   6.614  16.084 -1.5269  2.3579  1.1909
15200TIP3    H267092   3.272   6.599  15.971  0.4935 -0.5854 -0.2923
15201TIP3   OH267093   2.586   0.132   5.026 -0.2378  0.0772 -0.5254
15201TIP3    H167094   2.662   0.104   5.076 -0.2100  1.5470  0.3248
15201TIP3    H267095   2.620   0.196   4.964 -1.0600  3.0614  1.8500
15202TIP3   OH267096   0.141   0.634   6.628  0.0841  0.3144 -0.0551
15202TIP3    H167097   0.218   0.644   6.571  0.1993 -0.1246  0.0166
15202TIP3    H267098   0.066   0.648   6.570  0.2218  1.4127  0.0117
15203TIP3   OH267099   1.414   4.743   5.240 -0.6061  0.0682 -0.1971
15203TIP3    H167100   1.416   4.816   5.302 -0.3108  0.1246 -0.2685
15203TIP3    H267101   1.326   4.707   5.247 -0.5258 -0.0231  0.3658
15204TIP3   OH267102   5.194   5.152  16.601  0.0905 -0.0115 -0.2579
15204TIP3    H167103   5.256   5.187  16.665  0.9605  0.1247 -1.1382
15204TIP3    H267104   5.127   5.109  16.653  0.4360  0.6484  0.7572
15205TIP3   OH267105   2.042   0.829  17.172 -0.4391 -0.0172  0.6030
15205TIP3    H167106   2.099   0.814  17.097  1.0704  3.2077  0.9169
15205TIP3    H267107   2.068   0.763  17.236  0.9918 -0.3767 -0.3145
15206TIP3   OH267108   4.461   4.162   1.246  0.2660  0.0311  0.2847
15206TIP3    H167109   4.517   4.238   1.229 -1.2868  1.6165  1.8844
15206TIP3    H267110   4.420   4.143   1.161  0.2707  1.3251 -0.0276
15207TIP3   OH267111   6.335   5.321  13.584  0.6446  0.7774  0.1138
15207TIP3    H167112   6.334   5.412  13.615 -0.1546  0.3892  1.2884
15207TIP3    H267113   6.254   5.312  13.534  1.2568  1.0017 -0.9508
15208TIP3   OH267114   5.086   3.718  13.315  0.4583 -0.5784  0.1410
15208TIP3    H167115   5.100   3.688  13.404  3.6570 -2.0182 -0.7098
15208TIP3    H267116   5.081   3.637  13.263  3.2392  0.1875 -1.4762
15209TIP3   OH267117   6.166   5.003   4.513  0.1377  0.1367 -0.0022
15209TIP3    H167118   6.213   4.933   4.558  0.4433  0.2046 -0.2109
15209TIP3    H267119   6.205   5.006   4.426 -0.5635 -0.1050 -0.3319
15210TIP3   OH267120   5.260   6.757  16.315  0.0196  0.0671 -0.2690
15210TIP3    H167121   5.224   6.669  16.319  3.7078 -1.6551 -0.7890
15210TIP3    H267122   5.223   6.794  16.235 -0.6272 -1.5046 -0.7304
15211TIP3   OH267123   3.006   6.046  16.206 -0.3748  0.4784 -0.3256
15211TIP3    H167124   3.002   6.010  16.295  0.1825 -0.8590 -0.8172
15211TIP3    H267125   2.981   6.138  16.216  1.5312  0.8835  1.5199
15212TIP3   OH267126   1.476   6.820   2.252  0.5145  0.0682 -0.1536
15212TIP3    H167127   1.416   6.856   2.186 -1.6466 -0.7517  1.2481
15212TIP3    H267128   1.511   6.741   2.211 -2.5351 -1.6916  0.3401
15213TIP3   OH267129   1.998   1.534   6.471  0.1067 -0.3008  0.3799
15213TIP3    H167130   1.959   1.604   6.522  0.8564  0.8593 -0.5731
15213TIP3    H267131   2.070   1.501   6.525 -0.3053 -0.4047  0.8689
15214TIP3   OH267132   4.385   0.745  14.719  0.3745  0.0854  0.5406
15214TIP3    H167133   4.312   0.807  14.718 -0.2968 -0.6390  1.7897
15214TIP3    H267134   4.363   0.680  14.653  0.2113  0.2193  0.4624
15215TIP3   OH267135   1.776   4.226   5.934  0.3874  0.4669 -0.3049
15215TIP3    H167136   1.828   4.289   5.984  1.1056 -0.7383  0.5101
15215TIP3    H267137   1.825   4.144   5.940 -1.2324 -0.5335 -0.1458
15216TIP3   OH267138   3.244   3.168   5.570 -0.0059 -0.8919  0.2231
15216TIP3    H167139   3.228   3.261   5.586  1.3588 -0.4722 -0.7195
15216TIP3    H267140   3.212   3.153   5.481 -1.7857 -1.7614  0.9450
15217TIP3   OH267141   6.722   1.587  15.372  0.1772  0.2393 -1.2337
15217TIP3    H167142   6.744   1.604  15.280 -1.3674  0.1187 -1.6492
15217TIP3    H267143   6.687   1.498  15.372  3.6920 -1.3431  0.1334
15218TIP3   OH267144   0.788   2.610  12.496 -0.1230  0.4133  0.3233
15218TIP3    H167145   0.748   2.529  12.529  0.4829 -0.5322 -1.1895
15218TIP3    H267146   0.716   2.654  12.451 -0.3086  0.4341  0.6329
15219TIP3   OH267147   0.454   5.334  15.725  0.2655 -0.2887  0.4314
15219TIP3    H167148   0.409   5.309  15.805  1.1066 -0.2967  0.9073
15219TIP3    H267149   0.546   5.317  15.742  0.5839  0.7449 -0.1295
15220TIP3   OH267150   2.411   5.202   1.609  0.5050 -0.0296  0.1630
15220TIP3    H167151   2.445   5.232   1.693  1.6255 -1.3671  0.2295
15220TIP3    H267152   2.323   5.170   1.630  0.7545 -0.3122  0.8371
15221TIP3   OH267153   3.164   3.802  13.604 -0.5266 -0.5033  0.3898
15221TIP3    H167154   3.113   3.729  13.640  0.1394 -0.5988  1.1529
15221TIP3    H267155   3.188   3.855  13.679  1.8075 -1.2854  0.2847
15222TIP3   OH267156   0.207   3.275  10.887  0.0802  0.2620  0.1392
15222TIP3    H167157   0.187   3.182  10.899  0.1917  0.2478  0.2225
15222TIP3    H267158   0.122   3.319  10.892 -0.0921  0.0694 -0.8527
15223TIP3   OH267159   4.604   2.624   1.862  0.3861  0.7468 -0.0589
15223TIP3    H167160   4.663   2.550   1.851  1.5963  1.9115 -2.0241
15223TIP3    H267161   4.526   2.601   1.811  0.1675  0.2679  0.4787
15224TIP3   OH267162   1.673   1.074   6.001  0.8039 -0.0312 -0.1262
15224TIP3    H167163   1.712   1.034   5.923  0.1171 -1.6337  0.3025
15224TIP3    H267164   1.747   1.090   6.060  1.1146 -0.6074 -0.3549
15225TIP3   OH267165   2.672   1.380  14.202 -0.4134 -0.4701  0.3876
15225TIP3    H167166   2.610   1.336  14.144 -2.1338  0.8012  1.2094
15225TIP3    H267167   2.692   1.315  14.269 -1.0655 -0.8021  0.2702
15226TIP3   OH267168   4.292   6.001  12.544 -0.0587  0.0152 -0.6223
15226TIP3    H167169   4.363   6.042  12.495  0.3867  2.4819  1.8250
15226TIP3    H267170   4.335   5.960  12.620 -1.1224  0.8693  0.4893
15227TIP3   OH267171   1.881   0.628   2.438  0.1936  0.2857  0.0395
15227TIP3    H167172   1.843   0.696   2.495  1.5955  0.1486  1.2200
15227TIP3    H267173   1.826   0.551   2.452  0.5004  0.2631  1.2283
15228TIP3   OH267174   3.130   2.452  14.242  0.1587  0.1413 -0.7409
15228TIP3    H167175   3.115   2.363  14.210 -1.8298 -0.3495  1.3204
15228TIP3    H267176   3.141   2.442  14.336  0.5661  2.0339 -0.5451
15229TIP3   OH267177   2.256   4.862   5.059 -0.6390  0.1318 -0.3090
15229TIP3    H167178   2.342   4.827   5.035  0.3842  0.4318  2.5740
15229TIP3    H267179   2.265   4.956   5.046  0.8032  0.6360  3.1907
15230TIP3   OH267180   4.438   5.695   6.104  0.2645 -1.0162 -0.2747
15230TIP3    H167181   4.479   5.780   6.117 -0.5301 -0.6891  0.1829
15230TIP3    H267182   4.489   5.634   6.156  1.4082 -1.0065 -1.3345
15231TIP3   OH267183   3.855   3.742   2.886  0.0925 -0.6087 -0.1833
15231TIP3    H167184   3.895   3.764   2.801 -2.6640  1.2164 -1.1207
15231TIP3    H267185   3.908   3.790   2.950  1.2580 -0.7313 -1.0222
15232TIP3   OH267186   0.556   3.535   5.624 -0.1526 -0.3059  0.3335
15232TIP3    H167187   0.563   3.585   5.705  0.8043 -0.4857  0.3697
15232TIP3    H267188   0.646   3.512   5.601 -0.5849 -2.6961  0.7472
15233TIP3   OH267189   4.920   4.761  16.586  0.3948 -0.1561 -0.8558
15233TIP3    H167190   4.978   4.728  16.518  0.0708 -2.6370 -0.0350
15233TIP3    H267191   4.833   4.727  16.561  0.2189 -0.8066  0.5733
15234TIP3   OH267192   3.364   0.328   2.939  1.2398 -0.1902 -0.3405
15234TIP3    H167193   3.329   0.239   2.941  1.2063 -0.1791  1.6680
15234TIP3    H267194   3.337   0.363   2.854 -1.7231 -0.9434  0.1879
15235TIP3   OH267195   4.468   2.013   2.134  0.1137  0.2563  0.0054
15235TIP3    H167196   4.468   1.920   2.156 -2.2567  0.2093  0.0876
15235TIP3    H267197   4.399   2.050   2.189  0.4457  1.9021 -0.6441
15236TIP3   OH267198   6.408   4.609   5.194 -0.7013 -0.2441 -0.0781
15236TIP3    H167199   6.323   4.651   5.182 -0.3171  0.6991  0.3502
15236TIP3    H267200   6.424   4.614   5.289 -0.8210 -1.7476  0.0402
15237TIP3   OH267201   0.603   2.426   4.376  0.0806  0.7159 -0.2304
15237TIP3    H167202   0.637   2.435   4.464  1.8965 -2.3623 -0.4816
15237TIP3    H267203   0.526   2.370   4.385 -0.6302  1.6318 -0.4688
15238TIP3   OH267204   5.295   0.748  16.784 -0.1422 -0.6991  0.2359
15238TIP3    H167205   5.222   0.686  16.780 -0.1820 -0.6263 -0.4140
15238TIP3    H267206   5.294   0.791  16.698 -1.8474  2.1905  1.5463
15239TIP3   OH267207   2.383   3.289  15.338  0.0646 -0.4064 -0.4707
15239TIP3    H167208   2.388   3.290  15.243  0.2688 -1.4401 -0.4825
15239TIP3    H267209   2.386   3.196  15.361  1.7048 -0.1136  0.6365
15240TIP3   OH267210   3.083   6.119   6.209 -0.4458  0.1006  0.3048
15240TIP3    H167211   3.035   6.184   6.261 -0.3105  0.4790 -0.0428
15240TIP3    H267212   3.062   6.141   6.118  1.6356  1.2782  0.0602
15241TIP3   OH267213   3.298   3.461   2.323  0.0108 -0.0955 -0.5053
15241TIP3    H167214   3.310   3.374   2.360 -1.0842 -0.6460 -1.3677
15241TIP3    H267215   3.304   3.448   2.228 -0.0424  0.7829 -0.6385
15242TIP3   OH267216   1.262   6.039   1.143 -0.2760 -0.3820 -0.1023
15242TIP3    H167217   1.269   6.132   1.125  0.4553 -0.7441 -1.9888
15242TIP3    H267218   1.287   6.030   1.235  0.0826  1.2204 -0.0159
15243TIP3   OH267219   6.789   4.299  15.350  0.3793 -0.0799 -0.5727
15243TIP3    H167220   6.829   4.379  15.386  2.6764 -1.4652  0.1723
15243TIP3    H267221   6.804   4.305  15.256 -1.3400  1.2876 -0.8133
15244TIP3   OH267222   2.311   0.150   2.978 -0.0550 -0.3465  0.4150
15244TIP3    H167223   2.297   0.203   2.899  0.7626 -1.0481 -0.2216
15244TIP3    H267224   2.402   0.168   3.003 -0.2118 -0.3732  1.0266
15245TIP3   OH267225   1.714   0.895   0.469  0.6271 -0.1460  0.0014
15245TIP3    H167226   1.703   0.818   0.525 -0.3651 -1.7837 -2.2924
15245TIP3    H267227   1.775   0.867   0.401 -0.2573  0.8498 -1.2480
15246TIP3   OH267228   4.615   3.948  16.287  0.1859 -0.3093  0.0053
15246TIP3    H167229   4.557   4.017  16.255 -1.4326 -1.9393 -0.7390
15246TIP3    H267230   4.557   3.882  16.325  1.7103 -1.0299  1.2242
15247TIP3   OH267231   2.863   4.310  15.099 -0.8707  0.7446  0.3298
15247TIP3    H167232   2.936   4.372  15.102  1.9259 -2.2517 -0.2090
15247TIP3    H267233   2.869   4.270  15.012 -1.0722 -1.8057  1.4066
15248TIP3   OH267234   3.508   4.490   0.250  0.2824  0.1825 -0.3125
15248TIP3    H167235   3.579   4.489   0.314 -0.6740 -1.4355  0.7807
15248TIP3    H267236   3.544   4.442   0.175 -0.3354 -2.8529  1.1501
15249TIP3   OH267237   2.006   6.200  11.676 -0.2586  0.1655 -0.1437
15249TIP3    H167238   2.018   6.286  11.716 -0.6490 -0.2662  0.9406
15249TIP3    H267239   1.987   6.219  11.585 -0.9534  1.2687  0.2056
15250TIP3   OH267240   1.169   4.169   0.818 -0.6107 -0.4143  0.3305
15250TIP3    H167241   1.116   4.170   0.898  0.2275  0.0672  0.8979
15250TIP3    H267242   1.242   4.228   0.837  0.5502 -1.6554 -0.1315
15251TIP3   OH267243   6.760   4.238   3.153 -0.2667  0.1000 -0.6269
15251TIP3    H167244   6.832   4.279   3.106 -2.0063  3.1926 -0.9023
15251TIP3    H267245   6.688   4.237   3.090 -1.0482 -1.0876  0.2341
15252TIP3   OH267246   0.337   6.008   3.750 -0.2220 -0.0728  0.1567
15252TIP3    H167247   0.263   5.951   3.770  0.4523 -0.4614  1.7153
15252TIP3    H267248   0.414   5.954   3.769  0.4602  0.6475 -0.4771
15253TIP3   OH267249   0.161   4.929  11.937 -0.4467  0.1071  0.0811
15253TIP3    H167250   0.201   4.906  11.853  1.3728 -0.0314  0.9449
15253TIP3    H267251   0.220   4.993  11.976  1.0272 -2.7020  2.9775
15254TIP3   OH267252   6.276   0.712  11.826  0.6914 -0.0728 -0.3568
15254TIP3    H167253   6.207   0.647  11.815  1.8415 -1.1824 -1.3107
15254TIP3    H267254   6.257   0.779  11.761  0.2994 -0.1731 -0.3470
15255TIP3   OH267255   0.970   0.944  15.818  0.1196 -0.1722  0.1254
15255TIP3    H167256   0.924   0.902  15.891 -1.1301  0.1178 -0.4500
15255TIP3    H267257   1.039   0.883  15.794 -0.3113 -0.8941  0.6898
15256TIP3   OH267258   2.237   2.086   2.013 -0.0053  0.2548  0.7215
15256TIP3    H167259   2.186   2.064   2.091 -0.2576 -0.8367  0.2685
15256TIP3    H267260   2.183   2.150   1.966 -0.7343 -0.4989  0.5096
15257TIP3   OH267261   2.395   1.726   0.098  0.5302 -0.1010  0.1914
15257TIP3    H167262   2.421   1.818   0.089  1.1386 -0.2289  0.5491
15257TIP3    H267263   2.418   1.703   0.188  0.5631 -0.6544  0.0477
15258TIP3   OH267264   1.254   3.264  14.762 -0.3661 -0.7372  0.2690
15258TIP3    H167265   1.208   3.345  14.781  1.1061  0.9218 -2.5214
15258TIP3    H267266   1.199   3.220  14.696 -0.5659 -1.4620  0.8984
15259TIP3   OH267267   3.918   2.521  16.816  0.2065  0.0798 -0.3702
15259TIP3    H167268   3.910   2.432  16.851 -2.6014  1.0842  1.9837
15259TIP3    H267269   3.921   2.577  16.894  0.4191  2.1476 -1.7703
15260TIP3   OH267270   4.684   1.115  16.839  0.6968 -0.2893  0.4438
15260TIP3    H167271   4.595   1.085  16.825  0.4048 -0.2828  2.0796
15260TIP3    H267272   4.680   1.209  16.822  0.4392 -0.3253  0.2985
15261TIP3   OH267273   5.463   2.536   5.288  0.1641  0.7479 -0.3356
15261TIP3    H167274   5.530   2.599   5.263  0.5489  0.2232 -0.6456
15261TIP3    H267275   5.465   2.470   5.219 -0.5848  0.6558 -0.2806
15262TIP3   OH267276   1.721   2.096  13.197  0.2474 -0.1163  0.0834
15262TIP3    H167277   1.631   2.085  13.228 -0.5334  0.2428 -1.9325
15262TIP3    H267278   1.764   2.013  13.218  0.0241  0.3219  2.6874
15263TIP3   OH267279   5.834   4.155   5.174  0.1122 -0.0331  0.5942
15263TIP3    H167280   5.925   4.178   5.157 -0.1453  0.6303  0.0871
15263TIP3    H267281   5.839   4.084   5.239  1.0585 -1.6022 -1.1039
15264TIP3   OH267282   3.432   3.028   1.328 -0.4984 -0.5113  0.1273
15264TIP3    H167283   3.354   3.000   1.375 -1.2081  2.2529  0.7550
15264TIP3    H267284   3.495   3.050   1.396 -0.7237  1.3353 -0.2110
15265TIP3   OH267285   4.505   1.363   7.125 -0.1696 -0.5649 -0.4018
15265TIP3    H167286   4.478   1.438   7.072  0.8108 -0.7967 -1.2718
15265TIP3    H267287   4.591   1.388   7.160 -0.9586 -0.2476  1.4735
15266TIP3   OH267288   0.458   5.500   3.054 -0.1637  0.1318 -0.0462
15266TIP3    H167289   0.539   5.480   3.100  1.4909  1.4874 -2.2102
15266TIP3    H267290   0.411   5.559   3.114  1.0100  0.3257  0.7141
15267TIP3   OH267291   1.046   5.547  11.617  0.1385  0.4208 -0.5237
15267TIP3    H167292   1.003   5.554  11.702  0.0103  0.2829 -0.5784
15267TIP3    H267293   1.094   5.629  11.608  1.0409 -0.0033  0.1719
15268TIP3   OH267294   1.272   3.384   5.288  0.4592 -0.0983  0.5977
15268TIP3    H167295   1.350   3.410   5.337 -0.2166 -1.0530  2.2652
15268TIP3    H267296   1.293   3.297   5.254  0.8587  0.4883 -0.7151
15269TIP3   OH267297   4.930   2.813   2.566  0.7334  0.3954  0.5666
15269TIP3    H167298   4.919   2.857   2.650 -0.8581  1.0862  0.0383
15269TIP3    H267299   4.960   2.882   2.507 -1.5335  0.8201 -0.2068
15270TIP3   OH267300   3.445   0.332  16.695 -0.3985 -0.0224 -0.0876
15270TIP3    H167301   3.382   0.298  16.631  1.3476  1.3561 -2.7287
15270TIP3    H267302   3.530   0.303  16.663  0.7185  2.5770  0.3014
15271TIP3   OH267303   4.120   5.050  16.244 -0.4928 -0.3321 -0.0002
15271TIP3    H167304   4.091   5.124  16.191 -2.1925 -1.2304 -0.4000
15271TIP3    H267305   4.215   5.059  16.247 -0.5118  0.8725 -1.5183
15272TIP3   OH267306   0.758   3.512  11.112 -0.1390 -0.5703  0.5203
15272TIP3    H167307   0.769   3.601  11.082 -0.9214 -0.8180 -0.5695
15272TIP3    H267308   0.790   3.457  11.041  0.4814 -1.1641  1.2358
15273TIP3   OH267309   3.632   4.741   6.111  0.5479  0.0518  0.3051
15273TIP3    H167310   3.551   4.779   6.077  0.9128  0.4286 -0.1538
15273TIP3    H267311   3.684   4.721   6.033  1.3705  0.8690  0.6249
15274TIP3   OH267312   3.553   0.827   1.066 -0.2044 -0.6373 -0.0390
15274TIP3    H167313   3.622   0.786   1.012  1.1121  2.3926 -0.8877
15274TIP3    H267314   3.513   0.892   1.008 -1.5642 -0.0789  1.4636
15275TIP3   OH267315   4.421   3.662  14.553  0.6894 -0.6813 -0.0361
15275TIP3    H167316   4.496   3.720  14.559  0.5828 -0.3097 -1.8727
15275TIP3    H267317   4.375   3.673  14.637  1.6277  0.5194  0.3416
15276TIP3   OH267318   5.238   1.310   1.422 -0.8111  0.1988  0.7740
15276TIP3    H167319   5.313   1.355   1.462  0.9020 -1.0724 -0.7968
15276TIP3    H267320   5.183   1.284   1.495  1.0373 -0.0601  2.1374
15277TIP3   OH267321   4.786   1.416   1.780  0.3310  0.3426  0.3966
15277TIP3    H167322   4.762   1.483   1.843  1.2065  0.3837  0.7033
15277TIP3    H267323   4.732   1.341   1.803 -0.7947  0.9955 -0.0720
15278TIP3   OH267324   6.174   1.503   0.532  1.1370 -0.1241  0.4093
15278TIP3    H167325   6.125   1.458   0.463 -3.2799  1.4292  2.2091
15278TIP3    H267326   6.199   1.587   0.493 -1.3649  0.7626  0.5249
15279TIP3   OH267327   3.447   0.528  14.737 -0.6554 -0.4718  0.4909
15279TIP3    H167328   3.420   0.478  14.813 -2.8195 -0.5565 -0.2468
15279TIP3    H267329   3.542   0.527  14.739 -0.6688 -1.1085  2.7463
15280TIP3   OH267330   2.432   2.875   1.965 -0.6057 -0.3456 -0.7025
15280TIP3    H167331   2.520   2.891   1.998 -0.6724 -1.6461  0.1976
15280TIP3    H267332   2.422   2.779   1.967 -1.8929 -0.2474 -1.1504
15281TIP3   OH267333   5.910   4.780   5.054  0.1672  0.2338  0.1196
15281TIP3    H167334   5.908   4.876   5.057  0.0665  0.2223  0.5899
15281TIP3    H267335   5.897   4.754   5.145 -1.4435 -0.2518 -0.2250
15282TIP3   OH267336   6.378   5.456   3.174 -0.4793 -0.2259  0.1044
15282TIP3    H167337   6.439   5.383   3.164 -0.8178 -0.3982 -0.7672
15282TIP3    H267338   6.293   5.414   3.188 -0.6021  0.0085  0.0507
15283TIP3   OH267339   0.627   6.699   5.292 -0.1364 -0.2327 -0.4841
15283TIP3    H167340   0.663   6.787   5.303  0.3643  0.2516 -4.4766
15283TIP3    H267341   0.691   6.642   5.335  0.1985  1.2244  1.0591
15284TIP3   OH267342   4.360   6.167   2.175  0.0550  0.3695 -0.2477
15284TIP3    H167343   4.418   6.133   2.107 -1.2620  0.1065 -1.3035
15284TIP3    H267344   4.317   6.242   2.134 -2.4153 -1.0972 -0.6139
15285TIP3   OH267345   3.930   5.730   4.643  0.1755  0.6572  0.9171
15285TIP3    H167346   3.957   5.786   4.716 -1.2676 -1.1438  2.9727
15285TIP3    H267347   3.856   5.680   4.677 -0.3222 -0.5637 -1.6999
15286TIP3   OH267348   5.663   3.428   0.122 -0.0227 -0.2326 -0.0234
15286TIP3    H167349   5.697   3.498   0.066 -1.7557 -0.5360 -1.5566
15286TIP3    H267350   5.660   3.467   0.209  2.7198  0.2699 -0.0530
15287TIP3   OH267351   4.533   4.430  15.433  0.7372 -0.2394  0.2456
15287TIP3    H167352   4.511   4.409  15.523 -2.3639 -1.2246 -0.6262
15287TIP3    H267353   4.507   4.352  15.384  1.6599  0.5515 -1.5936
15288TIP3   OH267354   3.584   1.237  16.368 -0.2827  0.5935  0.3683
15288TIP3    H167355   3.561   1.320  16.410 -0.1950  1.0209 -0.4068
15288TIP3    H267356   3.619   1.263  16.283 -0.5258 -0.2633  0.0044
15289TIP3   OH267357   6.283   3.734  12.968 -0.0022 -0.7332  0.4729
15289TIP3    H167358   6.378   3.737  12.957 -0.2392 -1.8497 -3.9154
15289TIP3    H267359   6.256   3.826  12.967  0.9406 -0.4512 -0.0814
15290TIP3   OH267360   1.498   0.917   1.151 -0.5532 -0.1129  0.1381
15290TIP3    H167361   1.509   1.007   1.120 -0.5915  0.3533  1.4086
15290TIP3    H267362   1.570   0.904   1.213 -1.5313 -0.3349  1.2774
15291TIP3   OH267363   6.013   0.084  11.676  0.4060 -0.3195  0.1259
15291TIP3    H167364   6.013   0.008  11.617 -0.8910  0.3343 -0.7755
15291TIP3    H267365   6.063   0.150  11.629  0.3759 -0.1669  0.3092
15292TIP3   OH267366   2.948   1.700   1.967 -0.0245 -0.5358 -0.1534
15292TIP3    H167367   2.875   1.759   1.987 -0.1089  0.3896 -2.7783
15292TIP3    H267368   3.024   1.743   2.006 -0.8659 -1.9830  3.4455
15293TIP3   OH267369   4.432   1.960  15.464  0.1322  0.2411 -0.6056
15293TIP3    H167370   4.477   1.878  15.443 -0.3231 -0.0045 -0.6335
15293TIP3    H267371   4.454   2.019  15.393  1.3590  0.5051 -0.0384
15294TIP3   OH267372   4.788   5.446  12.188 -0.3394 -0.0279 -0.6438
15294TIP3    H167373   4.861   5.402  12.232 -1.1751  0.0571  0.9071
15294TIP3    H267374   4.795   5.419  12.097  2.1033  0.6519 -0.7126
15295TIP3   OH267375   6.751   4.342  11.102  0.5642 -0.1038  0.0692
15295TIP3    H167376   6.659   4.331  11.125  0.7656 -0.7101  0.6142
15295TIP3    H267377   6.750   4.402  11.027 -0.2498  0.1415  0.2644
15296TIP3   OH267378   6.825   3.377  13.324  0.6456 -0.1722 -0.1851
15296TIP3    H167379   6.888   3.409  13.259  2.6538 -0.8670  1.3138
15296TIP3    H267380   6.868   3.392  13.408 -1.5190 -0.0541  0.9793
15297TIP3   OH267381   1.643   3.557   6.303 -0.7264 -0.1832  0.2851
15297TIP3    H167382   1.648   3.495   6.230 -1.3763 -0.7610  0.7118
15297TIP3    H267383   1.730   3.596   6.307  0.5049 -2.7682  1.4554
15298TIP3   OH267384   1.239   5.179   2.308  0.1584  0.6218  0.5614
15298TIP3    H167385   1.256   5.171   2.402  1.5822  0.7663  0.3437
15298TIP3    H267386   1.145   5.165   2.299  0.4484 -2.8489  1.6218
15299TIP3   OH267387   2.063   1.646  14.320 -0.6237 -0.1056 -0.7112
15299TIP3    H167388   2.048   1.725  14.269 -1.2128  0.7257  0.6864
15299TIP3    H267389   2.004   1.581  14.283 -1.1396  0.5138 -0.9916
15300TIP3   OH267390   3.018   4.938   2.699  0.5048 -0.0918  0.0887
15300TIP3    H167391   3.053   5.026   2.684 -0.6180  0.4018  0.2752
15300TIP3    H267392   2.928   4.942   2.665  0.5657 -1.2799 -0.2541
15301TIP3   OH267393   0.118   5.091  10.426 -0.1131  0.3162 -0.2910
15301TIP3    H167394   0.112   5.015  10.484 -1.3775  1.0051  0.5055
15301TIP3    H267395   0.031   5.100  10.388  0.1902  1.0084 -0.8620
15302TIP3   OH267396   4.945   0.147   2.342  0.0611  0.1482 -0.5384
15302TIP3    H167397   4.969   0.239   2.357  0.8554 -0.3404  1.3956
15302TIP3    H267398   5.021   0.109   2.298  0.9599 -0.2247  1.2354
15303TIP3   OH267399   4.546   6.313   6.383  0.3379 -0.3870  0.2206
15303TIP3    H167400   4.595   6.255   6.324  0.0542 -0.3819 -0.0247
15303TIP3    H267401   4.471   6.260   6.410 -0.1260 -0.0095 -0.3052
15304TIP3   OH267402   4.823   4.766  12.230 -0.8607  0.1400 -0.7227
15304TIP3    H167403   4.805   4.833  12.164  0.2915 -0.0093 -1.2101
15304TIP3    H267404   4.822   4.814  12.313 -0.6524  0.6578 -1.0086
15305TIP3   OH267405   5.914   3.675   2.528 -0.5060 -0.2397 -0.2644
15305TIP3    H167406   5.880   3.711   2.610 -1.4533  0.6769 -1.0218
15305TIP3    H267407   5.869   3.725   2.460  1.2195 -0.0829 -1.3488
15306TIP3   OH267408   3.248   0.089  15.995  0.9143  0.3930  0.3234
15306TIP3    H167409   3.310   0.129  15.935 -0.3366  0.4114 -0.9973
15306TIP3    H267410   3.237  -0.001  15.963  0.3970  0.3303  0.6601
15307TIP3   OH267411   0.157   3.125   0.663  0.1288 -0.5799 -0.0794
15307TIP3    H167412   0.071   3.094   0.690  0.8112 -1.7312  0.8611
15307TIP3    H267413   0.140   3.179   0.586 -1.1358 -3.4081 -1.9197
15308TIP3   OH267414   4.992   4.253   4.923 -0.3703  0.0409 -0.2098
15308TIP3    H167415   5.076   4.221   4.891  0.1539  1.2668 -0.1307
15308TIP3    H267416   5.015   4.321   4.987 -1.4037  1.0248 -0.8398
15309TIP3   OH267417   6.824   2.995   4.893  0.7509  0.5293 -0.0046
15309TIP3    H167418   6.810   3.082   4.929 -0.6649  1.0016 -1.5619
15309TIP3    H267419   6.764   2.939   4.941  0.0302  0.8555 -0.5042
15310TIP3   OH267420   1.562   5.591  13.043 -0.2052  0.6343  0.5309
15310TIP3    H167421   1.642   5.643  13.056 -0.6049  1.2387  0.6189
15310TIP3    H267422   1.561   5.573  12.949 -0.2082  1.0203  0.4579
15311TIP3   OH267423   4.587   6.828   0.443 -0.2428  0.2977 -0.1455
15311TIP3    H167424   4.627   6.901   0.489 -1.1020  1.6865 -1.5253
15311TIP3    H267425   4.656   6.762   0.439  1.3022  1.8951 -0.8388
15312TIP3   OH267426   4.602   1.890   3.641 -0.0616  0.1338  0.7471
15312TIP3    H167427   4.601   1.980   3.608  1.6799 -0.3085 -0.6807
15312TIP3    H267428   4.688   1.857   3.617 -1.1961 -2.4178 -0.1190
15313TIP3   OH267429   6.615   0.496  16.771  0.1999 -0.2517  0.0798
15313TIP3    H167430   6.521   0.478  16.766  0.0423  0.5736 -0.0378
15313TIP3    H267431   6.656   0.409  16.767 -0.5062 -0.5578 -1.0836
15314TIP3   OH267432   4.271   6.188  14.397  0.2037 -0.6700 -0.0036
15314TIP3    H167433   4.318   6.118  14.351  1.3494  0.2038 -0.1825
15314TIP3    H267434   4.312   6.269  14.367 -0.0569  0.0045  1.3826
15315TIP3   OH267435   0.869   0.348   1.064  0.2046  0.5125  0.5575
15315TIP3    H167436   0.855   0.438   1.035  1.5549  0.1536 -1.3967
15315TIP3    H267437   0.786   0.303   1.043  0.0792  0.9633  0.0525
15316TIP3   OH267438   3.299   5.672  12.200  0.6991  0.2962 -0.0039
15316TIP3    H167439   3.326   5.677  12.292  0.7607  0.7055 -0.0408
15316TIP3    H267440   3.225   5.612  12.200  1.9543 -1.3118  0.0159
15317TIP3   OH267441   6.157   1.458  13.210 -0.2890 -0.1728 -0.3668
15317TIP3    H167442   6.110   1.444  13.292 -1.8232  0.3865 -1.1220
15317TIP3    H267443   6.218   1.385  13.204 -1.1431 -0.9846  0.5871
15318TIP3   OH267444   6.388   1.316   1.939 -0.1437 -0.6332 -0.1796
15318TIP3    H167445   6.317   1.329   2.001  1.7221  0.9723  1.7740
15318TIP3    H267446   6.458   1.277   1.991  1.2598  0.1694 -1.3977
15319TIP3   OH267447   0.957   2.145  16.846 -0.2702  0.5627  0.2813
15319TIP3    H167448   0.861   2.138  16.845 -0.1903 -1.2673  1.4007
15319TIP3    H267449   0.985   2.083  16.914  1.7559  0.4903 -0.5514
15320TIP3   OH267450   2.628   5.597   1.363  0.1541 -0.7260 -0.0175
15320TIP3    H167451   2.619   5.508   1.328 -1.1226 -0.4495 -0.4225
15320TIP3    H267452   2.663   5.648   1.290  1.2954 -0.9599  0.3409
15321TIP3   OH267453   5.831   6.475  11.915 -0.2737  0.8625  0.7163
15321TIP3    H167454   5.877   6.411  11.861  0.8657  0.9068  1.6211
15321TIP3    H267455   5.851   6.559  11.873 -3.5326  0.5803 -1.7896
15322TIP3   OH267456   1.744   4.134   1.565 -0.0866  0.2787  0.2305
15322TIP3    H167457   1.794   4.132   1.646  0.9579 -0.9322 -0.4258
15322TIP3    H267458   1.720   4.227   1.555  2.2590  0.9594  0.4169
15323TIP3   OH267459   2.925   5.286   3.832  0.5272  0.1840  0.4507
15323TIP3    H167460   2.883   5.370   3.815 -0.9883 -0.7135 -0.4407
15323TIP3    H267461   2.898   5.264   3.922 -3.2802 -1.5626 -0.8952
15324TIP3   OH267462   2.900   3.051  17.045 -0.0260 -0.1074  0.6926
15324TIP3    H167463   2.830   3.101  17.002 -0.0387  1.8183  2.7416
15324TIP3    H267464   2.860   2.966  17.065 -1.4808  0.5982  0.9253
15325TIP3   OH267465   5.026   6.032   3.464  0.1218  0.1988 -0.4527
15325TIP3    H167466   5.016   6.095   3.392 -0.1610  1.2771  0.4898
15325TIP3    H267467   4.940   5.993   3.475 -0.0508  0.6404 -0.1843
15326TIP3   OH267468   4.280   2.525   1.226  0.2716  0.1702  0.3435
15326TIP3    H167469   4.304   2.611   1.190  1.2499 -0.2617 -0.0831
15326TIP3    H267470   4.186   2.531   1.241  0.4409  1.5817  1.0372
15327TIP3   OH267471   4.314   5.238   3.333 -0.2663 -0.2903  0.7299
15327TIP3    H167472   4.223   5.209   3.338 -0.3244  0.0358  1.8350
15327TIP3    H267473   4.312   5.313   3.274 -0.8609  0.2535  1.4351
15328TIP3   OH267474   1.858   2.711   1.827  0.9201  0.0108  0.0333
15328TIP3    H167475   1.947   2.677   1.811 -0.1607 -2.5195 -1.1125
15328TIP3    H267476   1.815   2.704   1.742 -0.1238  2.2319  0.3125
15329TIP3   OH267477   1.952   3.952   2.841 -0.3681 -0.0605 -0.5184
15329TIP3    H167478   1.909   3.982   2.761  1.0002  0.8335 -0.9562
15329TIP3    H267479   1.954   4.030   2.898 -0.0694 -0.3127 -0.1795
15330TIP3   OH267480   2.399   6.651   4.001 -0.3906 -0.6568 -0.0428
15330TIP3    H167481   2.395   6.746   3.989 -0.5162 -0.7822 -1.0374
15330TIP3    H267482   2.406   6.616   3.913 -0.8162 -1.6013  0.2923
15331TIP3   OH267483   1.365   5.687  11.766  0.7889 -0.1576 -0.1233
15331TIP3    H167484   1.422   5.748  11.720  0.9377  0.0687  0.3468
15331TIP3    H267485   1.368   5.606  11.714 -0.9232  0.7963 -1.8320
15332TIP3   OH267486   4.696   4.019  12.531 -0.1031 -0.3802 -0.1303
15332TIP3    H167487   4.703   3.963  12.608  0.3801 -1.1345 -0.7054
15332TIP3    H267488   4.602   4.022  12.512 -0.1310 -1.0462 -0.1244
15333TIP3   OH267489   2.963   2.971  12.414  0.9196  0.3259  0.7401
15333TIP3    H167490   3.045   2.923  12.400  0.5451 -0.6589  1.7900
15333TIP3    H267491   2.991   3.061  12.429  1.8547 -0.0746  1.5171
15334TIP3   OH267492   4.445   2.894  15.627 -0.1845 -0.8437 -0.5396
15334TIP3    H167493   4.541   2.891  15.630 -0.1075  1.0437  0.8823
15334TIP3    H267494   4.426   2.983  15.597 -1.4678 -0.6023  0.8779
15335TIP3   OH267495   3.968   4.314   0.079 -0.4027  0.5241 -0.1083
15335TIP3    H167496   3.935   4.225   0.091 -1.1506  0.2810 -3.1074
15335TIP3    H267497   4.051   4.316   0.128  1.2005 -2.8475 -2.3041
15336TIP3   OH267498   6.325   6.063   2.313 -0.8112  0.2673 -0.1734
15336TIP3    H167499   6.411   6.027   2.294 -0.7337 -0.0177  0.6743
15336TIP3    H267500   6.268   5.987   2.320 -1.0119  0.4171 -0.1576
15337TIP3   OH267501   4.663   2.498  12.550  0.1058  0.1067  0.1109
15337TIP3    H167502   4.633   2.416  12.590  0.7721  0.8918  2.3842
15337TIP3    H267503   4.583   2.547  12.532 -0.2394 -0.5271 -0.1166
15338TIP3   OH267504   1.272   5.001   4.032  0.2852 -0.2160 -0.0989
15338TIP3    H167505   1.237   5.088   4.056  1.8236  0.2363  0.6518
15338TIP3    H267506   1.310   5.013   3.946  0.0440 -0.2907 -0.2177
15339TIP3   OH267507   5.455   1.124  15.416  0.1223  0.4257 -0.3712
15339TIP3    H167508   5.522   1.193  15.419 -0.5501  1.0624  0.3755
15339TIP3    H267509   5.385   1.161  15.361 -0.0336  0.1493 -0.3603
15340TIP3   OH267510   2.900   2.988   0.494 -0.2748 -0.2124  0.0608
15340TIP3    H167511   2.806   2.969   0.497  0.0438 -1.9173  0.5342
15340TIP3    H267512   2.908   3.075   0.535 -1.6048 -0.1894  0.3214
15341TIP3   OH267513   4.595   2.088   4.134 -0.1687  0.1877 -0.0130
15341TIP3    H167514   4.502   2.110   4.139  0.5570  3.5997  3.6307
15341TIP3    H267515   4.633   2.159   4.082  0.7133  0.6749  1.2475
15342TIP3   OH267516   1.643   2.364   3.899  0.3835 -0.6271 -0.0856
15342TIP3    H167517   1.687   2.442   3.933 -1.5361  0.8695 -0.8226
15342TIP3    H267518   1.692   2.342   3.820 -0.9648  1.9744 -1.7936
15343TIP3   OH267519   2.847   1.912   0.548 -0.2810  0.6206  0.4943
15343TIP3    H167520   2.817   1.950   0.465  0.4973  0.6148  0.1956
15343TIP3    H267521   2.819   1.974   0.615  0.7985  1.6649  0.0325
15344TIP3   OH267522   2.180   0.695  14.462 -0.0082 -0.4546  0.0799
15344TIP3    H167523   2.159   0.636  14.390 -1.1658 -0.3683  0.3330
15344TIP3    H267524   2.097   0.737  14.484  0.8422  1.5013 -0.2872
15345TIP3   OH267525   4.671   3.115   0.909 -0.3374 -0.1832  0.3088
15345TIP3    H167526   4.621   3.166   0.973 -0.1807  1.6557 -0.9580
15345TIP3    H267527   4.608   3.092   0.841 -0.2959 -1.3254  0.6269
15346TIP3   OH267528   5.958   0.485  10.788 -0.2403 -0.5614  0.2668
15346TIP3    H167529   5.938   0.563  10.737 -0.5187  0.3050  1.6505
15346TIP3    H267530   5.876   0.436  10.790 -0.2917 -0.4840  0.1114
15347TIP3   OH267531   0.904   0.576  16.087  0.6990  0.0768  0.6364
15347TIP3    H167532   0.962   0.526  16.029 -0.0141 -0.3109  0.2507
15347TIP3    H267533   0.937   0.558  16.175  0.4636 -1.0777  0.5024
15348TIP3   OH267534   1.001   2.442  16.846 -0.4928  0.0269 -0.4610
15348TIP3    H167535   0.973   2.358  16.882 -1.0387 -0.1659 -1.3075
15348TIP3    H267536   0.935   2.504  16.874 -0.4667  0.0375 -0.4234
15349TIP3   OH267537   1.048   4.273   3.257  0.4902  0.1493 -0.2450
15349TIP3    H167538   1.086   4.195   3.215 -0.9295 -0.9786  0.4891
15349TIP3    H267539   1.044   4.250   3.350  1.2152  1.6171  0.1739
15350TIP3   OH267540   1.936   1.881  16.659  0.5439  0.4995 -0.2715
15350TIP3    H167541   1.930   1.947  16.590  0.5732  1.4983  0.6492
15350TIP3    H267542   1.877   1.914  16.728 -1.1707 -1.5533 -0.6607
15351TIP3   OH267543   4.324   1.959  16.506 -0.0287 -0.0818  0.2094
15351TIP3    H167544   4.228   1.959  16.511 -0.0606 -1.2698 -0.2122
15351TIP3    H267545   4.346   2.046  16.471 -1.0280 -0.2895 -0.9957
15352TIP3   OH267546   6.656   2.937   3.608  0.2423 -0.2089  0.3568
15352TIP3    H167547   6.717   2.869   3.636  1.2976  0.0230 -1.2503
15352TIP3    H267548   6.605   2.957   3.686  1.7292 -0.9410  1.5694
15353TIP3   OH267549   4.640   5.534  14.624 -0.2707 -0.0774  0.1508
15353TIP3    H167550   4.549   5.526  14.652  0.0353 -0.3467  1.1287
15353TIP3    H267551   4.636   5.572  14.536 -1.3496 -0.7972 -0.1248
15354TIP3   OH267552   0.372   5.106   0.530 -0.3177 -0.5156  0.3204
15354TIP3    H167553   0.431   5.031   0.538  1.3863  0.7033 -0.1672
15354TIP3    H267554   0.325   5.091   0.448  1.7521  0.0472 -1.0475
15355TIP3   OH267555   0.443   4.884   6.188  0.0676 -0.0799  0.1000
15355TIP3    H167556   0.494   4.961   6.162 -0.3412 -0.0982 -0.7975
15355TIP3    H267557   0.364   4.920   6.229  0.4272 -0.0432  0.7729
15356TIP3   OH267558   2.455   1.002   6.950  0.3356 -0.6433 -1.2632
15356TIP3    H167559   2.509   0.936   6.907  2.6270 -0.3576  0.9403
15356TIP3    H267560   2.516   1.051   7.006 -1.7637  1.5100 -0.6534
15357TIP3   OH267561   6.306   0.756   5.313 -0.1387 -0.2722 -0.5434
15357TIP3    H167562   6.291   0.764   5.407  0.3285  1.3034 -0.5716
15357TIP3    H267563   6.401   0.742   5.305  0.3085  2.3932 -0.8399
15358TIP3   OH267564   5.775   4.230  12.445 -0.0568 -0.1138 -0.3444
15358TIP3    H167565   5.735   4.310  12.410  0.0134  0.3472  0.6082
15358TIP3    H267566   5.827   4.260  12.519 -0.7116 -1.1542  0.5565
15359TIP3   OH267567   5.446   3.522   4.380  0.3576  0.2615  0.7157
15359TIP3    H167568   5.369   3.530   4.323  0.7850 -0.1764  0.0629
15359TIP3    H267569   5.518   3.557   4.329  0.4652  1.4558  1.6509
15360TIP3   OH267570   3.881   6.200  15.845 -0.1615  0.2983  0.0593
15360TIP3    H167571   3.887   6.113  15.885 -2.2840 -0.1497 -0.4631
15360TIP3    H267572   3.928   6.192  15.763 -0.2737 -0.3513  0.0511
15361TIP3   OH267573   3.314   2.017   2.676  0.0221 -0.4143 -0.6860
15361TIP3    H167574   3.269   2.071   2.612 -1.2930  0.8533  1.2377
15361TIP3    H267575   3.377   2.075   2.718 -1.2834 -0.3154  1.2835
15362TIP3   OH267576   1.677   4.270   3.103  0.0117  0.5981  0.6253
15362TIP3    H167577   1.740   4.341   3.090  1.3702 -0.8638 -1.4327
15362TIP3    H267578   1.633   4.261   3.018  0.2628 -1.3343  0.6505
15363TIP3   OH267579   0.451   1.173  12.715 -1.0509  0.0588  0.7606
15363TIP3    H167580   0.452   1.098  12.774  2.4257 -0.7766 -0.1291
15363TIP3    H267581   0.411   1.141  12.635  0.8790 -1.1384  0.2010
15364TIP3   OH267582   1.912   4.537  16.505 -0.0190 -0.6910  0.0900
15364TIP3    H167583   1.962   4.615  16.480  0.3452 -0.7550  0.6107
15364TIP3    H267584   1.978   4.476  16.539 -0.2652 -1.3278 -0.5505
15365TIP3   OH267585   0.215   3.513  14.200  0.0990 -0.0340 -0.2555
15365TIP3    H167586   0.170   3.598  14.195 -2.3593 -1.0608  1.8149
15365TIP3    H267587   0.147   3.449  14.179  1.5147 -1.5643 -0.3366
15366TIP3   OH267588   2.879   5.764   3.955  0.6843 -0.7238  0.4569
15366TIP3    H167589   2.903   5.815   3.877  1.3642 -2.1985 -0.3444
15366TIP3    H267590   2.856   5.830   4.020  0.0194  0.5679 -1.0092
15367TIP3   OH267591   3.759   5.860   2.290  0.3037  0.2219 -0.9496
15367TIP3    H167592   3.733   5.865   2.382  0.1138 -1.5077 -0.8661
15367TIP3    H267593   3.854   5.872   2.291  0.5392 -1.3966 -0.2979
15368TIP3   OH267594   0.346   6.771   3.350 -0.1843  0.5483  0.3108
15368TIP3    H167595   0.326   6.692   3.398  1.0199  0.4628  0.7238
15368TIP3    H267596   0.362   6.837   3.417  2.4010  0.2071  0.1423
15369TIP3   OH267597   0.267   3.054  15.244  0.3147 -0.0670  0.0998
15369TIP3    H167598   0.234   3.130  15.293 -0.6092 -1.6246  2.0521
15369TIP3    H267599   0.284   3.087  15.156 -1.0847  2.1378  0.5849
15370TIP3   OH267600   3.395   4.328  17.199 -0.2212 -0.2184 -0.3266
15370TIP3    H167601   3.317   4.328  17.254 -1.1194  0.2575 -1.5399
15370TIP3    H267602   3.418   4.235  17.190 -1.3463 -0.4621 -0.8690
15371TIP3   OH267603   6.716   4.438   3.363 -0.2286  0.1959 -0.5784
15371TIP3    H167604   6.622   4.456   3.355 -0.4806 -0.9245 -0.3608
15371TIP3    H267605   6.732   4.364   3.304 -0.3707 -2.3687  2.2993
15372TIP3   OH267606   2.896   6.271   3.830  0.3732 -0.0983  0.5624
15372TIP3    H167607   2.902   6.191   3.778 -1.5660  1.0075 -1.5468
15372TIP3    H267608   2.824   6.256   3.890  0.7317 -0.3147  0.9452
15373TIP3   OH267609   4.105   0.711  14.042 -0.3100  0.5323 -0.3656
15373TIP3    H167610   4.196   0.737  14.024 -0.0201 -0.4535 -0.3834
15373TIP3    H267611   4.112   0.622  14.077 -1.2904  0.3307 -0.6513
15374TIP3   OH267612   3.643   2.673   3.787  0.1906  0.2218  0.5801
15374TIP3    H167613   3.710   2.719   3.736 -0.2197 -0.3776 -0.5483
15374TIP3    H267614   3.653   2.581   3.763 -1.6547  0.2185 -0.4081
15375TIP3   OH267615   6.334   3.611   0.755  0.0420 -0.0461 -0.0089
15375TIP3    H167616   6.389   3.563   0.816 -0.8011 -1.8090 -0.5900
15375TIP3    H267617   6.394   3.639   0.685  0.5214 -0.3009  0.2995
15376TIP3   OH267618   6.561   5.697  11.410  0.4653 -0.0273  0.1555
15376TIP3    H167619   6.580   5.778  11.457  0.3482  0.0424  0.0804
15376TIP3    H267620   6.494   5.721  11.346  0.5785 -0.1362 -0.0045
15377TIP3   OH267621   3.604   4.021   2.767 -0.0130 -0.5407  0.5999
15377TIP3    H167622   3.547   4.096   2.785 -0.8877 -1.0411 -0.0320
15377TIP3    H267623   3.682   4.038   2.820  0.1703  1.2473 -0.1403
15378TIP3   OH267624   0.601   6.643  12.831  0.2408  0.2818 -0.0846
15378TIP3    H167625   0.606   6.563  12.882  1.6827 -0.1865 -0.9221
15378TIP3    H267626   0.578   6.711  12.895 -2.8784 -1.0095  0.3648
15379TIP3   OH267627   3.609   4.502  11.894 -0.3263 -0.0287  0.2571
15379TIP3    H167628   3.686   4.450  11.870 -0.6808 -0.2605 -0.4015
15379TIP3    H267629   3.558   4.445  11.951 -0.3810 -0.1584  0.0801
15380TIP3   OH267630   4.753   1.896   5.096 -0.1964  0.1770 -0.9409
15380TIP3    H167631   4.723   1.987   5.089  0.8886  0.4504 -2.7080
15380TIP3    H267632   4.802   1.894   5.178  0.8137  1.5490 -1.4663
15381TIP3   OH267633   5.851   0.396  15.978 -0.5473 -0.0026  0.1342
15381TIP3    H167634   5.787   0.339  15.935 -0.4774 -0.8747  1.1188
15381TIP3    H267635   5.915   0.335  16.016 -0.4697  0.7231  1.2193
15382TIP3   OH267636   3.159   1.978   1.744  0.4824 -0.7133 -0.2537
15382TIP3    H167637   3.122   1.890   1.736  0.0297 -0.5591  0.0820
15382TIP3    H267638   3.248   1.964   1.778  0.4596 -1.0436 -0.3290
15383TIP3   OH267639   1.248   2.541  16.554  0.0056 -0.1933  0.4171
15383TIP3    H167640   1.285   2.623  16.519  0.4827 -0.9633 -0.9587
15383TIP3    H267641   1.156   2.544  16.528  0.0339 -0.1208  0.3219
15384TIP3   OH267642   2.690   6.750  12.366  0.5321  0.0491  0.5960
15384TIP3    H167643   2.672   6.681  12.430  0.4401  0.3842  0.9346
15384TIP3    H267644   2.728   6.821  12.418  0.1975  0.4309  0.3201
15385TIP3   OH267645   4.376   2.619   2.209 -0.0849 -0.5272 -0.2820
15385TIP3    H167646   4.331   2.700   2.184 -0.0477 -0.3633  0.1707
15385TIP3    H267647   4.404   2.634   2.299  0.5788 -0.7645 -0.4452
15386TIP3   OH267648   6.518   4.871   0.889  0.9040  0.1305  0.1902
15386TIP3    H167649   6.488   4.795   0.839  2.0887 -0.0615 -0.2459
15386TIP3    H267650   6.494   4.946   0.836  0.8282 -0.0015  0.0378
15387TIP3   OH267651   2.570   0.037  11.511  0.0257  0.0233 -0.5026
15387TIP3    H167652   2.612  -0.025  11.570 -0.9104 -0.1905 -0.0468
15387TIP3    H267653   2.546  -0.014  11.434 -1.9623 -0.5215  0.4299
15388TIP3   OH267654   3.675   6.634  11.435  0.1821  0.0792  0.0573
15388TIP3    H167655   3.760   6.678  11.428  0.8727 -1.1692  0.2150
15388TIP3    H267656   3.631   6.653  11.352  0.9238  0.1359 -0.3329
15389TIP3   OH267657   4.753   1.604   1.947  0.2250 -0.4042 -0.4640
15389TIP3    H167658   4.793   1.573   2.028  0.4163  0.0118 -0.4010
15389TIP3    H267659   4.760   1.699   1.951 -0.8365 -0.3185 -0.4127
15390TIP3   OH267660   3.425   4.611  13.104 -0.4897 -0.6093 -0.4256
15390TIP3    H167661   3.442   4.643  13.015  3.8185 -1.4617 -0.0730
15390TIP3    H267662   3.384   4.526  13.091  0.5827 -0.9747 -1.6524
15391TIP3   OH267663   1.140   1.418  12.287  0.5660 -0.2413  0.0554
15391TIP3    H167664   1.163   1.490  12.345 -1.0646 -0.4234  0.9902
15391TIP3    H267665   1.085   1.457  12.219 -3.6439 -1.0219  2.6789
15392TIP3   OH267666   0.315   2.400  16.400  0.0886  0.2411 -0.8049
15392TIP3    H167667   0.296   2.345  16.475 -1.6430 -0.1746 -1.5036
15392TIP3    H267668   0.394   2.362  16.361 -0.6238 -1.2860 -0.8179
15393TIP3   OH267669   5.600   2.382   2.193 -0.2331  0.3308  0.3281
15393TIP3    H167670   5.518   2.357   2.150  0.0096 -0.6508  0.4112
15393TIP3    H267671   5.652   2.421   2.123 -0.2680 -0.2495 -0.0308
15394TIP3   OH267672   6.576   5.829  12.734  0.5602  0.1517 -0.1688
15394TIP3    H167673   6.637   5.760  12.708  0.9998 -0.3058  1.9037
15394TIP3    H267674   6.627   5.885  12.792 -0.6125  0.5383  0.5097
15395TIP3   OH267675   6.259   5.731  16.488 -0.3676  0.3625  0.2021
15395TIP3    H167676   6.196   5.662  16.508 -1.6325  1.1974 -0.6809
15395TIP3    H267677   6.318   5.692  16.424  0.3871 -0.6068  1.4502
15396TIP3   OH267678   5.893   4.381  16.712  0.0144 -0.2505 -0.2021
15396TIP3    H167679   5.953   4.392  16.785 -0.2466 -0.8328  0.1006
15396TIP3    H267680   5.833   4.456  16.719 -0.4693 -0.7062  0.6223
15397TIP3   OH267681   6.211   6.198  10.412 -0.0250  0.6063 -0.1899
15397TIP3    H167682   6.168   6.266  10.360  0.8881  1.1337 -0.2640
15397TIP3    H267683   6.255   6.246  10.483  1.2925  0.1744 -0.6995
15398TIP3   OH267684   2.576   5.428  15.581 -0.1375  0.1976 -0.3022
15398TIP3    H167685   2.563   5.479  15.660  0.7993 -0.6837  0.4448
15398TIP3    H267686   2.643   5.476  15.532  1.8402 -0.9828  1.0851
15399TIP3   OH267687   0.706   5.410   4.534 -0.1203  0.1047 -0.1620
15399TIP3    H167688   0.644   5.480   4.558 -2.4280 -1.6699 -0.5734
15399TIP3    H267689   0.721   5.422   4.441 -0.9657 -0.2545 -0.3521
15400TIP3   OH267690   3.424   5.603   4.760 -0.8458  0.0162 -0.0096
15400TIP3    H167691   3.497   5.644   4.806  0.1895 -1.3483 -0.3843
15400TIP3    H267692   3.421   5.647   4.675  1.2156 -1.5705 -1.0031
15401TIP3   OH267693   6.399   2.123   3.241  0.2583  0.5215  0.2703
15401TIP3    H167694   6.407   2.042   3.190  0.6989  0.6499  0.1329
15401TIP3    H267695   6.484   2.133   3.283  0.7007  1.6853 -0.8540
15402TIP3   OH267696   3.155   5.929  15.003 -0.1835  0.5172 -0.5092
15402TIP3    H167697   3.179   5.930  14.910 -2.8546 -0.2554 -1.3002
15402TIP3    H267698   3.145   5.836  15.025  0.2169  0.7001  0.5158
15403TIP3   OH267699   4.953   5.778  15.422  0.2692  0.7517  0.0571
15403TIP3    H167700   4.903   5.707  15.380  1.0381  0.4396 -0.3463
15403TIP3    H267701   5.006   5.733  15.488  0.0231  1.0800  0.4759
15404TIP3   OH267702   0.501   2.342   2.065  0.6839  0.4281 -0.2213
15404TIP3    H167703   0.545   2.277   2.120 -1.2539 -0.3882  0.4949
15404TIP3    H267704   0.535   2.426   2.094  1.1283 -0.1164  0.9052
15405TIP3   OH267705   6.417   1.473  12.686 -0.4661  0.4368 -0.1998
15405TIP3    H167706   6.426   1.565  12.713 -0.5616  0.6305 -0.8031
15405TIP3    H267707   6.325   1.464  12.663 -0.8579 -0.3012  1.5615
15406TIP3   OH267708   2.001   1.150  14.965  0.2559 -0.0434 -1.0743
15406TIP3    H167709   2.045   1.083  14.913  0.6634  0.6029 -1.5831
15406TIP3    H267710   1.997   1.114  15.053 -2.5494 -2.1953 -1.9500
15407TIP3   OH267711   0.423   1.957  12.296 -0.5417 -1.1892 -0.4999
15407TIP3    H167712   0.429   2.030  12.358  3.1654 -1.3924 -0.4270
15407TIP3    H267713   0.398   1.998  12.214 -1.3273 -0.2973  0.1575
15408TIP3   OH267714   1.770   2.891   2.890  0.2170  0.2670 -0.4715
15408TIP3    H167715   1.843   2.874   2.949 -0.7127  1.7145  1.1873
15408TIP3    H267716   1.722   2.809   2.887  0.8806 -0.1434 -0.1022
15409TIP3   OH267717   3.277   5.952   3.321  0.0965  1.0872 -0.2703
15409TIP3    H167718   3.286   6.015   3.249 -2.2661  2.6498  0.6850
15409TIP3    H267719   3.198   5.903   3.299 -0.7985  1.7539  1.3491
15410TIP3   OH267720   3.917   1.280  14.611 -0.4677 -0.1483  0.4753
15410TIP3    H167721   3.841   1.291  14.555 -0.5827 -1.1829  0.4100
15410TIP3    H267722   3.988   1.326  14.566 -0.9871  0.5776  0.3998
15411TIP3   OH267723   6.230   5.053   2.022  0.0989  0.2555 -0.5747
15411TIP3    H167724   6.219   5.083   1.932 -1.5884  0.0514 -0.4684
15411TIP3    H267725   6.198   5.125   2.076 -0.4838 -0.2688 -0.2022
15412TIP3   OH267726   3.775   2.434   4.668 -0.0816 -0.0487 -0.6341
15412TIP3    H167727   3.817   2.377   4.732  0.2040 -0.2488 -1.0000
15412TIP3    H267728   3.683   2.407   4.669 -0.2902  0.6371  0.4346
15413TIP3   OH267729   4.696   4.018  13.773  0.2463 -0.6666 -0.0123
15413TIP3    H167730   4.631   3.965  13.820 -1.6836  0.9035 -0.7700
15413TIP3    H267731   4.709   4.095  13.828  1.0432 -0.6771 -0.1683
15414TIP3   OH267732   5.628   2.100   5.983  0.4534 -0.9504 -0.3625
15414TIP3    H167733   5.556   2.067   5.929 -0.9263 -0.0808  0.8660
15414TIP3    H267734   5.654   2.026   6.037 -1.1508 -0.6931  0.8401
15415TIP3   OH267735   1.775   2.774  16.774  0.0503  0.0613  0.2890
15415TIP3    H167736   1.835   2.832  16.820  1.1227 -0.4795 -0.3639
15415TIP3    H267737   1.688   2.802  16.801  0.6200  0.0467  2.2746
15416TIP3   OH267738   5.052   4.136  14.253  0.3587 -0.2621  0.8360
15416TIP3    H167739   5.072   4.045  14.273  2.7415 -0.0747 -0.3598
15416TIP3    H267740   5.099   4.154  14.172  0.0639  2.0755  1.1085
15417TIP3   OH267741   5.817   2.915  16.240 -0.3965 -0.2231 -0.4931
15417TIP3    H167742   5.837   2.960  16.322  0.2685 -1.1949 -0.0983
15417TIP3    H267743   5.886   2.849  16.232 -0.9048 -0.6574 -1.4433
15418TIP3   OH267744   0.314   0.499   5.972  0.2830  0.2684  0.2557
15418TIP3    H167745   0.276   0.553   5.903  0.7132  0.6847  0.3347
15418TIP3    H267746   0.357   0.562   6.030  0.2575 -0.1090  0.6927
15419TIP3   OH267747   6.680   5.704  14.939  0.4609  0.3270 -0.5475
15419TIP3    H167748   6.762   5.740  14.974 -0.2782  0.2667  1.3266
15419TIP3    H267749   6.619   5.777  14.941  1.0397  1.1419 -4.4136
15420TIP3   OH267750   1.935   5.889  14.678  0.1569 -0.4630  0.4529
15420TIP3    H167751   1.924   5.936  14.595 -0.6767 -1.2130  0.1366
15420TIP3    H267752   1.874   5.816  14.674 -1.5987  0.7373  2.6652
15421TIP3   OH267753   0.569   1.740  14.249 -0.3269  0.2817 -0.2648
15421TIP3    H167754   0.633   1.719  14.316  1.8629  2.5490 -1.4883
15421TIP3    H267755   0.508   1.800  14.292  0.0245  0.3144  0.1936
15422TIP3   OH267756   6.307   3.581   3.577 -0.2515 -0.5761 -0.0225
15422TIP3    H167757   6.303   3.553   3.486 -1.1419 -0.0914 -0.1483
15422TIP3    H267758   6.332   3.674   3.572  1.4526 -0.9744  0.3272
15423TIP3   OH267759   5.328   3.844  12.752 -0.6867  0.1005 -0.0624
15423TIP3    H167760   5.300   3.929  12.720 -0.2321 -0.3835 -1.8581
15423TIP3    H267761   5.422   3.854  12.767 -0.8416  0.2341  0.8860
15424TIP3   OH267762   3.214   1.986  16.026 -0.6900 -0.3333  0.1094
15424TIP3    H167763   3.191   1.963  16.116 -0.4535 -0.9599  0.0159
15424TIP3    H267764   3.141   2.038  15.994 -0.1373  1.1372  1.1348
15425TIP3   OH267765   5.487   3.115   3.982  0.3646 -0.3056 -0.9053
15425TIP3    H167766   5.485   3.205   4.016 -0.6521  0.2180 -2.2421
15425TIP3    H267767   5.462   3.061   4.057  1.1591  0.4946 -0.0290
15426TIP3   OH267768   1.015   5.132  12.396 -0.0023 -0.4347 -0.5775
15426TIP3    H167769   0.940   5.189  12.381 -0.7434 -0.9400  0.9754
15426TIP3    H267770   0.983   5.064  12.455  2.0528  0.3283  1.6321
15427TIP3   OH267771   1.120   3.700   1.945 -0.2010  0.9106 -0.3989
15427TIP3    H167772   1.087   3.680   2.033  0.0986 -3.2676 -1.0289
15427TIP3    H267773   1.048   3.748   1.903 -2.2713 -0.8957  0.8293
15428TIP3   OH267774   4.154   2.956   0.535 -0.5436  0.0730  0.1037
15428TIP3    H167775   4.087   3.017   0.504 -0.2261 -0.3351 -1.4608
15428TIP3    H267776   4.236   3.004   0.525 -0.4584  0.0262  0.5661
15429TIP3   OH267777   1.576   1.094  11.273 -0.0118  0.4270  0.0558
15429TIP3    H167778   1.607   1.007  11.248 -0.0193  0.2854  0.5262
15429TIP3    H267779   1.636   1.155  11.229  0.4056  0.1718  0.2716
15430TIP3   OH267780   2.057   0.597   2.804  0.5868 -0.2575 -0.0282
15430TIP3    H167781   2.088   0.685   2.828  1.5079 -0.8747  1.1725
15430TIP3    H267782   2.082   0.587   2.712  1.0298  0.5101  0.0002
15431TIP3   OH267783   2.904   5.740  15.542 -0.5026 -0.2466 -0.2523
15431TIP3    H167784   2.870   5.679  15.477 -1.4485  0.4189 -0.4136
15431TIP3    H267785   2.878   5.701  15.626 -2.2629  0.5472 -0.3885
15432TIP3   OH267786   4.285   6.726   0.944  0.5668  0.5054  0.4427
15432TIP3    H167787   4.208   6.783   0.954  0.3513  0.1004  1.1847
15432TIP3    H267788   4.359   6.786   0.946  0.3421  0.7672  1.2547
15433TIP3   OH267789   5.334   5.040  10.422 -0.2998  0.1192 -0.1940
15433TIP3    H167790   5.254   5.084  10.449  0.6402  0.7742  1.7991
15433TIP3    H267791   5.305   4.959  10.381 -1.9879  0.7178 -0.2387
15434TIP3   OH267792   4.835   5.025   4.834  0.0429 -0.5229 -0.2371
15434TIP3    H167793   4.920   4.981   4.845  1.0297  1.3051 -0.1764
15434TIP3    H267794   4.818   5.066   4.919 -1.2966 -1.4710 -0.0157
15435TIP3   OH267795   1.080   5.530   4.728 -0.0726  0.4810 -0.1758
15435TIP3    H167796   1.081   5.557   4.636 -0.5927  0.8532 -0.0813
15435TIP3    H267797   1.172   5.513   4.750 -0.1891 -2.2857 -1.5184
15436TIP3   OH267798   2.075   4.420  15.297  0.1910  0.1166  0.4651
15436TIP3    H167799   2.098   4.350  15.358  1.9377 -1.0520 -1.4342
15436TIP3    H267800   2.015   4.379  15.235 -2.8901  1.7088  2.1320
15437TIP3   OH267801   4.720   2.113   0.322  0.5013 -0.2951 -0.6550
15437TIP3    H167802   4.792   2.060   0.290  1.2962  1.2381 -1.5180
15437TIP3    H267803   4.654   2.050   0.351  2.0413 -1.7144 -0.1588
15438TIP3   OH267804   0.632   5.548   2.098  0.3951 -0.5076  0.4393
15438TIP3    H167805   0.697   5.513   2.037  0.2218 -0.4311  0.2132
15438TIP3    H267806   0.593   5.471   2.139 -0.4767 -0.6116 -0.5581
15439TIP3   OH267807   6.534   3.564   3.910  0.8974 -0.3747  0.2805
15439TIP3    H167808   6.524   3.477   3.947  0.7924 -1.0310 -1.1981
15439TIP3    H267809   6.445   3.590   3.886  0.8182  0.5014  1.4478
15440TIP3   OH267810   5.815   4.091  13.052  0.2929  0.2510  0.3781
15440TIP3    H167811   5.721   4.106  13.044 -0.2854 -1.9367  1.9963
15440TIP3    H267812   5.853   4.178  13.064 -1.7508  1.0292  1.5743
15441TIP3   OH267813   2.951   5.244  15.032  0.0666 -0.2200  0.1332
15441TIP3    H167814   2.870   5.193  15.021  1.1182 -1.8307 -0.4357
15441TIP3    H267815   3.007   5.189  15.085  0.8191  0.8861  0.5183
15442TIP3   OH267816   6.807   1.420   2.370 -0.1225 -0.1127  0.6105
15442TIP3    H167817   6.734   1.361   2.387  2.3032 -2.8540  2.5395
15442TIP3    H267818   6.814   1.422   2.274 -2.0385 -0.6200  0.4272
15443TIP3   OH267819   1.783   4.163   4.331 -0.2354  0.4205 -0.1595
15443TIP3    H167820   1.746   4.252   4.331  1.1568  1.0308 -0.8305
15443TIP3    H267821   1.815   4.151   4.241 -1.6932 -1.3455 -0.4958
15444TIP3   OH267822   6.020   3.785   3.551  0.5351  0.1032 -0.4183
15444TIP3    H167823   6.097   3.808   3.604  0.4974 -1.9721  0.6045
15444TIP3    H267824   6.043   3.702   3.510 -1.1787 -0.5639 -0.0737
15445TIP3   OH267825   6.436   2.187  13.128 -0.2301 -0.0435  0.1800
15445TIP3    H167826   6.445   2.276  13.092  0.7713 -0.8541 -1.7093
15445TIP3    H267827   6.512   2.140  13.094 -1.9519 -2.2489 -0.8180
15446TIP3   OH267828   1.391   2.461  13.414  0.3643 -0.2707  0.2579
15446TIP3    H167829   1.343   2.416  13.344 -1.2004 -2.1039  2.3520
15446TIP3    H267830   1.457   2.397  13.442 -0.7151 -0.6399  2.0983
15447TIP3   OH267831   2.117   0.369   3.005 -0.3412 -0.0798  0.4423
15447TIP3    H167832   2.081   0.447   3.047  0.3464  0.1147  0.6936
15447TIP3    H267833   2.087   0.297   3.060 -0.9097  0.0167  0.2588
15448TIP3   OH267834   6.034   5.274   0.081  0.0840 -0.1914  0.0203
15448TIP3    H167835   6.069   5.220   0.151  0.6943  2.2084  1.6873
15448TIP3    H267836   6.105   5.334   0.058 -1.3371  1.6469  0.1400
15449TIP3   OH267837   5.663   6.139   4.863 -0.3452  0.6148  0.0406
15449TIP3    H167838   5.707   6.187   4.793 -1.4445 -0.6171 -1.5571
15449TIP3    H267839   5.576   6.119   4.828 -1.3546  0.9143  2.2023
15450TIP3   OH267840   4.224   4.438  14.034  0.8273  0.3444 -0.5387
15450TIP3    H167841   4.177   4.454  13.952 -0.1782 -0.5114 -0.1573
15450TIP3    H267842   4.289   4.508  14.039 -0.1148  1.3063 -1.3025
15451TIP3   OH267843   0.255   2.454  12.134 -0.1097  0.4279 -0.0099
15451TIP3    H167844   0.260   2.547  12.112  0.2689  1.1900  2.9210
15451TIP3    H267845   0.170   2.444  12.177 -0.8463 -0.9749 -1.6687
15452TIP3   OH267846   1.501   2.426  16.640 -0.5550  0.2593  0.8965
15452TIP3    H167847   1.416   2.468  16.626 -0.6431 -0.7045 -2.4265
15452TIP3    H267848   1.493   2.343  16.594  2.8472  1.0943 -1.5345
15453TIP3   OH267849   2.018   5.201  16.360  0.1451 -0.2226  0.1788
15453TIP3    H167850   1.933   5.241  16.343  1.3535  2.5915  0.0112
15453TIP3    H267851   2.011   5.165  16.449 -1.1000  0.3333  0.3272
15454TIP3   OH267852   0.017   4.029   4.470  0.2841 -0.7933 -0.1493
15454TIP3    H167853   0.043   4.066   4.555  0.7088 -0.9774 -0.1947
15454TIP3    H267854   0.013   4.104   4.411 -0.6741 -0.5697  0.1889
15455TIP3   OH267855   5.355   2.262   2.847  0.5027  0.5021 -0.5337
15455TIP3    H167856   5.315   2.319   2.782  0.7603  0.8564 -0.3867
15455TIP3    H267857   5.306   2.280   2.928 -0.0113 -0.1548 -0.6973
15456TIP3   OH267858   3.640   5.820   3.783 -0.0886  0.7526  0.0016
15456TIP3    H167859   3.672   5.762   3.852 -1.8126 -0.4831 -0.1851
15456TIP3    H267860   3.718   5.838   3.730  1.0388  0.8231  1.5879
15457TIP3   OH267861   4.338   5.230  12.921  0.1261 -0.1234  0.7507
15457TIP3    H167862   4.251   5.220  12.960  0.1217 -1.8629  0.4094
15457TIP3    H267863   4.326   5.206  12.829  0.2959  3.1306 -0.2334
15458TIP3   OH267864   2.293   5.550  16.556 -0.3661  0.0289  0.1193
15458TIP3    H167865   2.268   5.624  16.612 -1.4214  0.0986 -0.4209
15458TIP3    H267866   2.384   5.569  16.531 -0.9410  1.7013 -0.8531
15459TIP3   OH267867   2.952   0.583   2.128 -0.0184 -0.1722 -0.1141
15459TIP3    H167868   3.021   0.563   2.064  2.9581  2.1986  2.0696
15459TIP3    H267869   2.954   0.678   2.137 -0.0107 -0.3774  3.6721
15460TIP3   OH267870   4.153   4.717   5.731  0.1443 -0.0614  0.2270
15460TIP3    H167871   4.096   4.648   5.697 -1.7091  1.4026  0.2512
15460TIP3    H267872   4.095   4.790   5.751  2.0724  1.6579 -0.0705
15461TIP3   OH267873   6.760   4.417   1.390 -0.4255 -0.8464 -0.5208
15461TIP3    H167874   6.845   4.378   1.371 -1.0650 -2.1374 -0.7836
15461TIP3    H267875   6.725   4.442   1.305 -0.5843 -0.8743 -0.4637
15462TIP3   OH267876   6.356   1.238   2.439 -0.1811  0.2521 -0.0223
15462TIP3    H167877   6.377   1.324   2.475 -2.0862  0.5795  0.4354
15462TIP3    H267878   6.278   1.211   2.486 -0.1204 -1.3517 -0.7797
15463TIP3   OH267879   6.326   0.748  16.504 -0.6711  0.1525 -0.0422
15463TIP3    H167880   6.413   0.707  16.509 -1.4117 -1.7406 -1.5358
15463TIP3    H267881   6.332   0.808  16.430 -0.4492  0.5267  0.2762
15464TIP3   OH267882   2.517   2.741  14.521 -0.3828  0.2987 -0.0111
15464TIP3    H167883   2.452   2.803  14.554 -0.1735 -0.1803  1.3645
15464TIP3    H267884   2.518   2.755  14.427  0.5813  3.2710  0.3501
15465TIP3   OH267885   5.138   0.598   3.339 -0.5490  0.2422  0.1497
15465TIP3    H167886   5.074   0.589   3.268  0.0109 -0.0377 -0.3288
15465TIP3    H267887   5.107   0.673   3.390  1.0619  2.9697 -2.5434
15466TIP3   OH267888   3.674   6.324  12.577 -0.0014 -0.0113  0.5050
15466TIP3    H167889   3.655   6.231  12.587 -0.7624 -0.1199 -1.5213
15466TIP3    H267890   3.769   6.329  12.569  0.0625 -0.5745  0.8543
15467TIP3   OH267891   3.392   5.973  15.662  0.3661 -0.1195  0.3339
15467TIP3    H167892   3.473   5.992  15.614 -0.8740  1.0517 -1.4311
15467TIP3    H267893   3.335   5.932  15.597 -1.6657  2.2401  0.4692
15468TIP3   OH267894   2.782   4.584   0.410 -0.6098 -0.2811  0.2859
15468TIP3    H167895   2.731   4.504   0.418 -1.1766  0.1868  1.7147
15468TIP3    H267896   2.766   4.614   0.320 -0.5980 -1.6111 -0.1746
15469TIP3   OH267897   0.278   4.822  14.592  0.3669 -0.0335  0.0618
15469TIP3    H167898   0.354   4.841  14.536 -0.2478 -0.5550 -0.9810
15469TIP3    H267899   0.204   4.818  14.531 -0.2132 -1.3554  0.8161
15470TIP3   OH267900   1.062   0.656   2.235 -0.0308  0.0825  0.0367
15470TIP3    H167901   1.054   0.706   2.154  0.6990 -0.6132 -0.4826
15470TIP3    H267902   0.972   0.631   2.256 -0.2010  0.0345 -0.7105
15471TIP3   OH267903   1.567   2.737   0.532  0.0045 -0.1182  0.4127
15471TIP3    H167904   1.630   2.739   0.461 -1.1433 -0.8155 -0.6703
15471TIP3    H267905   1.593   2.809   0.590  0.6131  0.8627 -1.0331
15472TIP3   OH267906   0.002   5.640  11.590  0.1371 -0.3076  0.2722
15472TIP3    H167907   0.039   5.647  11.678 -1.6499 -1.1447  1.1429
15472TIP3    H267908  -0.087   5.674  11.599  0.1346  0.1929 -1.3770
15473TIP3   OH267909   5.135   6.506   4.659 -0.2174  0.7676 -0.0413
15473TIP3    H167910   5.143   6.433   4.598 -4.3210 -0.5866  0.6650
15473TIP3    H267911   5.199   6.488   4.728 -0.3584 -1.6360 -0.4542
15474TIP3   OH267912   5.853   3.960  16.398 -0.5268  0.0665 -0.0726
15474TIP3    H167913   5.860   3.866  16.415  0.6107  0.1381 -0.0614
15474TIP3    H267914   5.939   3.985  16.363 -0.8602  1.0734 -0.2139
15475TIP3   OH267915   1.651   2.488  15.853  0.3826  0.1199  0.0777
15475TIP3    H167916   1.599   2.420  15.896  0.4686  0.7097  1.1333
15475TIP3    H267917   1.713   2.517  15.920  1.1137  0.4433 -0.7186
15476TIP3   OH267918   3.687   4.150  12.427 -0.1573 -0.2359  0.5208
15476TIP3    H167919   3.704   4.069  12.474  1.3393 -0.0758  0.2860
15476TIP3    H267920   3.605   4.183  12.465 -0.4846 -1.5559  0.9987
15477TIP3   OH267921   4.667   6.698   5.395 -0.2720  0.0571  0.4088
15477TIP3    H167922   4.582   6.739   5.410  0.8092  2.0142  1.6112
15477TIP3    H267923   4.682   6.644   5.472  0.3303  1.1465  1.0778
15478TIP3   OH267924   0.357   4.627  12.703 -0.0356 -0.0551  0.1279
15478TIP3    H167925   0.437   4.584  12.673  1.2720  2.0551  0.4069
15478TIP3    H267926   0.317   4.661  12.623 -0.2821 -0.4819  0.0665
15479TIP3   OH267927   5.242   2.348  12.920 -0.2650  0.2487 -0.1280
15479TIP3    H167928   5.260   2.432  12.963 -1.8133  0.0443  1.0075
15479TIP3    H267929   5.217   2.371  12.831 -0.4979  0.9862  0.1206
15480TIP3   OH267930   0.989   4.332  11.344 -0.0762 -0.0343  0.6870
15480TIP3    H167931   0.985   4.302  11.435  0.0806 -1.0593  0.3578
15480TIP3    H267932   0.981   4.253  11.292  0.7608  0.4495 -0.1901
15481TIP3   OH267933   0.557   5.220   4.026  0.1533  0.2732  0.3717
15481TIP3    H167934   0.516   5.194   4.108 -0.1136 -1.4668 -0.2826
15481TIP3    H267935   0.647   5.190   4.033 -0.0135 -0.3797 -0.1767
15482TIP3   OH267936   4.780   5.663   0.498  0.3947 -0.2407  0.1868
15482TIP3    H167937   4.732   5.731   0.545  1.2196  0.0780  0.5834
15482TIP3    H267938   4.733   5.582   0.518 -0.6200  0.2058 -0.3180
15483TIP3   OH267939   5.155   2.953  14.169 -0.1745 -0.1659 -0.3130
15483TIP3    H167940   5.227   2.916  14.118  1.2233  0.8343  0.8646
15483TIP3    H267941   5.188   2.956  14.259 -1.8058  0.0376  0.3072
15484TIP3   OH267942   4.161   0.897   3.318 -0.1942 -0.2685 -0.2976
15484TIP3    H167943   4.141   0.972   3.375 -1.4837 -1.3367  0.7394
15484TIP3    H267944   4.248   0.870   3.344 -0.4469 -0.2401  0.6273
15485TIP3   OH267945   1.931   0.059  15.543  0.0369 -0.6044  0.6154
15485TIP3    H167946   1.982   0.139  15.552 -0.2745 -0.2361 -0.7392
15485TIP3    H267947   1.997  -0.010  15.531  0.2477 -0.0879 -1.4666
15486TIP3   OH267948   4.490   4.196  12.655 -0.1865  0.1267  0.2889
15486TIP3    H167949   4.517   4.122  12.710  0.3457  0.9226  1.1286
15486TIP3    H267950   4.439   4.156  12.584 -0.3785 -0.9915  1.0275
15487TIP3   OH267951   4.435   1.274  14.151  0.4484  0.6034  0.2798
15487TIP3    H167952   4.418   1.331  14.225  0.8055  0.8736  0.1577
15487TIP3    H267953   4.387   1.314  14.078  1.4439  1.2836 -0.0304
15488TIP3   OH267954   3.266   5.965   0.653 -0.6091 -0.2862 -0.1111
15488TIP3    H167955   3.251   6.048   0.699  0.4267 -0.0641 -0.1307
15488TIP3    H267956   3.359   5.969   0.628 -0.3764 -1.7179  0.4259
15489TIP3   OH267957   4.333   0.813  16.657 -0.2128 -0.1005 -0.1014
15489TIP3    H167958   4.238   0.820  16.647 -0.3663  0.6882  1.4965
15489TIP3    H267959   4.357   0.888  16.712  0.9195 -1.7491  1.8179
15490TIP3   OH267960   4.627   5.975   3.819 -0.3013  0.0478  0.0173
15490TIP3    H167961   4.676   5.972   3.902  2.0520  0.2237 -1.2888
15490TIP3    H267962   4.563   5.904   3.828 -0.5310  0.4418  2.2044
15491TIP3   OH267963   3.485   3.661   0.841 -0.6032  0.6446  0.5997
15491TIP3    H167964   3.443   3.624   0.918 -0.7459  0.3623  0.3855
15491TIP3    H267965   3.555   3.717   0.877 -1.1834  1.1549  0.9563
15492TIP3   OH267966   1.137   2.218  16.396 -0.3169 -0.2268  0.4789
15492TIP3    H167967   1.115   2.125  16.392  0.7440 -0.4923  0.4284
15492TIP3    H267968   1.107   2.245  16.483  1.6161 -1.2669  1.5618
15493TIP3   OH267969   0.158   6.772  12.276  0.2613  0.3344 -0.2658
15493TIP3    H167970   0.126   6.682  12.271 -0.0908  0.4857 -0.8835
15493TIP3    H267971   0.231   6.769  12.338 -0.5569 -0.1322  0.6940
15494TIP3   OH267972   3.222   0.287  16.505  0.4705  0.3313  0.1103
15494TIP3    H167973   3.196   0.309  16.416  1.9685  1.2793 -0.1220
15494TIP3    H267974   3.224   0.191  16.507 -0.8885  0.2637 -0.4472
15495TIP3   OH267975   5.484   1.453  13.939  0.1532  0.1518 -0.0585
15495TIP3    H167976   5.479   1.473  14.032  0.5724  0.6468 -0.1389
15495TIP3    H267977   5.457   1.534  13.895  0.7109  0.1704 -0.3747
15496TIP3   OH267978   1.088   0.787  13.497  0.0477 -0.2409  0.1931
15496TIP3    H167979   1.137   0.798  13.578 -0.0816  0.2796  0.2082
15496TIP3    H267980   1.034   0.710  13.510  1.1581 -1.0647  0.0284
15497TIP3   OH267981   4.438   5.268   2.037  0.4158  0.7102  0.1422
15497TIP3    H167982   4.369   5.202   2.036  0.4737  0.6209  0.9939
15497TIP3    H267983   4.393   5.350   2.018  0.1022  0.6195  0.4766
15498TIP3   OH267984   4.080   5.000   0.273 -0.1215 -0.5364 -0.4175
15498TIP3    H167985   4.146   5.004   0.205  0.5210  0.2278  0.2150
15498TIP3    H267986   4.116   4.940   0.338 -0.2854 -0.5257 -0.3170
15499TIP3   OH267987   2.267   5.127  15.533  0.0373  0.3340  0.3765
15499TIP3    H167988   2.305   5.149  15.618 -0.8870  0.5482  0.7399
15499TIP3    H267989   2.202   5.195  15.516 -0.7469 -0.4509  0.1343
15500TIP3   OH267990   1.355   3.835  11.309  0.3414  0.1280  0.1098
15500TIP3    H167991   1.272   3.790  11.322  0.4016 -0.2185 -0.6925
15500TIP3    H267992   1.364   3.844  11.214  2.6738 -2.6235 -0.0551
15501TIP3   OH267993   0.245   1.775   2.224 -0.1721  0.2961  0.3332
15501TIP3    H167994   0.177   1.812   2.168 -0.1774  0.0649  0.1885
15501TIP3    H267995   0.327   1.796   2.180 -0.1750  0.1331  0.2537
15502TIP3   OH267996   5.527   4.663  15.958 -0.7429 -0.1271 -0.7871
15502TIP3    H167997   5.558   4.574  15.944 -0.5235 -0.0525 -0.7847
15502TIP3    H267998   5.477   4.659  16.040  2.4098  0.4704  1.3832
15503TIP3   OH267999   2.622   1.106  11.394 -0.3409 -0.2820  0.2279
15503TIP3    H168000   2.591   1.032  11.445 -3.1530  0.5537 -0.1120
15503TIP3    H268001   2.545   1.161  11.382  0.1275 -0.2710 -4.6916
15504TIP3   OH268002   6.408   6.534  14.864 -0.2443 -0.4318 -0.0085
15504TIP3    H168003   6.424   6.613  14.916 -1.6281 -0.9122  1.1902
15504TIP3    H268004   6.465   6.468  14.903 -0.0097 -0.3516 -0.2133
15505TIP3   OH268005   0.952   3.191  11.051  0.5861  0.0337  0.0533
15505TIP3    H168006   0.969   3.110  11.003  0.6294  0.1678 -0.1613
15505TIP3    H268007   0.891   3.240  10.995 -0.1365 -0.2325  0.5999
15506TIP3   OH268008   2.715   2.193  12.289 -0.0153  0.0260  0.0088
15506TIP3    H168009   2.714   2.226  12.379  1.8326  1.7118 -0.5283
15506TIP3    H268010   2.755   2.263  12.238  2.7787 -2.4227 -1.4578
15507TIP3   OH268011   4.757   5.749  12.101  0.4296 -0.1540  0.4901
15507TIP3    H168012   4.778   5.683  12.167 -0.0660 -1.7378 -0.8567
15507TIP3    H268013   4.733   5.698  12.023  1.8196  1.6312 -1.2013
15508TIP3   OH268014   3.580   2.295  12.125  0.0640  0.5899 -0.0691
15508TIP3    H168015   3.585   2.210  12.170  0.2844  0.4940 -0.2742
15508TIP3    H268016   3.667   2.333  12.135 -0.4856  1.5413  1.4637
15509TIP3   OH268017   1.207   0.124  14.354 -0.1431 -0.1454 -0.2495
15509TIP3    H168018   1.200   0.111  14.259 -0.0240  0.1850 -0.3037
15509TIP3    H268019   1.301   0.119  14.372  0.1678  2.8686 -0.6074
15510TIP3   OH268020   5.266   2.960   5.105 -0.6672 -0.2464  0.0069
15510TIP3    H168021   5.351   2.947   5.148 -1.2889 -2.1043  0.7764
15510TIP3    H268022   5.235   2.871   5.087 -0.6735  0.3849 -3.9655
15511TIP3   OH268023   6.364   3.697   1.989  0.4897 -0.1461 -0.0062
15511TIP3    H168024   6.424   3.697   2.063  2.2323 -0.1942 -1.3504
15511TIP3    H268025   6.421   3.691   1.912 -1.2421 -0.0261 -1.3599
15512TIP3   OH268026   4.276   2.146   5.007 -0.1753  0.5001 -0.3097
15512TIP3    H168027   4.367   2.150   5.037  0.1715  0.7623 -1.3377
15512TIP3    H268028   4.261   2.231   4.966  0.3624 -0.7810 -3.4714
15513TIP3   OH268029   5.771   5.536   0.537 -0.4038 -0.0215 -0.3707
15513TIP3    H168030   5.783   5.495   0.451 -0.2492  1.0189 -0.8546
15513TIP3    H268031   5.837   5.605   0.540  0.2728 -0.6815  1.0082
15514TIP3   OH268032   0.339   0.597   0.718 -0.4217 -0.2164 -0.1465
15514TIP3    H168033   0.258   0.572   0.675  0.4421  0.7934 -2.5009
15514TIP3    H268034   0.367   0.677   0.674  1.0777  0.3195  1.6431
15515TIP3   OH268035   3.282   0.672  15.826  0.2229 -0.7824  0.0562
15515TIP3    H168036   3.234   0.651  15.907 -1.0529 -0.9807 -0.7185
15515TIP3    H268037   3.218   0.657  15.756  0.4456  1.9535 -0.8384
15516TIP3   OH268038   1.533   0.561  15.161 -0.5100 -0.7260  0.5750
15516TIP3    H168039   1.589   0.584  15.087 -0.8293 -0.2340  0.4771
15516TIP3    H268040   1.573   0.606  15.236  0.7950 -2.5838  1.0667
15517TIP3   OH268041   5.310   2.772   2.034  0.3083  0.1418  0.1861
15517TIP3    H168042   5.356   2.699   1.990  1.4339  0.2388  1.1487
15517TIP3    H268043   5.381   2.829   2.064 -0.5650  1.8433 -0.8537
15518TIP3   OH268044   3.474   2.591  15.753 -0.2528  0.0670 -0.0379
15518TIP3    H168045   3.483   2.670  15.807 -0.4989  1.5829 -2.0727
15518TIP3    H268046   3.542   2.600  15.686  0.4735 -2.0691  0.3566
15519TIP3   OH268047   1.456   0.002  15.596 -0.0621  0.0986  0.3004
15519TIP3    H168048   1.529   0.039  15.646  2.7101 -3.4737 -0.7233
15519TIP3    H268049   1.416  -0.062  15.655 -1.5062  0.9973  0.3417
15520TIP3   OH268050   5.184   3.047   2.100 -0.1133  0.2750  0.4864
15520TIP3    H168051   5.222   2.968   2.138  0.3994 -0.5585 -1.6503
15520TIP3    H268052   5.115   3.015   2.042  1.6659  1.1565 -2.2773
15521TIP3   OH268053   2.754   3.125   0.749  0.2502 -0.2244 -0.2376
15521TIP3    H168054   2.755   3.030   0.764  1.8804  0.2007  3.1631
15521TIP3    H268055   2.839   3.145   0.711  0.8802  0.1083  1.2917
15522TIP3   OH268056   0.988   5.204  14.571 -0.5102  0.0072 -0.6073
15522TIP3    H168057   0.980   5.262  14.495  2.6984 -0.5934 -1.5653
15522TIP3    H268058   1.026   5.259  14.639 -1.7948  0.1168  0.0468
15523TIP3   OH268059   4.000   0.760   0.025 -0.6272  0.0340  0.5657
15523TIP3    H168060   4.033   0.848   0.044 -0.8331  0.4698 -0.9720
15523TIP3    H268061   3.958   0.732   0.106 -1.5704  1.8295  0.7474
15524TIP3   OH268062   1.712   2.356   2.203 -0.6011  0.4069  0.2959
15524TIP3    H168063   1.751   2.400   2.128  1.5752  0.5356  1.4300
15524TIP3    H268064   1.633   2.315   2.168  0.6529 -0.0614 -2.2071
15525TIP3   OH268065   6.451   1.337   1.635 -0.0828 -0.2057  0.0464
15525TIP3    H168066   6.401   1.406   1.592  0.9264  1.1874  1.0017
15525TIP3    H268067   6.411   1.328   1.722  1.2872  0.9586  0.8377
15526TIP3   OH268068   0.424   6.179  15.470 -0.1212  0.7010  0.4039
15526TIP3    H168069   0.486   6.162  15.541  0.2217  1.2483  0.2386
15526TIP3    H268070   0.476   6.221  15.402 -0.0625 -1.3199 -0.8856
15527TIP3   OH268071   3.139   4.362   3.943 -0.5845 -0.3143  0.1367
15527TIP3    H168072   3.133   4.436   4.004 -1.9394 -0.7684  0.6087
15527TIP3    H268073   3.184   4.397   3.866  1.4111  0.2076  1.4749
15528TIP3   OH268074   1.984   2.426   2.799 -0.4431  0.0911  0.0748
15528TIP3    H168075   2.015   2.516   2.803  1.5636 -0.5161 -0.3298
15528TIP3    H268076   2.055   2.375   2.838 -1.2740 -1.3597 -0.2369
15529TIP3   OH268077   2.208   4.137   6.225 -0.0887 -0.0150  0.0745
15529TIP3    H168078   2.179   4.223   6.255 -1.7680 -0.4073 -0.2927
15529TIP3    H268079   2.304   4.141   6.228  0.0131  2.7639 -2.3668
15530TIP3   OH268080   6.424   0.887   6.379  0.3649  0.1046 -0.0489
15530TIP3    H168081   6.410   0.968   6.428  2.2752 -0.4271  1.5249
15530TIP3    H268082   6.505   0.902   6.331  1.2256 -1.1208  0.9511
15531TIP3   OH268083   5.762   4.451  12.851 -0.1838 -0.0322  0.6929
15531TIP3    H168084   5.717   4.535  12.847  0.6096  0.3304 -1.5214
15531TIP3    H268085   5.846   4.470  12.893 -0.0975  0.2256  0.4025
15532TIP3   OH268086   1.315   5.061  11.604 -0.1143  0.2047  0.2354
15532TIP3    H168087   1.298   4.968  11.610  1.5930 -0.0564  2.1638
15532TIP3    H268088   1.310   5.080  11.510  0.4312 -2.0119 -0.3014
15533TIP3   OH268089   2.829   1.677   3.559  0.0251 -0.0053  0.2124
15533TIP3    H168090   2.803   1.666   3.650  0.2028  0.6201  0.3462
15533TIP3    H268091   2.748   1.671   3.509 -0.3655  1.6464  0.5963
15534TIP3   OH268092   6.185   1.325  15.594  0.2220 -0.5433 -0.0712
15534TIP3    H168093   6.098   1.321  15.553  1.4614  0.2231 -3.0691
15534TIP3    H268094   6.206   1.234  15.614 -0.8568 -0.8482 -0.2663
15535TIP3   OH268095   0.511   4.508   6.306 -0.2750  0.5825 -0.1276
15535TIP3    H168096   0.530   4.571   6.375 -2.0340 -0.1210  1.0936
15535TIP3    H268097   0.461   4.438   6.350  1.0592 -1.3783 -1.5260
15536TIP3   OH268098   1.356   3.717   0.652 -0.2000 -0.1294 -0.1064
15536TIP3    H168099   1.331   3.769   0.728  0.0326  0.1459 -0.2174
15536TIP3    H268100   1.443   3.684   0.674 -1.2123 -2.3091  0.9255
15537TIP3   OH268101   4.742   3.381   3.431  0.2434 -0.3089  0.0562
15537TIP3    H168102   4.732   3.397   3.525  0.4713 -0.3283  0.0844
15537TIP3    H268103   4.656   3.349   3.403 -0.0248  0.3387  0.1256
15538TIP3   OH268104   1.051   1.505  15.986  0.1829 -0.0516  0.0021
15538TIP3    H168105   1.007   1.589  15.987 -0.1654 -0.2263 -0.5977
15538TIP3    H268106   1.132   1.520  15.936 -0.6749 -0.4567 -1.5691
15539TIP3   OH268107   0.507   3.720  13.508 -0.4080  0.1840  0.4762
15539TIP3    H168108   0.423   3.739  13.550 -0.0909 -1.2671  1.8478
15539TIP3    H268109   0.572   3.761  13.565 -0.1314  1.0399 -0.4171
15540TIP3   OH268110   0.645   2.253  13.228 -0.1522 -0.2530 -0.5279
15540TIP3    H168111   0.639   2.325  13.290  0.8464 -0.7800  0.2068
15540TIP3    H268112   0.733   2.260  13.191  1.1423 -2.7039  1.6734
15541TIP3   OH268113   4.697   0.402   2.069 -0.8040 -0.3305 -0.2435
15541TIP3    H168114   4.745   0.319   2.074 -1.4665 -0.9935 -2.7989
15541TIP3    H268115   4.613   0.384   2.111 -1.4000 -1.4137 -1.7865
15542TIP3   OH268116   2.515   3.932   4.015 -1.1468  0.4007 -0.1652
15542TIP3    H168117   2.545   3.895   4.098 -0.7659  1.3370  0.1208
15542TIP3    H268118   2.548   3.872   3.948  0.6983  0.9774  0.1869
15543TIP3   OH268119   6.537   4.059  12.362 -1.0180 -0.0886  0.1837
15543TIP3    H168120   6.460   4.084  12.413 -0.5285  1.9921 -0.0171
15543TIP3    H268121   6.501   4.015  12.285 -2.1199  1.7060 -0.3984
15544TIP3   OH268122   2.210   3.344  16.749 -0.3905  0.0812  0.1105
15544TIP3    H168123   2.120   3.352  16.716  0.4380  0.8194 -2.1268
15544TIP3    H268124   2.213   3.257  16.788 -2.3484  0.4447  1.2322
15545TIP3   OH268125   4.807   0.177  13.062  0.3384 -0.1415  0.5807
15545TIP3    H168126   4.779   0.102  13.010  2.0009 -0.5465  0.2115
15545TIP3    H268127   4.887   0.147  13.106  0.5588  1.1374  1.1013
15546TIP3   OH268128   4.676   4.706  16.431  0.4846 -0.2030 -0.3925
15546TIP3    H168129   4.727   4.679  16.354  0.1187  0.6277 -0.9371
15546TIP3    H268130   4.636   4.625  16.462  0.2108 -0.4689 -1.4019
15547TIP3   OH268131   5.143   5.175  13.548  0.1337  0.0305  0.0509
15547TIP3    H168132   5.171   5.106  13.488 -1.5460 -2.1287  1.6038
15547TIP3    H268133   5.216   5.184  13.610  0.6932  0.2653 -0.6260
15548TIP3   OH268134   5.776   5.035  14.559 -0.0557 -0.1726 -0.2174
15548TIP3    H168135   5.767   5.019  14.652  1.6599 -0.9739 -0.1491
15548TIP3    H268136   5.837   4.968  14.528 -0.1235  0.4384 -1.7986
15549TIP3   OH268137   4.745   2.118  11.843  0.5681 -0.1962  0.0582
15549TIP3    H168138   4.747   2.037  11.894  1.1629  0.1684  0.6265
15549TIP3    H268139   4.829   2.120  11.796  0.5601  0.0922  0.0516
15550TIP3   OH268140   4.155   3.518  13.146 -0.1924 -0.1998  0.1469
15550TIP3    H168141   4.156   3.607  13.180  2.3744  0.4557 -1.3879
15550TIP3    H268142   4.153   3.463  13.225 -0.7276  1.1891  1.1481
15551TIP3   OH268143   4.202   3.181   1.967  0.0136  0.3695 -0.1214
15551TIP3    H168144   4.132   3.171   1.902  0.9268  0.0834 -1.0917
15551TIP3    H268145   4.264   3.241   1.926  0.0413  1.1516  1.0061
15552TIP3   OH268146   0.639   2.962   3.326  0.0551  0.1204  0.2282
15552TIP3    H168147   0.575   2.943   3.394  1.7325 -0.5759  1.7155
15552TIP3    H268148   0.665   3.053   3.342 -0.5351  0.3910 -0.3501
15553TIP3   OH268149   0.226   4.973  13.357  0.1158 -0.4012 -0.5027
15553TIP3    H168150   0.261   4.991  13.444 -1.0069  1.1124 -0.3409
15553TIP3    H268151   0.264   4.888  13.334 -1.3590 -1.9790  2.3929
15554TIP3   OH268152   2.732   0.770   6.250  0.0233 -0.5370  0.0984
15554TIP3    H168153   2.657   0.771   6.308  1.1099 -0.7505  1.5570
15554TIP3    H268154   2.752   0.862   6.235 -0.5790 -0.4786 -0.3875
15555TIP3   OH268155   4.116   2.365   6.047  0.0387  0.3241 -0.4669
15555TIP3    H168156   4.183   2.354   5.980 -0.6833  0.6986 -1.2789
15555TIP3    H268157   4.108   2.460   6.057 -0.9568  0.3074 -1.0031
15556TIP3   OH268158   4.474   3.450  10.747 -0.8693 -0.4357 -0.7077
15556TIP3    H168159   4.493   3.366  10.788  0.0813  0.5205  0.9042
15556TIP3    H268160   4.379   3.449  10.735 -1.1880 -0.8422  1.4167
15557TIP3   OH268161   5.034   4.323  16.001 -0.5663 -0.2368 -0.5507
15557TIP3    H168162   4.943   4.324  15.971 -1.2700 -0.8580  1.3918
15557TIP3    H268163   5.086   4.326  15.920 -2.2836  0.9737 -1.6734
15558TIP3   OH268164   1.090   0.934   1.069  0.0194 -0.3267  0.0588
15558TIP3    H168165   1.079   1.021   1.031  1.0385 -1.2062 -2.5113
15558TIP3    H268166   1.177   0.906   1.039  0.0760 -1.9167  1.5341
15559TIP3   OH268167   4.779   4.519  12.256  0.6695  0.2949 -0.2717
15559TIP3    H168168   4.774   4.614  12.243 -1.8016  0.4046  0.8424
15559TIP3    H268169   4.832   4.509  12.335 -1.5063  1.0652  1.4208
15560TIP3   OH268170   0.661   2.364  14.213  0.1703 -0.1141 -0.7340
15560TIP3    H168171   0.663   2.289  14.272 -0.1052 -0.4502 -1.1379
15560TIP3    H268172   0.751   2.371  14.180  0.9975  1.7025  1.6791
15561TIP3   OH268173   2.202   1.007   0.910  0.2185 -0.2051  0.3812
15561TIP3    H168174   2.270   1.069   0.937  0.1512  1.5476 -2.9879
15561TIP3    H268175   2.250   0.926   0.889  0.7317 -0.2525  1.6514
15562TIP3   OH268176   5.691   6.550  16.646  0.6204  0.3232  0.2260
15562TIP3    H168177   5.679   6.643  16.629 -0.2985  0.4346  1.2866
15562TIP3    H268178   5.778   6.543  16.684  0.4911  0.8353  0.6285
15563TIP3   OH268179   6.810   3.743  12.145  0.0493 -0.4721 -0.5160
15563TIP3    H168180   6.726   3.698  12.140 -0.2350  0.0892 -0.8581
15563TIP3    H268181   6.791   3.823  12.194  0.8705 -1.4479  1.4945
15564TIP3   OH268182   4.754   1.449  15.842 -0.2232 -0.3005  0.3848
15564TIP3    H168183   4.659   1.464  15.844 -0.3340 -0.9654  2.5510
15564TIP3    H268184   4.792   1.537  15.845 -0.7446 -0.0428 -0.2198
15565TIP3   OH268185   2.348   5.510   4.580 -0.3889  0.1871 -0.1788
15565TIP3    H168186   2.353   5.453   4.503 -0.0378  0.6720 -0.5216
15565TIP3    H268187   2.416   5.576   4.565  2.5012 -1.9238  2.3500
15566TIP3   OH268188   5.610   1.409  11.802  0.1635 -0.1975 -0.6323
15566TIP3    H168189   5.542   1.344  11.819  1.8670 -1.4210  2.2297
15566TIP3    H268190   5.601   1.472  11.874  0.9040  0.6815 -1.2835
15567TIP3   OH268191   3.067   5.782   3.525  0.3596 -0.0046 -0.3785
15567TIP3    H168192   3.157   5.793   3.556 -0.4274 -0.0581  2.1929
15567TIP3    H268193   3.070   5.807   3.433  2.8618  0.6424 -0.1944
15568TIP3   OH268194   6.383   6.474  13.566  0.2596 -0.6507  0.3337
15568TIP3    H168195   6.449   6.531  13.607 -0.6728  0.0309  0.9338
15568TIP3    H268196   6.340   6.431  13.640 -0.0528 -0.9878 -0.0397
15569TIP3   OH268197   0.248   1.281   1.143  0.9785 -0.1968 -0.1850
15569TIP3    H168198   0.285   1.307   1.228 -0.7594  1.9053  0.0229
15569TIP3    H268199   0.227   1.188   1.153  1.7680 -0.2446  1.3171
15570TIP3   OH268200   0.922   3.684  15.369  0.1735  0.0869 -0.4763
15570TIP3    H168201   0.882   3.596  15.371 -0.7436  0.4827 -0.7644
15570TIP3    H268202   1.015   3.668  15.381 -0.1903 -0.8004  1.7461
15571TIP3   OH268203   0.964   4.012  16.247 -0.0795 -0.1169 -0.0918
15571TIP3    H168204   1.020   4.071  16.196 -1.2902 -0.3684 -1.8135
15571TIP3    H268205   0.975   3.927  16.205 -1.9798 -0.0946 -0.7296
15572TIP3   OH268206   3.513   5.954  14.810  0.5750 -0.3474 -0.0098
15572TIP3    H168207   3.437   5.902  14.786 -0.1517  0.3319  0.7474
15572TIP3    H268208   3.514   6.026  14.746 -0.0471  0.2207  0.6020
15573TIP3   OH268209   6.742   5.459  15.664 -0.0569 -0.0133 -0.1176
15573TIP3    H168210   6.674   5.443  15.599  0.3845 -0.0137 -0.5860
15573TIP3    H268211   6.699   5.512  15.731 -0.6598 -0.4582 -0.1402
15574TIP3   OH268212   2.659   6.077   0.429 -0.5367  0.1262  0.6473
15574TIP3    H168213   2.588   6.126   0.387  0.6802  1.2436 -0.1964
15574TIP3    H268214   2.680   6.007   0.368  0.9915  1.5376 -0.5380
15575TIP3   OH268215   6.380   3.444   4.875  0.1411  0.4604  0.0266
15575TIP3    H168216   6.405   3.377   4.939 -0.0158  0.2839 -0.0956
15575TIP3    H268217   6.395   3.527   4.920 -0.8410  0.3272  0.6255
15576TIP3   OH268218   0.602   6.431  17.009  0.2441  0.0673  0.1200
15576TIP3    H168219   0.641   6.511  16.973 -0.1063  0.3314  0.3187
15576TIP3    H268220   0.618   6.437  17.103 -0.1446  0.1040  0.1822
15577TIP3   OH268221   6.212   0.569  12.734 -0.1604  0.0624  0.0465
15577TIP3    H168222   6.220   0.655  12.776 -0.7735 -0.0894  0.4757
15577TIP3    H268223   6.258   0.509  12.793  0.8996  0.2007 -0.6125
15578TIP3   OH268224   6.607   0.381  15.726 -0.4303  0.2429  0.5834
15578TIP3    H168225   6.564   0.447  15.781  1.5601 -0.1447  2.7653
15578TIP3    H268226   6.565   0.299  15.751 -0.1271  0.1817  0.9033
15579TIP3   OH268227   6.587   2.436  11.610  0.3806  0.0941  0.6340
15579TIP3    H168228   6.541   2.476  11.537  1.2430  1.7409  0.9503
15579TIP3    H268229   6.539   2.464  11.688  0.5613 -0.1026  0.8201
15580TIP3   OH268230   1.884   0.840  16.126  0.4309  0.1263 -0.3267
15580TIP3    H168231   1.870   0.914  16.066 -0.5270  0.8488  0.7611
15580TIP3    H268232   1.976   0.848  16.152  0.6608  0.2237 -1.1237
15581TIP3   OH268233   2.187   3.806  13.179 -0.5761 -0.1940  0.3069
15581TIP3    H168234   2.245   3.759  13.239  0.6239 -0.3502 -0.9291
15581TIP3    H268235   2.183   3.895  13.214  0.5350 -0.1444  0.3394
15582TIP3   OH268236   3.437   0.575   5.408  0.1679 -0.2944  0.2933
15582TIP3    H168237   3.527   0.601   5.427  0.3555 -0.2623 -0.6222
15582TIP3    H268238   3.420   0.502   5.467  1.2352 -1.1599 -0.4385
15583TIP3   OH268239   4.907   6.252  11.198 -0.0634  0.2013 -0.0294
15583TIP3    H168240   4.839   6.316  11.174 -1.3724 -0.6240  1.2984
15583TIP3    H268241   4.864   6.196  11.263  1.0443 -2.0186 -1.1421
15584TIP3   OH268242   5.337   2.734   0.620  0.5889  0.1710  0.8365
15584TIP3    H168243   5.336   2.728   0.524  0.6312 -0.0395  0.8477
15584TIP3    H268244   5.326   2.644   0.649 -1.1492  0.4273  1.0530
15585TIP3   OH268245   4.923   3.467  14.627  0.1025  0.6205 -0.0759
15585TIP3    H168246   4.839   3.509  14.612 -0.2481 -0.1598 -0.3592
15585TIP3    H268247   4.942   3.421  14.544  1.4108  1.8150 -0.4819
15586TIP3   OH268248   0.968   0.461  13.102 -0.3274 -0.2390 -0.1165
15586TIP3    H168249   0.957   0.447  13.196 -0.6541  0.5090 -0.0339
15586TIP3    H268250   0.902   0.405  13.061  0.4056 -1.2490  0.0489
15587TIP3   OH268251   1.131   6.212  14.797 -0.0143  0.3856 -0.4264
15587TIP3    H168252   1.177   6.136  14.833  0.6385  0.9900  0.0425
15587TIP3    H268253   1.041   6.203  14.829  0.2816  0.3011  0.4036
15588TIP3   OH268254   2.468   5.853   2.253  0.4808 -0.0652 -0.0985
15588TIP3    H168255   2.473   5.878   2.345 -2.0150 -0.6601  0.2933
15588TIP3    H268256   2.436   5.931   2.208  1.1166  0.0447 -0.3634
15589TIP3   OH268257   2.531   4.163  15.671  0.4082  0.8195 -0.2804
15589TIP3    H168258   2.597   4.223  15.635  1.3816  0.8053  1.3494
15589TIP3    H268259   2.582   4.094  15.713 -0.7007 -0.6980 -1.3449
15590TIP3   OH268260   2.461   0.412  10.505 -0.5607 -0.6847 -0.1359
15590TIP3    H168261   2.477   0.473  10.433 -1.0765  1.4396  1.4256
15590TIP3    H268262   2.374   0.376  10.488  0.0892 -1.6613 -1.5042
15591TIP3   OH268263   5.418   5.999  10.683  0.0449  0.5194 -0.5999
15591TIP3    H168264   5.326   5.978  10.666 -0.1016  1.3741 -0.8635
15591TIP3    H268265   5.467   5.928  10.640 -0.4670  0.3746 -0.9530
15592TIP3   OH268266   3.637   2.045  12.580 -0.4869 -0.2299  0.3113
15592TIP3    H168267   3.639   1.961  12.626  0.8502 -0.7441 -0.6036
15592TIP3    H268268   3.694   2.102  12.632 -1.1813  0.0346  0.7865
15593TIP3   OH268269   3.854   4.149  12.113 -0.2540 -0.2887  0.3952
15593TIP3    H168270   3.842   4.057  12.093 -2.5027 -0.1637  0.8824
15593TIP3    H268271   3.835   4.156  12.207 -2.1913  0.9429 -0.0499
15594TIP3   OH268272   6.718   0.820  15.322  0.3153 -0.0746  0.3927
15594TIP3    H168273   6.714   0.892  15.384 -0.4005 -0.2666  0.5814
15594TIP3    H268274   6.810   0.816  15.295  0.2170  1.4792 -0.3012
15595TIP3   OH268275   6.674   0.051  15.161 -0.1235 -0.4913 -0.3207
15595TIP3    H168276   6.587   0.082  15.189  0.4435 -0.1076  1.1219
15595TIP3    H268277   6.688   0.093  15.076 -1.5085 -0.8792 -0.7789
15596TIP3   OH268278   5.915   3.869   0.142 -0.0621 -0.0939 -0.7549
15596TIP3    H168279   5.950   3.922   0.071  0.7175  0.4055 -0.0189
15596TIP3    H268280   5.916   3.927   0.218 -0.0185 -0.8962 -0.1341
15597TIP3   OH268281   0.795   4.662  16.703  0.4278 -0.0658 -0.2119
15597TIP3    H168282   0.747   4.744  16.715  1.4336  0.4245  0.7487
15597TIP3    H268283   0.763   4.605  16.773  0.9598  0.1326  0.2004
15598TIP3   OH268284   2.541   3.242   2.355  0.4076 -0.4534 -0.2532
15598TIP3    H168285   2.516   3.159   2.316  0.0308 -1.6018  2.1937
15598TIP3    H268286   2.459   3.276   2.393  1.1614 -0.8227  1.8661
15599TIP3   OH268287   2.242   4.600   4.613  0.2930 -0.0499 -0.3441
15599TIP3    H168288   2.278   4.688   4.624 -0.3422  0.2003 -0.1919
15599TIP3    H268289   2.296   4.560   4.545 -0.3205  0.9956 -1.5110
15600TIP3   OH268290   0.835   4.410   0.497 -0.6898 -1.0375  0.3183
15600TIP3    H168291   0.925   4.408   0.467 -0.4292  2.0733  0.6301
15600TIP3    H268292   0.839   4.385   0.590  0.2255  1.1486  0.9258
15601TIP3   OH268293   2.615   6.365   2.682 -0.5455 -0.0003 -0.1008
15601TIP3    H168294   2.634   6.456   2.708 -0.0765  0.0461 -0.6087
15601TIP3    H268295   2.606   6.369   2.587  0.8340 -0.7290 -0.2794
15602TIP3   OH268296   4.753   6.688  14.440 -0.5037 -0.1894  0.1503
15602TIP3    H168297   4.688   6.652  14.501 -1.4270  3.5260  1.6335
15602TIP3    H268298   4.702   6.736  14.375  0.4942  3.5588  1.8411
15603TIP3   OH268299   5.741   5.265   0.499 -0.1100  0.4243 -0.3767
15603TIP3    H168300   5.825   5.267   0.452  0.5342  0.3475  0.7207
15603TIP3    H268301   5.689   5.199   0.453  1.0661 -0.7576 -0.0715
15604TIP3   OH268302   4.578   0.867   3.102 -0.1576  1.2977  0.8182
15604TIP3    H168303   4.596   0.888   3.010 -1.5900  1.4258  0.5493
15604TIP3    H268304   4.595   0.773   3.108 -0.5664  1.1837  0.2847
15605TIP3   OH268305   2.907   1.830  13.037 -0.1997 -0.6140 -0.3138
15605TIP3    H168306   2.833   1.884  13.009  0.6033  1.9464  2.0832
15605TIP3    H268307   2.879   1.790  13.119  1.2452  1.0012  1.0313
15606TIP3   OH268308   6.289   5.320  16.593 -0.1804  0.0903  0.0698
15606TIP3    H168309   6.355   5.378  16.631  1.3562 -0.1500 -2.0498
15606TIP3    H268310   6.280   5.350  16.503  0.5526 -2.7749 -1.0701
15607TIP3   OH268311   4.594   4.025   6.706 -0.4225 -0.2132 -0.2098
15607TIP3    H168312   4.661   3.979   6.758  1.7216  2.0472 -0.7873
15607TIP3    H268313   4.532   3.956   6.681  0.2428 -1.9708  2.5224
15608TIP3   OH268314   5.419   6.457   2.567 -1.3577  0.1957 -0.0158
15608TIP3    H168315   5.428   6.485   2.658 -1.2608  1.4935 -0.4015
15608TIP3    H268316   5.360   6.521   2.528 -0.7218  0.1605 -1.0750
15609TIP3   OH268317   1.162   4.315   5.789 -0.3090  0.3946 -0.5159
15609TIP3    H168318   1.169   4.411   5.794  2.8733  0.5377 -3.6558
15609TIP3    H268319   1.082   4.300   5.739  0.3946  1.6281 -2.1057
15610TIP3   OH268320   5.016   5.386   3.021 -0.2852 -0.0473 -0.2904
15610TIP3    H168321   5.076   5.384   3.095 -2.0689  1.3642  1.2758
15610TIP3    H268322   4.943   5.330   3.047 -1.0388  0.6402 -0.8587
15611TIP3   OH268323   4.782   4.236  13.905 -0.1732  0.3800  0.7005
15611TIP3    H168324   4.734   4.309  13.943  1.0058  0.6911  1.6735
15611TIP3    H268325   4.855   4.277  13.857 -0.4270 -0.1018 -0.1308
15612TIP3   OH268326   0.393   2.691  12.987 -0.0667  0.5730  0.1250
15612TIP3    H168327   0.477   2.678  13.029  0.2761  1.0846 -0.3855
15612TIP3    H268328   0.370   2.782  13.006 -0.6173  0.3677  0.4604
15613TIP3   OH268329   5.184   3.401  15.992  0.2861  0.1981 -0.3339
15613TIP3    H168330   5.109   3.343  16.003  0.4394  0.1283  0.3471
15613TIP3    H268331   5.189   3.415  15.897 -0.2529 -0.2316 -0.4316
15614TIP3   OH268332   3.123   3.097   6.587  0.2245  0.2062  0.6230
15614TIP3    H168333   3.078   3.177   6.563  0.1742  0.4511  1.5033
15614TIP3    H268334   3.208   3.103   6.544  0.2138  0.7281  0.6716
15615TIP3   OH268335   4.669   5.690   3.170  0.0457 -0.0299  0.5427
15615TIP3    H168336   4.709   5.771   3.140  0.7171  0.0183  1.5098
15615TIP3    H268337   4.610   5.664   3.100  2.5777 -0.7066 -1.4956
15616TIP3   OH268338   0.887   2.370  14.015 -0.0897 -0.5278  0.2226
15616TIP3    H168339   0.892   2.275  14.028  0.7791 -0.3252  1.6471
15616TIP3    H268340   0.910   2.384  13.924  0.5853 -1.6353  0.2093
15617TIP3   OH268341   2.002   4.707  13.162 -0.0033  0.3327  0.2939
15617TIP3    H168342   1.914   4.715  13.125  0.5387  0.1871 -1.0982
15617TIP3    H268343   2.056   4.766  13.109  0.4989  1.5180  2.0284
15618TIP3   OH268344   3.006   6.358  17.084 -0.3498  0.2508  0.5512
15618TIP3    H168345   2.913   6.365  17.104 -0.0649 -0.0323  2.0923
15618TIP3    H268346   3.050   6.402  17.156  0.7874 -2.0601  1.3985
15619TIP3   OH268347   1.545   1.172  11.781  0.0198  0.5575 -0.4776
15619TIP3    H168348   1.482   1.200  11.847  0.1024  1.5060 -0.7872
15619TIP3    H268349   1.499   1.179  11.698 -0.6094 -2.1510 -0.4507
15620TIP3   OH268350   6.624   3.477   3.231  0.3418  0.3885  0.3723
15620TIP3    H168351   6.647   3.417   3.161 -0.6289 -1.0530  1.2415
15620TIP3    H268352   6.547   3.524   3.198 -1.0813 -1.3926  1.0176
15621TIP3   OH268353   2.199   5.664  10.994 -0.2350 -0.2604  0.0925
15621TIP3    H168354   2.170   5.754  11.008  0.7636  0.2339 -0.8465
15621TIP3    H268355   2.254   5.669  10.915  0.4083 -1.5580  0.4389
15622TIP3   OH268356   2.741   2.890  11.236 -0.3161 -0.0320  0.0701
15622TIP3    H168357   2.719   2.969  11.186  1.3192  0.4429  0.0424
15622TIP3    H268358   2.681   2.823  11.203 -0.9239  0.9003 -0.7627
15623TIP3   OH268359   1.158   4.196   1.495  0.4424 -0.6470  0.3376
15623TIP3    H168360   1.226   4.240   1.444 -0.9713  0.9304 -0.2414
15623TIP3    H268361   1.123   4.264   1.553 -2.6788 -0.5528 -1.4768
15624TIP3   OH268362   5.105   3.521   4.462 -0.0621 -0.0152  0.0349
15624TIP3    H168363   5.142   3.553   4.544  2.1280 -0.2987 -0.7639
15624TIP3    H268364   5.154   3.568   4.394 -0.0413 -1.6005 -1.1033
15625TIP3   OH268365   4.635   0.606  14.582  0.5436 -0.2654  0.0298
15625TIP3    H168366   4.626   0.619  14.488  1.6317 -2.0205 -0.3621
15625TIP3    H268367   4.637   0.694  14.618  1.5248  0.4801 -1.7324
15626TIP3   OH268368   1.581   6.811  14.856  0.1782  0.0834 -0.4703
15626TIP3    H168369   1.644   6.751  14.819  0.5290 -0.5035  0.9987
15626TIP3    H268370   1.554   6.770  14.939 -2.4155  0.1126 -1.1974
15627TIP3   OH268371   5.395   1.406  11.432 -0.0822 -0.3853  0.0054
15627TIP3    H168372   5.403   1.418  11.338  1.3632  0.5852  0.2199
15627TIP3    H268373   5.309   1.443  11.453  0.0014  0.3067 -0.8038
15628TIP3   OH268374   1.059   5.839   1.315 -0.3392  0.6682  0.1831
15628TIP3    H168375   1.141   5.789   1.316 -0.1663  0.9171 -0.6440
15628TIP3    H268376   1.062   5.888   1.233 -1.7493 -0.0299 -0.3091
15629TIP3   OH268377   1.822   2.119   5.590  0.4267  0.3697  0.2021
15629TIP3    H168378   1.912   2.147   5.573  0.2917  0.7917  0.1582
15629TIP3    H268379   1.820   2.027   5.565  0.8113  0.3954  0.0705
15630TIP3   OH268380   0.833   5.174   0.746 -0.0201 -0.3809  0.1068
15630TIP3    H168381   0.860   5.197   0.835 -0.8110 -1.3615  0.6197
15630TIP3    H268382   0.895   5.105   0.720  0.6193  0.3625 -0.3618
15631TIP3   OH268383   3.241   3.937  16.054  0.4274 -0.2086 -0.6147
15631TIP3    H168384   3.251   3.973  15.966  1.7913 -1.0700 -0.8387
15631TIP3    H268385   3.154   3.899  16.055 -0.7942  2.4025 -0.5990
15632TIP3   OH268386   3.646   3.922  14.980 -0.6819  0.5470  0.1689
15632TIP3    H168387   3.677   4.002  14.936  0.0200  0.3836  0.3502
15632TIP3    H268388   3.609   3.869  14.909 -1.7612  1.3097  0.1476
15633TIP3   OH268389   3.176   6.734  16.349 -0.4227 -0.6167 -0.6290
15633TIP3    H168390   3.169   6.652  16.399 -1.3181 -0.3914 -0.3623
15633TIP3    H268391   3.132   6.715  16.266  0.6014 -0.8281 -1.1290
15634TIP3   OH268392   0.524   4.044  12.391 -0.0318  0.7318 -0.1499
15634TIP3    H168393   0.574   4.125  12.402 -1.1555  1.3052  0.9397
15634TIP3    H268394   0.461   4.063  12.322  0.6098  0.3157 -0.8640
15635TIP3   OH268395   6.438   3.405  13.519 -0.5938 -0.4547 -0.2804
15635TIP3    H168396   6.395   3.463  13.582 -0.3732 -1.5951  0.9503
15635TIP3    H268397   6.406   3.435  13.433 -0.8863  1.1294  0.3462
15636TIP3   OH268398   0.456   2.593   1.445 -0.2260 -0.0771 -0.7948
15636TIP3    H168399   0.436   2.684   1.466  0.4297  0.0301 -0.5937
15636TIP3    H268400   0.383   2.543   1.482 -1.2837  0.4570 -2.0767
15637TIP3   OH268401   0.001   3.201  16.172 -0.2772  0.2452  0.1675
15637TIP3    H168402   0.023   3.266  16.239 -1.2344  1.0658 -0.2826
15637TIP3    H268403  -0.090   3.221  16.149  0.2231  0.4017 -1.8422
15638TIP3   OH268404   1.241   4.820  16.074 -0.0465  0.0609  0.3307
15638TIP3    H168405   1.147   4.803  16.086  0.1807  0.3195  3.1051
15638TIP3    H268406   1.250   4.914  16.088  0.6045  0.0763 -0.1768
15639TIP3   OH268407   5.884   6.631   4.237 -0.1344  0.1678  0.0793
15639TIP3    H168408   5.955   6.608   4.178 -0.1162 -0.8733  0.4941
15639TIP3    H268409   5.926   6.646   4.321 -0.3180  0.2753  0.1517
15640TIP3   OH268410   2.532   4.704   3.022 -0.7684  0.5095 -0.2946
15640TIP3    H168411   2.449   4.691   3.068 -1.2647  0.5593 -1.1618
15640TIP3    H268412   2.528   4.793   2.988 -1.1282 -0.0634 -1.8349
15641TIP3   OH268413   2.114   0.877  12.815  0.3114 -0.3193 -0.1384
15641TIP3    H168414   2.040   0.907  12.762  0.2760 -0.3581 -0.1120
15641TIP3    H268415   2.090   0.900  12.904  1.1324  1.2793 -0.3013
15642TIP3   OH268416   1.538   3.613  16.165  0.6525 -0.2762 -0.6310
15642TIP3    H168417   1.549   3.708  16.167  2.6025 -0.4524  0.1549
15642TIP3    H268418   1.499   3.591  16.250  0.9119 -0.2258 -0.4975
15643TIP3   OH268419   4.825   3.000  12.956 -0.4195  0.1623  0.1034
15643TIP3    H168420   4.735   3.035  12.951 -0.0843  0.9072 -1.6930
15643TIP3    H268421   4.873   3.050  12.889  0.7802 -1.8368 -0.5919
15644TIP3   OH268422   5.836   2.840   0.714 -0.2610  0.0740 -0.3739
15644TIP3    H168423   5.842   2.752   0.677 -0.4367  0.5600 -1.5789
15644TIP3    H268424   5.762   2.835   0.775 -2.2200  0.1458 -2.6433
15645TIP3   OH268425   5.870   5.802  14.625  0.2444  0.0262  0.1169
15645TIP3    H168426   5.821   5.884  14.620 -0.2753 -0.2211  0.8701
15645TIP3    H268427   5.961   5.827  14.613  0.0821  0.7050  0.2685
15646TIP3   OH268428   3.134   4.045   0.401 -0.5396  0.1334 -0.3049
15646TIP3    H168429   3.182   4.127   0.405 -1.4317  0.8106 -2.2441
15646TIP3    H268430   3.053   4.067   0.355 -2.4533 -1.1004  2.2469
15647TIP3   OH268431   4.031   4.652   2.068 -0.2316  0.0342 -0.5555
15647TIP3    H168432   4.027   4.557   2.053 -1.6076 -0.1683  0.7121
15647TIP3    H268433   4.054   4.689   1.984 -0.0984 -1.4165 -1.1926
15648TIP3   OH268434   2.831   4.345   0.680 -0.2566 -0.4510  0.0234
15648TIP3    H168435   2.806   4.396   0.603  0.7228 -1.6140 -1.0955
15648TIP3    H268436   2.748   4.326   0.725 -0.6738  1.9811  0.4329
15649TIP3   OH268437   4.728   1.312  13.712 -0.0207  0.3364  0.2784
15649TIP3    H168438   4.737   1.264  13.794 -0.3271  1.7809  1.1951
15649TIP3    H268439   4.817   1.342  13.692  0.1450 -0.4575 -0.2158
15650TIP3   OH268440   5.261   0.131  12.044  0.1418 -0.0290  0.0115
15650TIP3    H168441   5.291   0.160  12.130  0.2361  2.6347 -0.8197
15650TIP3    H268442   5.339   0.133  11.989 -0.3034  0.4492 -0.6249
15651TIP3   OH268443   4.522   0.886  13.404 -0.2734 -0.3662 -0.0140
15651TIP3    H168444   4.483   0.973  13.412  1.3465  0.5481 -1.4572
15651TIP3    H268445   4.615   0.902  13.386  0.6935 -2.4300  2.3656
15652TIP3   OH268446   2.377   1.651   3.632  0.2917 -0.7418  0.4295
15652TIP3    H168447   2.354   1.674   3.542  1.8973  1.4840  0.5123
15652TIP3    H268448   2.300   1.605   3.666 -0.4809 -1.3319 -1.9425
15653TIP3   OH268449   0.138   1.043  15.626  0.2788  0.0438 -0.1686
15653TIP3    H168450   0.201   1.114  15.637 -0.0769  0.2804  0.3662
15653TIP3    H268451   0.156   0.982  15.698  2.2391 -1.7047 -2.0075
15654TIP3   OH268452   5.805   1.750  11.700  0.2372 -0.1884  0.3012
15654TIP3    H168453   5.785   1.735  11.792 -1.0950 -0.3091  0.0063
15654TIP3    H268454   5.752   1.685  11.653  1.1642 -0.3674 -0.5363
15655TIP3   OH268455   5.424   3.680   0.964  0.1976  0.0115 -0.2093
15655TIP3    H168456   5.377   3.643   0.890  2.2668 -1.0817 -1.0786
15655TIP3    H268457   5.409   3.619   1.036  0.0718 -0.1704 -0.3921
15656TIP3   OH268458   6.787   2.217   2.735 -0.4342 -0.1777  0.0256
15656TIP3    H168459   6.748   2.225   2.647  0.3688 -2.6489 -0.6190
15656TIP3    H268460   6.862   2.160   2.723  0.3012  0.2475  2.1933
15657TIP3   OH268461   1.294   5.671   1.273  0.0951  0.7607  0.0212
15657TIP3    H168462   1.357   5.644   1.206  1.0495  2.0227  0.3812
15657TIP3    H268463   1.347   5.699   1.347 -0.9015  1.4215  0.5154
15658TIP3   OH268464   3.474   6.552  15.655 -0.1703 -0.5561 -0.0317
15658TIP3    H168465   3.476   6.591  15.568 -1.5916  0.3376  0.2891
15658TIP3    H268466   3.564   6.524  15.672  0.3128  0.0992 -1.4028
15659TIP3   OH268467   0.698   2.500  15.420 -0.3639  0.2834 -0.3597
15659TIP3    H168468   0.664   2.531  15.504 -0.4278 -0.0034 -0.2784
15659TIP3    H268469   0.786   2.538  15.415 -0.7902  1.2521 -0.6970
15660TIP3   OH268470   1.762   0.187   2.732  0.2436 -0.3198 -0.2900
15660TIP3    H168471   1.723   0.263   2.688 -1.9942 -1.4825 -0.4093
15660TIP3    H268472   1.751   0.115   2.670 -1.4156 -1.6209  1.4218
15661TIP3   OH268473   1.922   4.951  16.257 -0.2828  0.1688 -0.0089
15661TIP3    H168474   1.830   4.947  16.284 -0.5593  1.1738 -0.7377
15661TIP3    H268475   1.957   5.028  16.300 -0.1055  0.4628 -0.6681
15662TIP3   OH268476   4.192   1.851  14.732 -0.1604 -0.2341  0.0032
15662TIP3    H168477   4.150   1.908  14.797  0.4773  0.5390 -0.2502
15662TIP3    H268478   4.178   1.896  14.649  0.0832 -0.6073 -0.2382
15663TIP3   OH268479   2.453   0.629  17.054 -0.5188  0.1593  0.3303
15663TIP3    H168480   2.410   0.712  17.073  0.9728  1.5307 -1.8495
15663TIP3    H268481   2.382   0.564  17.057 -1.8251  1.5701  1.4946
15664TIP3   OH268482   0.960   4.974   2.700 -0.3393 -0.3326  0.3147
15664TIP3    H168483   0.980   4.899   2.757  0.3390  1.4582  2.5517
15664TIP3    H268484   0.866   4.987   2.711 -1.0452 -2.3712 -2.1699
15665TIP3   OH268485   5.063   2.878   0.667  0.1663 -0.7895 -0.3122
15665TIP3    H168486   5.147   2.833   0.659  1.2320  0.6269  1.7598
15665TIP3    H268487   5.036   2.861   0.758 -1.0984 -0.0684 -0.5286
15666TIP3   OH268488   4.840   3.123   5.813 -0.3421 -0.0583 -0.0165
15666TIP3    H168489   4.792   3.067   5.874  0.8229 -0.9481  0.1013
15666TIP3    H268490   4.893   3.063   5.761  0.5390  0.8827 -0.2416
15667TIP3   OH268491   6.249   4.408  13.155 -0.3619  0.0323 -0.1853
15667TIP3    H168492   6.339   4.389  13.128 -0.5977 -0.9755 -0.3020
15667TIP3    H268493   6.206   4.439  13.075 -0.0633  0.7445 -0.0751
15668TIP3   OH268494   3.754   4.733  11.998  0.1360  0.1752  0.2132
15668TIP3    H168495   3.698   4.667  11.956 -1.1417  2.5610 -2.1296
15668TIP3    H268496   3.836   4.729  11.948 -0.1397  0.6908 -0.2919
15669TIP3   OH268497   3.753   5.093   3.945  0.1973 -0.2781  0.4114
15669TIP3    H168498   3.803   5.057   4.018  2.2601  0.8406 -0.3601
15669TIP3    H268499   3.802   5.171   3.919 -1.5157  0.3949 -0.9781
15670TIP3   OH268500   1.615   1.935  12.355 -0.3483  0.2753 -0.4118
15670TIP3    H168501   1.695   1.900  12.315 -0.0165  1.3838 -0.7349
15670TIP3    H268502   1.580   1.995  12.289 -1.6293 -0.4203 -0.4069
15671TIP3   OH268503   2.651   0.189   6.694  0.1877  0.0333  0.7694
15671TIP3    H168504   2.593   0.144   6.631 -0.9909  0.0277  1.8181
15671TIP3    H268505   2.681   0.120   6.752  0.4744  0.2004  0.8218
15672TIP3   OH268506   3.591   5.028  13.138  0.3035 -0.0065 -0.4354
15672TIP3    H168507   3.505   5.015  13.178  0.8726 -1.2873  0.4444
15672TIP3    H268508   3.632   4.941  13.141  2.1067  0.8354  0.2898
15673TIP3   OH268509   0.933   0.189   5.132  0.6326  0.1266  0.2584
15673TIP3    H168510   0.893   0.276   5.128  0.1747 -0.0743  0.4019
15673TIP3    H268511   1.010   0.195   5.076  0.9343  0.7985  0.7317
15674TIP3   OH268512   1.381   3.129  15.003 -0.4313  0.3252  0.2973
15674TIP3    H168513   1.463   3.178  14.996 -1.3510  2.1445  1.4562
15674TIP3    H268514   1.321   3.174  14.943 -1.0781  0.1192  0.7786
15675TIP3   OH268515   0.610   3.756  15.065  0.2243  0.2981 -0.0498
15675TIP3    H168516   0.622   3.717  14.979 -0.7944  1.1691 -0.6191
15675TIP3    H268517   0.645   3.845  15.057  1.4717 -0.0725  0.8869
15676TIP3   OH268518   2.776   4.628   3.161  0.2682  0.2056 -0.6106
15676TIP3    H168519   2.837   4.696   3.131  0.9608 -0.7023 -1.3129
15676TIP3    H268520   2.694   4.646   3.114  0.7200  0.0341 -1.4856
15677TIP3   OH268521   2.856   4.435   3.891 -0.2907 -0.5273 -0.2479
15677TIP3    H168522   2.843   4.425   3.986  0.5679  0.3109 -0.0337
15677TIP3    H268523   2.946   4.407   3.876 -0.0693  0.3736 -0.6466
15678TIP3   OH268524   1.628   0.608  14.912 -0.0373 -1.0417  0.0805
15678TIP3    H168525   1.547   0.608  14.862 -0.8362  5.4036  0.5069
15678TIP3    H268526   1.685   0.670  14.867  2.4610 -1.1300  2.7742
15679TIP3   OH268527   1.930   3.506   4.812 -0.2704 -0.4786  0.0001
15679TIP3    H168528   2.002   3.448   4.837  0.1348 -0.4580 -1.0701
15679TIP3    H268529   1.869   3.450   4.765  0.3472  0.0181 -1.4593
15680TIP3   OH268530   6.222   2.953  10.607 -0.4707 -0.2439 -0.2071
15680TIP3    H168531   6.165   3.007  10.661  0.5322  1.4250 -0.7427
15680TIP3    H268532   6.306   2.999  10.606  0.2924 -1.5585 -1.1020
15681TIP3   OH268533   3.145   5.201  13.074 -0.0549  0.2878  0.0855
15681TIP3    H168534   3.191   5.232  12.996  1.1286 -2.2734 -0.3087
15681TIP3    H268535   3.059   5.173  13.041 -1.1066  2.7720  0.4322
15682TIP3   OH268536   1.482   2.226  15.007  0.8489 -0.2882  0.0697
15682TIP3    H168537   1.478   2.295  14.941 -0.6401  1.3147  1.6901
15682TIP3    H268538   1.456   2.270  15.088 -0.6040 -2.8782  1.1187
15683TIP3   OH268539   3.504   1.206   0.428 -0.3266 -0.6690 -0.2048
15683TIP3    H168540   3.410   1.191   0.430 -0.6681  1.3412  0.9338
15683TIP3    H268541   3.536   1.149   0.357 -2.7406  0.4876 -2.3643
15684TIP3   OH268542   5.272   5.066  15.338  0.1230 -0.3898 -0.0995
15684TIP3    H168543   5.366   5.062  15.323  0.0405 -0.3959 -0.6332
15684TIP3    H268544   5.259   5.151  15.382  0.1700  0.4829 -1.6899
15685TIP3   OH268545   4.247   6.595   3.062  0.2318 -0.1155  0.8729
15685TIP3    H168546   4.212   6.650   3.132  1.3702 -1.8326  2.9054
15685TIP3    H268547   4.339   6.582   3.085  0.2415 -2.0608 -0.0480
15686TIP3   OH268548   6.291   3.052  17.037 -0.5114  0.2758  0.2255
15686TIP3    H168549   6.245   2.976  17.003 -0.6767 -0.7293  2.5340
15686TIP3    H268550   6.383   3.026  17.038 -0.0793  1.4039 -2.0969
15687TIP3   OH268551   3.656   1.190   0.171 -0.1482  0.1819 -0.1081
15687TIP3    H168552   3.662   1.148   0.085 -1.3053  0.7968 -0.5054
15687TIP3    H268553   3.738   1.240   0.179 -0.1808  0.3943 -1.0018
15688TIP3   OH268554   2.038   1.669  15.724  0.5624 -0.1204 -0.0381
15688TIP3    H168555   2.113   1.726  15.709 -0.6785  1.3272 -1.0341
15688TIP3    H268556   2.047   1.641  15.815  2.2256  0.1008 -0.1000
15689TIP3   OH268557   5.871   5.211  15.093  0.2160 -0.1357  0.3383
15689TIP3    H168558   5.837   5.229  15.181 -1.2155  1.9105 -0.5394
15689TIP3    H268559   5.931   5.284  15.075  1.0411 -0.9103 -0.1373
15690TIP3   OH268560   5.408   1.044   0.572  0.7398  0.0144 -0.2050
15690TIP3    H168561   5.352   1.106   0.526 -0.4322 -1.1471 -0.3899
15690TIP3    H268562   5.422   1.084   0.658 -0.0471  0.5180 -0.3029
15691TIP3   OH268563   0.779   4.675  11.159  0.1937  0.2122  0.3688
15691TIP3    H168564   0.849   4.689  11.095  3.5013 -2.1096  3.0815
15691TIP3    H268565   0.741   4.591  11.134 -1.0306  1.0279 -0.5664
15692TIP3   OH268566   1.876   6.625  10.430 -0.4707 -0.1313 -0.6297
15692TIP3    H168567   1.830   6.568  10.368 -1.2922  0.6510 -0.7520
15692TIP3    H268568   1.835   6.711  10.419  0.4655  0.3895 -0.1420
15693TIP3   OH268569   2.039   5.209   4.974 -0.1109 -0.6413  0.0700
15693TIP3    H168570   2.017   5.265   5.049  1.7239 -0.8168  0.7900
15693TIP3    H268571   2.124   5.172   4.996  0.5243 -0.6392 -2.1512
15694TIP3   OH268572   4.601   1.533   5.434  0.2842 -0.3948 -0.0036
15694TIP3    H168573   4.539   1.461   5.439  2.2310 -2.0843  2.6074
15694TIP3    H268574   4.575   1.592   5.505  0.8939 -0.4984  0.3168
15695TIP3   OH268575   4.483   3.831  15.408 -0.4902 -0.3230 -0.2697
15695TIP3    H168576   4.521   3.745  15.391  1.0580  0.3153 -0.1782
15695TIP3    H268577   4.557   3.892  15.402 -1.0438  0.7165  2.1820
15696TIP3   OH268578   5.490   2.134  12.766  0.1672  0.0942 -0.5033
15696TIP3    H168579   5.406   2.138  12.812 -0.2687  2.2639 -1.3514
15696TIP3    H268580   5.504   2.224  12.735  2.3997 -0.4124 -1.1092
15697TIP3   OH268581   6.783   6.805   0.649 -0.1448 -0.2699 -0.0194
15697TIP3    H168582   6.733   6.875   0.607  0.0198 -1.1452 -1.7305
15697TIP3    H268583   6.800   6.742   0.579  2.6271 -0.4145  0.6826
15698TIP3   OH268584   4.572   1.512   6.299 -0.1095 -0.4075  0.3558
15698TIP3    H168585   4.487   1.533   6.339  0.6374  2.0614  0.8306
15698TIP3    H268586   4.633   1.507   6.372  0.4281 -0.6526 -0.1005
15699TIP3   OH268587   5.002   6.004  14.009 -0.1578 -0.2071 -0.6085
15699TIP3    H168588   5.037   5.998  14.098  2.4718  0.2522 -1.5082
15699TIP3    H268589   5.022   5.919  13.970 -1.3784 -0.4366 -0.7603
15700TIP3   OH268590   5.025   5.728  13.725  0.1014  0.5108  0.5717
15700TIP3    H168591   5.037   5.636  13.699  2.0975  0.5644  1.1128
15700TIP3    H268592   5.031   5.727  13.821 -0.7227  1.1197  0.6428
15701TIP3   OH268593   5.474   4.397  13.498  0.1158 -0.8153 -0.1383
15701TIP3    H168594   5.418   4.319  13.502 -1.0901  0.0776  1.7704
15701TIP3    H268595   5.481   4.416  13.405 -0.2570 -2.6965 -0.6016
15702TIP3   OH268596   4.222   4.104  13.126 -0.1479  0.0267  0.6884
15702TIP3    H168597   4.262   4.034  13.073 -0.2851 -0.0801  0.7255
15702TIP3    H268598   4.292   4.168  13.138 -0.3530  0.4386 -0.3025
15703TIP3   OH268599   6.098   5.909   2.935 -0.5550  0.4307  0.3092
15703TIP3    H168600   6.147   5.885   2.856  1.4905  0.3720  1.5210
15703TIP3    H268601   6.024   5.848   2.937  0.3927 -0.8007 -0.6026
15704TIP3   OH268602   3.878   4.516   4.107  0.4008  0.2150 -0.3080
15704TIP3    H168603   3.943   4.548   4.170  0.9566 -1.5819  0.0877
15704TIP3    H268604   3.829   4.449   4.155 -0.6152  0.3395 -1.1374
15705TIP3   OH268605   2.012   3.306  14.602 -0.2851 -0.8065  0.0884
15705TIP3    H168606   2.003   3.219  14.565  2.8293 -0.9868 -0.5184
15705TIP3    H268607   2.064   3.293  14.681  1.8675  0.6026 -1.0007
15706TIP3   OH268608   0.306   4.320  15.048  0.1001 -0.2826  0.0962
15706TIP3    H168609   0.291   4.225  15.043 -0.9788 -0.0869 -1.5272
15706TIP3    H268610   0.329   4.345  14.958  1.1704  0.8970  0.6634
15707TIP3   OH268611   1.366   1.389   4.359  0.1063  0.0428 -0.5532
15707TIP3    H168612   1.294   1.405   4.299  0.7269  0.8402 -1.1094
15707TIP3    H268613   1.345   1.441   4.437  0.7114  1.3523 -1.2346
15708TIP3   OH268614   4.271   5.426   5.708 -0.1075  0.0980  0.1236
15708TIP3    H168615   4.322   5.434   5.788  0.2958  0.2411 -0.1443
15708TIP3    H268616   4.313   5.487   5.647 -0.4471  0.0335 -0.1749
15709TIP3   OH268617   4.591   0.766   2.349  0.1793 -0.0569 -0.0967
15709TIP3    H168618   4.618   0.714   2.425  1.6983  0.6083 -0.1566
15709TIP3    H268619   4.605   0.708   2.274 -0.2914 -0.3336  0.0227
15710TIP3   OH268620   3.650   1.861   4.003 -0.2823 -1.1068 -0.0497
15710TIP3    H168621   3.592   1.932   3.975 -1.7694 -1.9352  0.8201
15710TIP3    H268622   3.725   1.868   3.945 -0.2760  1.3066  0.1529
15711TIP3   OH268623   0.191   3.518  11.066  0.4172 -0.2535 -0.1914
15711TIP3    H168624   0.115   3.466  11.038  0.6068 -0.8101  0.3101
15711TIP3    H268625   0.267   3.468  11.037  0.5944  0.3444 -0.7646
15712TIP3   OH268626   4.807   5.858  15.872 -0.0563 -0.0780  0.0139
15712TIP3    H168627   4.887   5.871  15.923 -0.1079 -0.1837  0.1232
15712TIP3    H268628   4.775   5.772  15.900  0.9959 -1.0604 -1.6683
15713TIP3   OH268629   3.683   4.643  16.636  0.2745  0.0545 -0.4702
15713TIP3    H168630   3.764   4.645  16.687 -0.5894  1.3279  0.9348
15713TIP3    H268631   3.615   4.622  16.700 -0.8619  1.8053 -1.0400
15714TIP3   OH268632   5.697   2.931   3.782 -0.0948  0.2254 -0.2752
15714TIP3    H168633   5.731   2.928   3.872 -1.2928 -1.0055  0.1647
15714TIP3    H268634   5.747   3.001   3.741  3.0788 -1.5169  0.2780
15715TIP3   OH268635   3.287   3.558   1.312  0.5013  0.2394 -0.2819
15715TIP3    H168636   3.206   3.546   1.262  0.0147  2.3658 -0.0700
15715TIP3    H268637   3.356   3.559   1.245  0.3901 -1.4488 -0.4713
15716TIP3   OH268638   2.052   6.760   4.524 -0.5669 -0.3678 -0.2437
15716TIP3    H168639   2.004   6.702   4.583  3.1810 -2.0011  1.4982
15716TIP3    H268640   2.101   6.818   4.581  1.5198 -0.5395 -1.7199
15717TIP3   OH268641   5.745   2.348   1.039 -0.0600  0.2045 -0.0871
15717TIP3    H168642   5.781   2.262   1.017  1.2484  0.6278  0.3466
15717TIP3    H268643   5.806   2.411   1.001  0.3545  0.9423  1.6906
15718TIP3   OH268644   4.009   3.443  17.162 -0.1347  0.1533  0.3599
15718TIP3    H168645   4.070   3.514  17.180  0.8795 -0.0060 -2.1447
15718TIP3    H268646   3.943   3.480  17.103  0.6753 -1.0242 -1.3754
15719TIP3   OH268647   2.363   0.140   3.923  0.5813 -0.2360 -0.1568
15719TIP3    H168648   2.372   0.223   3.969  0.1340  0.5126 -1.3721
15719TIP3    H268649   2.268   0.126   3.918  0.6512 -1.9756  1.9952
15720TIP3   OH268650   0.593   2.436  11.772  0.2501 -0.3224 -0.0155
15720TIP3    H168651   0.503   2.406  11.757 -0.5022  0.7776  1.8604
15720TIP3    H268652   0.613   2.409  11.861  0.6073  2.0772  0.6975
15721TIP3   OH268653   6.616   2.429  10.690  0.1945 -0.4164  0.2232
15721TIP3    H168654   6.548   2.467  10.634  0.0397 -2.9425 -1.4704
15721TIP3    H268655   6.693   2.484  10.675 -0.8298  1.1883  0.5159
15722TIP3   OH268656   0.153   6.368  16.132 -0.2052 -0.0681  0.2056
15722TIP3    H168657   0.222   6.341  16.193  0.8131  2.4213  0.2709
15722TIP3    H268658   0.107   6.439  16.176 -0.4373  0.7675 -1.2929
15723TIP3   OH268659   1.663   1.434   1.062 -0.3871  0.0656  0.2078
15723TIP3    H168660   1.645   1.516   1.015 -0.9295 -0.0107  0.2722
15723TIP3    H268661   1.649   1.456   1.154 -2.0018 -0.4532  0.1221
15724TIP3   OH268662   4.803   1.150  16.217  0.7778 -0.1962  0.1995
15724TIP3    H168663   4.776   1.240  16.237 -1.7444 -0.4016 -1.6234
15724TIP3    H268664   4.878   1.133  16.273  1.2303  2.9826  0.7265
15725TIP3   OH268665   5.654   4.531  11.527 -0.3839  0.3292  0.0974
15725TIP3    H168666   5.607   4.506  11.607 -0.6039 -0.4866 -0.2836
15725TIP3    H268667   5.710   4.603  11.555 -1.0422  0.5861  0.8116
15726TIP3   OH268668   1.607   6.399   3.793  0.0316  0.1825 -0.1776
15726TIP3    H168669   1.673   6.409   3.862 -0.1246  1.3435 -0.1773
15726TIP3    H268670   1.526   6.379   3.840  0.7539 -3.8733 -0.2697
15727TIP3   OH268671   1.660   0.218   1.520  0.0996 -0.3660 -0.8574
15727TIP3    H168672   1.719   0.250   1.588  0.1840 -1.1244 -0.5558
15727TIP3    H268673   1.592   0.172   1.568  0.3416 -1.1989 -1.2901
15728TIP3   OH268674   4.004   2.928  15.505 -0.2461 -0.2180 -0.4177
15728TIP3    H168675   4.070   2.858  15.503 -0.3781 -0.3411 -0.4656
15728TIP3    H268676   4.003   2.956  15.597 -0.1804 -0.2671 -0.4012
15729TIP3   OH268677   1.478   0.401  16.916  0.4703 -0.7472  0.3934
15729TIP3    H168678   1.469   0.306  16.914  2.8118 -1.0465 -2.5111
15729TIP3    H268679   1.572   0.416  16.928  0.6721  1.0475 -2.4565
15730TIP3   OH268680   5.096   2.685  13.696  0.4782 -0.6965  0.1875
15730TIP3    H168681   5.111   2.598  13.733 -0.2079  0.0277  2.3495
15730TIP3    H268682   5.173   2.736  13.723  0.2717 -0.3011  0.0379
15731TIP3   OH268683   4.807   0.322   0.204 -0.3249 -0.0056  0.6238
15731TIP3    H168684   4.793   0.332   0.109  0.4236  1.4376  0.6372
15731TIP3    H268685   4.835   0.231   0.215  0.2561 -0.0014 -0.6307
15732TIP3   OH268686   1.717   4.754   3.162 -0.0859 -0.1992 -0.0265
15732TIP3    H168687   1.706   4.791   3.075 -1.3354 -2.7394 -1.0327
15732TIP3    H268688   1.653   4.802   3.216  0.7566  1.4497 -0.4073
15733TIP3   OH268689   2.886   1.470   3.189  0.0914 -0.0363 -0.0377
15733TIP3    H168690   2.881   1.381   3.222 -0.8661  0.1803  0.4440
15733TIP3    H268691   2.801   1.487   3.150 -0.2666  1.1187  1.1300
15734TIP3   OH268692   1.983   4.181   4.986  0.3022 -0.1848  0.5043
15734TIP3    H168693   1.938   4.126   4.922 -1.2818  1.7324 -0.1471
15734TIP3    H268694   1.965   4.139   5.070 -1.8062 -0.1523  0.1446
15735TIP3   OH268695   3.946   3.593   6.518  0.3878 -0.6950  0.3548
15735TIP3    H168696   3.956   3.685   6.542 -0.2617 -1.0224  1.9771
15735TIP3    H268697   4.036   3.562   6.505  0.6247  0.0965  0.0626
15736TIP3   OH268698   4.225   0.042  11.401  0.0134  0.0919 -0.1741
15736TIP3    H168699   4.194   0.052  11.492  1.4721 -1.0481  0.4877
15736TIP3    H268700   4.145   0.038  11.349 -0.8651  0.5853  1.0758
15737TIP3   OH268701   5.762   0.271  16.817 -0.1918  0.4651 -0.0892
15737TIP3    H168702   5.820   0.331  16.769 -0.2582 -0.0338 -0.8129
15737TIP3    H268703   5.814   0.192  16.830  0.1811  0.9466  1.5930
15738TIP3   OH268704   2.374   6.661   4.517 -0.2541  0.0150  0.3227
15738TIP3    H168705   2.406   6.712   4.591  1.7298  0.6934 -0.9064
15738TIP3    H268706   2.429   6.582   4.517 -0.0119  0.1713 -0.5797
15739TIP3   OH268707   2.942   0.308  10.867  0.3096  0.1485  0.2284
15739TIP3    H168708   2.983   0.301  10.781  1.6814  0.1608  0.8578
15739TIP3    H268709   2.917   0.400  10.874  0.0299  0.1095 -0.2260
15740TIP3   OH268710   2.328   2.298  10.465  0.4260 -0.4404  0.4560
15740TIP3    H168711   2.312   2.205  10.477  1.2182 -0.3977  2.0657
15740TIP3    H268712   2.245   2.333  10.431 -0.9441 -1.2111  2.8342
15741TIP3   OH268713   4.728   5.012   3.575 -0.0351 -0.1045  0.0067
15741TIP3    H168714   4.777   5.075   3.522 -0.7519  0.3466 -0.1264
15741TIP3    H268715   4.707   4.941   3.515  0.3216 -0.2323  0.0281
15742TIP3   OH268716   1.394   0.830  16.237  0.6096 -0.3339 -0.0876
15742TIP3    H168717   1.488   0.822  16.223  0.4511  0.0270 -1.5265
15742TIP3    H268718   1.386   0.870  16.324  1.8235  0.8028 -0.4562
15743TIP3   OH268719   1.684   5.011  13.396  0.0014  0.0901  0.5748
15743TIP3    H168720   1.605   4.978  13.439 -0.3446 -1.3071 -1.0397
15743TIP3    H268721   1.754   4.998  13.460 -1.0508  1.5369  2.1027
15744TIP3   OH268722   0.871   2.018  10.840  0.1798 -0.3600  0.3038
15744TIP3    H168723   0.848   2.089  10.779  2.0196  2.5878  2.7706
15744TIP3    H268724   0.787   1.994  10.880 -0.2280  3.8925  2.7064
15745TIP3   OH268725   3.972   3.957  14.098  0.4321 -0.5155 -0.3069
15745TIP3    H168726   3.879   3.976  14.108  0.0256 -1.9720 -0.9764
15745TIP3    H268727   3.978   3.909  14.015  2.1327  1.6486 -1.5602
15746TIP3   OH268728   0.544   6.180   4.518  0.0066  0.0478  0.4777
15746TIP3    H168729   0.530   6.150   4.428  0.9168 -0.1873  0.4050
15746TIP3    H268730   0.618   6.128   4.549 -0.3196  0.1044  1.3794
15747TIP3   OH268731   0.004   3.746   2.148 -0.1914  0.2742 -0.2809
15747TIP3    H168732  -0.042   3.794   2.217  0.9369  0.6072  0.2686
15747TIP3    H268733   0.004   3.655   2.179  1.9134  0.6711  1.1554
15748TIP3   OH268734   6.387   5.045  13.729  0.3547  0.6546 -0.1084
15748TIP3    H168735   6.362   5.107  13.660 -0.0620  0.0919 -0.4652
15748TIP3    H268736   6.478   5.025  13.710  0.7551  1.7968  0.5006
15749TIP3   OH268737   5.224   5.699   5.583 -0.1372 -0.3468  0.0481
15749TIP3    H168738   5.168   5.728   5.511  2.2278 -0.0076 -1.7876
15749TIP3    H268739   5.206   5.760   5.654 -1.9701 -0.1993 -0.4914
15750TIP3   OH268740   6.616   4.182  11.487 -0.1476 -0.5625  0.0280
15750TIP3    H168741   6.607   4.119  11.558  1.0278 -1.0891 -0.2700
15750TIP3    H268742   6.646   4.129  11.412  4.3404  0.7367  0.6275
15751TIP3   OH268743   5.571   4.903   4.977  0.3469 -0.1869 -0.7121
15751TIP3    H168744   5.593   4.896   5.070  0.0374  1.0338 -0.5311
15751TIP3    H268745   5.588   4.995   4.955 -0.4104 -0.2553 -1.6488
15752TIP3   OH268746   1.927   1.154   4.026  0.2189 -0.3751 -0.2564
15752TIP3    H168747   1.910   1.171   3.933 -1.0636 -0.3077 -0.0338
15752TIP3    H268748   1.867   1.213   4.072 -0.8109 -1.9929  0.5720
15753TIP3   OH268749   6.710   2.488  15.184 -0.2339  0.1350 -0.3639
15753TIP3    H168750   6.662   2.409  15.208 -0.6378  0.0876 -1.2644
15753TIP3    H268751   6.643   2.545  15.144 -0.2020  1.4108  1.2888
15754TIP3   OH268752   0.939   0.512   2.652  0.2946 -0.0089  0.3888
15754TIP3    H168753   0.930   0.595   2.699 -3.8639 -0.5119  0.9034
15754TIP3    H268754   0.917   0.533   2.561 -1.2293 -0.5094  0.6033
15755TIP3   OH268755   0.802   1.502  12.401  0.0376  0.3696 -0.0148
15755TIP3    H168756   0.781   1.535  12.488  0.4738  1.5330 -0.3412
15755TIP3    H268757   0.862   1.429  12.416 -1.2188 -0.5538  0.7306
15756TIP3   OH268758   5.168   0.329  10.459 -0.0793 -0.3191 -0.3886
15756TIP3    H168759   5.115   0.269  10.405  1.0026 -1.2732 -0.4244
15756TIP3    H268760   5.248   0.280  10.478 -0.4175 -0.0518  2.1200
15757TIP3   OH268761   1.710   4.840   2.487 -0.1255 -0.0325 -0.2213
15757TIP3    H168762   1.624   4.809   2.459 -0.3270  0.4960 -0.2086
15757TIP3    H268763   1.758   4.855   2.406 -0.4532  0.7841 -0.2780
15758TIP3   OH268764   0.720   2.822  15.588 -0.1096  0.0967  0.4036
15758TIP3    H168765   0.645   2.860  15.635 -0.4901  0.2837 -0.3362
15758TIP3    H268766   0.715   2.728  15.607 -1.5772 -0.1639 -1.0167
15759TIP3   OH268767   0.017   5.918   1.770  0.5452  0.2208  0.1737
15759TIP3    H168768   0.071   5.870   1.832  0.7719 -1.2246 -1.0749
15759TIP3    H268769   0.068   5.916   1.688 -0.1664  1.2349 -0.3124
15760TIP3   OH268770   0.979   2.467   5.955  0.2174  0.0308 -0.0414
15760TIP3    H168771   1.064   2.427   5.971  0.1894 -0.4241 -0.9499
15760TIP3    H268772   0.926   2.442   6.032  0.8636  0.2492  0.4855
15761TIP3   OH268773   3.020   6.644   1.950 -0.1830  0.0832 -0.0509
15761TIP3    H168774   3.002   6.560   1.993  2.0694 -0.3543  0.1297
15761TIP3    H268775   2.963   6.644   1.873  0.0692 -1.7895 -0.2745
15762TIP3   OH268776   6.766   1.085   0.435  0.0973 -0.5283 -0.2264
15762TIP3    H168777   6.808   1.000   0.424 -1.2228 -1.0520 -1.5173
15762TIP3    H268778   6.766   1.123   0.348 -2.8070 -0.9336 -0.4964
15763TIP3   OH268779   2.757   6.801   3.366  0.3555 -0.3615  0.4485
15763TIP3    H168780   2.696   6.744   3.319 -1.1678  3.5028 -2.9076
15763TIP3    H268781   2.711   6.885   3.371  4.1096  1.8819  0.7411
15764TIP3   OH268782   1.967   4.761   0.293  0.5185  0.4358 -0.0117
15764TIP3    H168783   1.949   4.675   0.330 -0.3740  0.7806  0.3944
15764TIP3    H268784   2.056   4.755   0.258 -0.2064 -1.2615 -1.7427
15765TIP3   OH268785   4.657   6.326  12.237  0.3745  0.1498  0.3513
15765TIP3    H168786   4.635   6.346  12.328  1.0967  2.7015  0.0381
15765TIP3    H268787   4.744   6.286  12.241  1.1250  1.7332  0.7284
15766TIP3   OH268788   3.968   0.140   1.885 -0.1926  0.1247  0.2003
15766TIP3    H168789   3.904   0.148   1.955  0.6035 -0.3422  1.0065
15766TIP3    H268790   3.943   0.061   1.838 -0.1913 -0.0727  0.5309
15767TIP3   OH268791   5.563   6.130   0.756 -0.4861 -0.8412  0.0961
15767TIP3    H168792   5.532   6.145   0.845  1.4104 -0.9650  0.8257
15767TIP3    H268793   5.575   6.218   0.719  1.5010 -0.6679  1.0275
15768TIP3   OH268794   0.227   1.948   3.497 -0.6666 -0.5170  0.0683
15768TIP3    H168795   0.222   1.852   3.491  1.9308 -0.7798  1.1142
15768TIP3    H268796   0.221   1.977   3.406  0.9791 -1.8852 -0.5429
15769TIP3   OH268797   6.409   1.408   2.886 -0.6411 -0.4456  0.0743
15769TIP3    H168798   6.422   1.416   2.792 -2.7721  1.2648 -0.1660
15769TIP3    H268799   6.418   1.315   2.905  0.4501 -0.7322 -1.6881
15770TIP3   OH268800   2.848   5.228  15.478  0.0764 -0.8019  0.1480
15770TIP3    H168801   2.805   5.176  15.546 -0.2863  0.6583  1.0965
15770TIP3    H268802   2.941   5.220  15.498 -0.0265 -0.4159  0.8133
15771TIP3   OH268803   4.636   6.464  13.329 -0.2630  0.6400 -0.1665
15771TIP3    H168804   4.585   6.385  13.350  0.1595  0.2384 -0.6431
15771TIP3    H268805   4.608   6.528  13.395 -2.3685  0.8671 -1.1697
15772TIP3   OH268806   4.670   5.604  10.836  0.2704  0.0468 -0.1825
15772TIP3    H168807   4.679   5.633  10.927  0.1743 -0.5974  0.0337
15772TIP3    H268808   4.591   5.649  10.805  1.0168  1.2922 -0.3646
15773TIP3   OH268809   4.835   6.257   1.323  0.5085  0.2966 -0.6610
15773TIP3    H168810   4.890   6.326   1.287  4.0366 -0.0426  3.3467
15773TIP3    H268811   4.861   6.178   1.277  1.2497  0.6241 -0.8076
15774TIP3   OH268812   5.592   5.015  12.045  0.1583 -0.1142 -0.3167
15774TIP3    H168813   5.628   5.104  12.051  1.2404 -0.3788 -2.1267
15774TIP3    H268814   5.516   5.016  12.103  0.1205  1.9987 -0.3135
15775TIP3   OH268815   6.228   3.500  13.715 -0.3257  0.5925 -0.0271
15775TIP3    H168816   6.133   3.507  13.705 -0.3959 -0.5344 -0.2876
15775TIP3    H268817   6.246   3.537  13.802 -1.0698  0.3740  0.2251
15776TIP3   OH268818   0.777   0.320   2.769 -0.3434 -0.4466  0.1310
15776TIP3    H168819   0.778   0.296   2.862  0.9092  1.3561  0.6366
15776TIP3    H268820   0.776   0.416   2.769 -1.2804 -0.4054 -1.7448
15777TIP3   OH268821   6.077   0.499   1.714 -0.0863  0.1508 -0.3962
15777TIP3    H168822   6.022   0.430   1.676  0.0267  0.3139 -0.8624
15777TIP3    H268823   6.146   0.513   1.650  1.2951 -0.9710  0.7646
15778TIP3   OH268824   0.107   3.828   0.365  0.5998 -0.9030 -0.1194
15778TIP3    H168825   0.050   3.903   0.384 -1.9993 -2.6095 -0.6729
15778TIP3    H268826   0.151   3.852   0.284  2.0563  1.1535  1.1770
15779TIP3   OH268827   1.838   0.016  13.523  0.6848 -0.6221 -0.6492
15779TIP3    H168828   1.793  -0.046  13.465  1.0588 -0.0637 -1.5576
15779TIP3    H268829   1.845   0.097  13.472  3.7679 -1.0086 -1.0700
15780TIP3   OH268830   5.109   6.536  16.339 -0.1012  0.1678  0.3990
15780TIP3    H168831   5.138   6.462  16.285 -1.8717 -0.2788  0.0025
15780TIP3    H268832   5.017   6.548  16.316 -0.5197  0.8968  2.3029
15781TIP3   OH268833   3.210   6.791   5.371  0.0801  0.1785 -0.3827
15781TIP3    H168834   3.280   6.770   5.309  0.2544 -1.0479  0.1959
15781TIP3    H268835   3.216   6.723   5.438 -0.2737  1.3252  0.8615
15782TIP3   OH268836   5.777   3.038  12.578  0.0884  0.5319  0.1794
15782TIP3    H168837   5.718   2.989  12.521 -1.5510  0.2826  1.9728
15782TIP3    H268838   5.776   3.127  12.543 -1.6974  0.6269  0.3495
15783TIP3   OH268839   2.908   1.928  12.220  0.7616 -0.1238 -0.4426
15783TIP3    H168840   2.928   1.943  12.313  1.9806 -1.9015 -0.3758
15783TIP3    H268841   2.883   2.014  12.187  2.7322  1.0591  0.9496
15784TIP3   OH268842   0.636   0.025  14.063 -0.0426  0.4556  0.2919
15784TIP3    H168843   0.677   0.091  14.120 -1.3545  0.9200  0.7420
15784TIP3    H268844   0.575  -0.020  14.121  0.5341 -0.9014 -0.1207
15785TIP3   OH268845   4.445   0.507  14.131  0.2891  0.2621 -0.2097
15785TIP3    H168846   4.445   0.595  14.093 -0.4137  0.0379 -0.7611
15785TIP3    H268847   4.453   0.449  14.056  1.9579 -0.1342  0.2436
15786TIP3   OH268848   3.004   1.182  12.135  0.2537 -0.3152 -0.4196
15786TIP3    H168849   3.005   1.122  12.211 -0.4534  0.0030 -0.1540
15786TIP3    H268850   2.929   1.154  12.084 -0.3279  0.5994 -0.0842
15787TIP3   OH268851   2.825   1.067   5.909  0.2433 -0.2501  0.2002
15787TIP3    H168852   2.769   0.996   5.876 -0.7734  0.3489  0.5994
15787TIP3    H268853   2.831   1.129   5.837  1.7940 -1.0892 -0.4369
15788TIP3   OH268854   5.251   0.976  11.279 -0.2325 -0.1140 -0.2210
15788TIP3    H168855   5.345   0.987  11.296 -0.3875 -0.7326  1.2557
15788TIP3    H268856   5.209   1.044  11.331 -0.7018 -1.5510  1.3974
15789TIP3   OH268857   0.892   3.592  12.858 -0.2978  0.9795  0.5836
15789TIP3    H168858   0.914   3.507  12.821 -2.5752  2.2357 -4.4750
15789TIP3    H268859   0.809   3.578  12.902  0.7819  0.1468  2.5004
15790TIP3   OH268860   2.271   0.753  15.412 -0.2080 -0.0529  0.3818
15790TIP3    H168861   2.327   0.716  15.480 -0.5027 -2.4174 -0.5676
15790TIP3    H268862   2.207   0.685  15.394 -0.6232  0.7997 -1.7023
15791TIP3   OH268863   0.581   2.887  16.801 -0.2974 -0.1111  0.2654
15791TIP3    H168864   0.651   2.925  16.855 -0.2897  0.5811 -0.2179
15791TIP3    H268865   0.570   2.798  16.836  2.6698 -1.2604 -1.3023
15792TIP3   OH268866   0.919   1.267   1.960  0.8240  0.1708  0.0686
15792TIP3    H168867   1.003   1.229   1.983 -0.1527 -1.3917  1.3242
15792TIP3    H268868   0.855   1.217   2.011 -0.7676  2.1401  0.1709
15793TIP3   OH268869   1.646   0.127  11.020  0.5980 -0.7006 -0.0772
15793TIP3    H168870   1.661   0.032  11.019  1.8731 -0.5248  0.3289
15793TIP3    H268871   1.552   0.136  11.004  0.8219 -1.9396 -2.8597
15794TIP3   OH268872   3.513   2.271   5.300 -0.6350 -0.5200  0.1680
15794TIP3    H168873   3.512   2.343   5.363  0.0459  0.9994 -1.4680
15794TIP3    H268874   3.578   2.210   5.334 -0.6197  0.0298  1.1569
15795TIP3   OH268875   2.477   2.260   3.047  0.5231 -0.1006 -0.4633
15795TIP3    H168876   2.500   2.269   2.954  0.7971  2.0066 -0.2320
15795TIP3    H268877   2.487   2.166   3.065 -0.4067 -0.7151 -2.7643
15796TIP3   OH268878   3.420   4.706  14.554  0.0216  0.2254 -0.1640
15796TIP3    H168879   3.397   4.613  14.557  0.2260  0.1946  0.8514
15796TIP3    H268880   3.484   4.717  14.624  1.9986  0.6235 -1.9502
15797TIP3   OH268881   1.093   3.421  12.159 -0.3498 -0.6483  0.0149
15797TIP3    H168882   1.067   3.483  12.090  0.6805  0.6970  0.7924
15797TIP3    H268883   1.020   3.358  12.163 -1.2038  0.2207 -1.1400
15798TIP3   OH268884   3.598   5.187   5.641 -0.4535 -0.4645  0.2644
15798TIP3    H168885   3.550   5.122   5.588  2.3646 -1.0491 -1.7876
15798TIP3    H268886   3.642   5.135   5.708  0.3344 -0.4616 -0.2397
15799TIP3   OH268887   3.512   5.029   6.540 -0.2856 -0.4728 -0.1446
15799TIP3    H168888   3.531   5.082   6.463 -2.9607 -0.3627 -0.8280
15799TIP3    H268889   3.564   5.069   6.610 -0.6586  1.7904 -1.0720
15800TIP3   OH268890   1.033   0.537   1.489  0.4476 -0.0197 -0.1648
15800TIP3    H168891   0.964   0.475   1.468 -1.1253  0.6803  2.4545
15800TIP3    H268892   1.111   0.502   1.446 -0.7770 -2.7408 -0.3773
15801TIP3   OH268893   6.375   0.570  14.652 -0.0638 -0.1201 -0.9216
15801TIP3    H168894   6.440   0.501  14.639 -1.6002 -1.7616 -0.4563
15801TIP3    H268895   6.414   0.629  14.715  0.6752 -1.4944 -0.0473
15802TIP3   OH268896   5.840   1.273  13.984  0.2854  0.3786 -0.3827
15802TIP3    H168897   5.888   1.354  13.969  1.2063 -0.1450 -0.2894
15802TIP3    H268898   5.883   1.233  14.059 -1.1658  0.5601  0.6010
15803TIP3   OH268899   0.697   3.951   5.243 -0.0540 -0.6342  0.2815
15803TIP3    H168900   0.676   3.858   5.237 -0.7173 -0.3771 -2.5200
15803TIP3    H268901   0.721   3.977   5.154  0.4635  1.8128  1.0431
15804TIP3   OH268902   1.138   5.387   1.032 -0.9367 -0.6866  0.5331
15804TIP3    H168903   1.218   5.336   1.040  1.2356  2.2523 -0.8039
15804TIP3    H268904   1.123   5.423   1.119  0.5177  0.4849  0.3326
15805TIP3   OH268905   0.922   0.086   1.382  0.2032 -0.3370 -0.0482
15805TIP3    H168906   1.008   0.064   1.346  0.5201 -1.7622  1.4810
15805TIP3    H268907   0.859   0.041   1.325  0.5413 -0.4015 -0.3687
15806TIP3   OH268908   3.884   6.365  16.941  0.0557 -0.0786  0.1866
15806TIP3    H168909   3.831   6.386  16.864 -0.9518 -0.2393  0.8268
15806TIP3    H268910   3.944   6.439  16.949 -1.5015  1.1708  0.6977
15807TIP3   OH268911   2.949   5.898   0.014  0.0745 -0.1365 -0.3450
15807TIP3    H168912   3.029   5.949   0.009  0.8487 -1.1918  0.7936
15807TIP3    H268913   2.955   5.835  -0.058  0.0373  0.0885 -0.5457
15808TIP3   OH268914   4.227   3.403  12.081 -0.0859 -0.0887 -0.1833
15808TIP3    H168915   4.168   3.345  12.032 -0.3211 -1.3859  1.5095
15808TIP3    H268916   4.186   3.489  12.076  0.1878 -0.0259 -2.6478
15809TIP3   OH268917   3.875   3.918   2.129 -0.3715  0.5469 -0.4374
15809TIP3    H168918   3.955   3.967   2.146 -2.3717  4.0265 -0.1240
15809TIP3    H268919   3.846   3.889   2.216  0.4421 -0.6383 -0.5416
15810TIP3   OH268920   2.054   6.556  10.921 -0.1481  0.3030 -1.0576
15810TIP3    H168921   2.038   6.489  10.854  1.6284  1.3053 -2.5830
15810TIP3    H268922   2.008   6.633  10.889 -0.2390  0.4761 -0.5142
15811TIP3   OH268923   6.022   0.617  14.176  0.1855 -0.2499  0.3203
15811TIP3    H168924   5.956   0.567  14.223 -0.3408 -1.9928 -2.0876
15811TIP3    H268925   6.079   0.551  14.136  0.2326  1.0503 -1.9516
15812TIP3   OH268926   5.032   2.879   3.058 -0.7885  0.2523 -0.0648
15812TIP3    H168927   5.117   2.902   3.095 -0.6866 -0.0700 -0.1010
15812TIP3    H268928   4.982   2.960   3.063 -0.8500  0.1553  0.9589
15813TIP3   OH268929   0.057   5.680  14.238  0.2574 -0.3248  0.5965
15813TIP3    H168930   0.055   5.587  14.217  0.2717 -0.2616  0.3023
15813TIP3    H268931  -0.006   5.690  14.309  1.5403 -0.8452  1.8594
15814TIP3   OH268932   4.735   1.352  17.189  0.2763  0.0244 -0.2215
15814TIP3    H168933   4.684   1.271  17.186 -0.6766  0.5424  0.8601
15814TIP3    H268934   4.821   1.326  17.223 -0.7111 -0.2755  2.2491
15815TIP3   OH268935   6.172   5.161  13.901  0.3445 -0.0072 -0.2793
15815TIP3    H168936   6.245   5.176  13.962  0.2783 -1.5771  0.2565
15815TIP3    H268937   6.215   5.137  13.819  0.4407  2.5191 -1.0333
15816TIP3   OH268938   5.045   1.328  10.948 -0.0199  0.4018  0.0334
15816TIP3    H168939   4.989   1.255  10.920  0.3117 -0.1293  0.7351
15816TIP3    H268940   5.080   1.364  10.867 -1.0987  0.5211 -0.4022
15817TIP3   OH268941   4.965   6.793   3.341 -0.3328  0.2317 -0.1751
15817TIP3    H168942   4.874   6.765   3.330 -0.6579  0.8709  0.7491
15817TIP3    H268943   5.016   6.721   3.304 -1.2241  0.7830 -2.6299
15818TIP3   OH268944   1.823   6.405  12.103 -0.0392  0.0851  0.3425
15818TIP3    H168945   1.870   6.488  12.094  0.7549  0.0164  2.9584
15818TIP3    H268946   1.784   6.390  12.017  1.6649  2.0243 -0.8663
15819TIP3   OH268947   4.310   3.848  17.097  0.0705 -0.2306 -0.3509
15819TIP3    H168948   4.343   3.919  17.151  0.5268 -0.4535 -0.3364
15819TIP3    H268949   4.359   3.854  17.015 -1.0132  0.4597 -0.9766
15820TIP3   OH268950   6.525   2.183   5.593 -0.2862 -0.3123  0.0037
15820TIP3    H168951   6.434   2.204   5.574 -0.2772  1.5450  1.7040
15820TIP3    H268952   6.521   2.120   5.665 -0.2334  0.2851  0.5348
15821TIP3   OH268953   6.114   5.871  14.512  0.2697  0.2770  0.2182
15821TIP3    H168954   6.156   5.838  14.433  1.2717 -0.5385  1.0656
15821TIP3    H268955   6.069   5.951  14.484  0.3885 -0.1392 -1.2165
15822TIP3   OH268956   3.563   4.322   2.409  0.5676  0.2191 -0.1160
15822TIP3    H168957   3.618   4.305   2.485 -0.7470  0.3002  0.8753
15822TIP3    H268958   3.560   4.238   2.363  0.6733 -0.0612  0.3805
15823TIP3   OH268959   2.887   6.128  11.261 -0.3670 -0.0151  0.2179
15823TIP3    H168960   2.966   6.074  11.261 -0.3726 -0.0248  0.4597
15823TIP3    H268961   2.919   6.218  11.251 -0.3000  0.0176  0.7427
15824TIP3   OH268962   2.330   1.093   4.379  0.1758 -0.5544  0.4149
15824TIP3    H168963   2.315   1.035   4.454 -0.1127 -0.7869  0.1794
15824TIP3    H268964   2.243   1.123   4.354  0.3179 -0.0836  0.4822
15825TIP3   OH268965   3.393   2.136   1.109 -0.1735  0.2030  0.7171
15825TIP3    H168966   3.474   2.088   1.129 -0.6181 -0.8793 -0.0050
15825TIP3    H268967   3.328   2.068   1.092 -0.5953  1.0377 -1.2720
15826TIP3   OH268968   1.850   0.294  10.730 -0.2205 -0.0160  0.1170
15826TIP3    H168969   1.940   0.312  10.701  0.1221  1.3369  1.8637
15826TIP3    H268970   1.804   0.267  10.650  0.9493  2.3518 -1.4759
15827TIP3   OH268971   1.309   1.811   2.613  0.1284 -0.5032  0.4472
15827TIP3    H168972   1.379   1.859   2.568 -1.8705  2.1375 -0.1350
15827TIP3    H268973   1.340   1.804   2.704  1.2127  0.5147  0.1915
15828TIP3   OH268974   1.888   2.273   1.312 -0.0314  0.0806  0.4527
15828TIP3    H168975   1.886   2.241   1.222 -2.6252  1.6075 -0.1189
15828TIP3    H268976   1.870   2.367   1.305  3.4228  1.0665  2.3524
15829TIP3   OH268977   6.567   3.045  12.049  0.7650  0.0914  0.1695
15829TIP3    H168978   6.563   3.040  11.953  0.3383  0.0303  0.1889
15829TIP3    H268979   6.502   3.112  12.072  1.5902  0.8460  0.3566
15830TIP3   OH268980   2.282   3.072   4.823  0.4532  0.0674  0.4687
15830TIP3    H168981   2.337   3.137   4.779  1.2413 -0.3448  0.8231
15830TIP3    H268982   2.338   3.036   4.892  0.5889 -2.0628 -0.6645
15831TIP3   OH268983   1.804   1.424   3.482  0.2441  0.6652  0.1132
15831TIP3    H168984   1.841   1.390   3.563  0.5122  1.7042  0.4398
15831TIP3    H268985   1.781   1.346   3.432  3.0598 -0.0751 -0.1966
15832TIP3   OH268986   4.787   1.356  15.292  0.0947  0.0211  0.0374
15832TIP3    H168987   4.838   1.277  15.310 -0.3231 -0.1485  0.5050
15832TIP3    H268988   4.812   1.417  15.361  0.0587  0.1245 -0.0404
15833TIP3   OH268989   5.301   2.132  14.165 -0.3192 -0.8250  0.2508
15833TIP3    H168990   5.380   2.165  14.123  0.0240 -2.3730 -0.3906
15833TIP3    H268991   5.322   2.041  14.188 -1.2740 -0.6975  1.7745
15834TIP3   OH268992   5.095   4.544   4.414  0.4547 -0.0029  0.1926
15834TIP3    H168993   5.140   4.511   4.491  2.6265  1.0822 -0.5415
15834TIP3    H268994   5.121   4.484   4.343  1.5209  1.1220 -0.4103
15835TIP3   OH268995   2.489   5.513   5.245  0.8011 -0.5149  0.0162
15835TIP3    H168996   2.536   5.477   5.170  0.5467 -2.6025  0.7937
15835TIP3    H268997   2.553   5.513   5.316  0.4860 -0.4952  0.3051
15836TIP3   OH268998   5.306   6.775   0.043 -0.2214 -0.6236 -0.0355
15836TIP3    H168999   5.326   6.719  -0.033 -0.4534  1.1543 -1.4811
15836TIP3    H269000   5.211   6.767   0.053 -0.2222 -0.6875 -0.0860
15837TIP3   OH269001   6.164   2.732   3.136 -0.1039  0.5730  0.1867
15837TIP3    H169002   6.086   2.786   3.121  0.3955  2.0523  2.5293
15837TIP3    H269003   6.235   2.794   3.147  0.6103 -0.5248  2.4146
15838TIP3   OH269004   0.476   3.305  15.790 -0.0329 -0.0771  0.0782
15838TIP3    H169005   0.387   3.302  15.824 -0.8456  0.8748 -1.8264
15838TIP3    H269006   0.530   3.265  15.858 -2.2118 -3.0728  0.2080
15839TIP3   OH269007   1.733   6.528   1.265 -0.0298  0.2107 -0.3139
15839TIP3    H169008   1.656   6.473   1.279  0.5961 -0.4859  0.5040
15839TIP3    H269009   1.698   6.617   1.262 -0.7631 -0.0120  0.9748
15840TIP3   OH269010   5.760   3.050   1.951 -0.2510  0.5489  0.3385
15840TIP3    H169011   5.702   3.087   1.884 -1.2130 -0.6044  0.4987
15840TIP3    H269012   5.846   3.050   1.910 -0.7133  0.4545 -0.6812
15841TIP3   OH269013   1.590   4.983  16.015 -0.0269 -0.1594 -0.1159
15841TIP3    H169014   1.655   5.019  15.953  0.5514 -1.3310 -0.2120
15841TIP3    H269015   1.589   5.046  16.087  0.9550  0.0688 -0.2825
15842TIP3   OH269016   5.189   2.739   6.440 -0.3434 -0.3315 -0.2823
15842TIP3    H169017   5.195   2.688   6.522  1.3048 -0.7889 -0.6468
15842TIP3    H269018   5.230   2.823   6.461 -1.0133  0.0096 -0.3172
15843TIP3   OH269019   3.674   6.417  14.472 -0.4213 -0.3879 -0.0798
15843TIP3    H169020   3.768   6.418  14.494 -0.4676 -1.5801  0.2759
15843TIP3    H269021   3.630   6.431  14.556 -0.5735  0.9653 -0.3668
15844TIP3   OH269022   6.182   4.240   5.782 -0.2977 -0.5556  0.8153
15844TIP3    H169023   6.098   4.205   5.812 -0.9594  1.7620  1.8632
15844TIP3    H269024   6.225   4.273   5.861  0.2741  0.9415 -0.0817
15845TIP3   OH269025   1.056   0.769   5.264 -0.3528  0.6719  0.2356
15845TIP3    H169026   1.014   0.842   5.217  0.4937  2.7374  2.4702
15845TIP3    H269027   0.985   0.730   5.314 -1.0512 -0.8881 -1.8546
15846TIP3   OH269028   3.939   4.838  11.361 -0.2564  0.5346 -0.6447
15846TIP3    H169029   3.895   4.862  11.279 -0.3501 -0.1274 -0.7929
15846TIP3    H269030   4.017   4.791  11.333 -1.5055 -1.8506 -0.3598
15847TIP3   OH269031   4.321   4.105   2.916  0.1601 -0.5237  0.2027
15847TIP3    H169032   4.356   4.174   2.860 -3.2451 -0.2314 -1.7977
15847TIP3    H269033   4.305   4.149   3.000 -0.1711  0.6637 -0.4510
15848TIP3   OH269034   1.524   0.924  13.778  0.4367 -0.2689  0.0929
15848TIP3    H169035   1.526   1.018  13.762 -3.0839 -0.1016 -0.3166
15848TIP3    H269036   1.512   0.916  13.873 -0.1175 -0.2121  0.0354
15849TIP3   OH269037   6.479   5.194   5.947  0.5575 -0.4348  0.9140
15849TIP3    H169038   6.546   5.182   5.880 -0.5423 -2.1425  0.0538
15849TIP3    H269039   6.510   5.143   6.022  1.4329  0.8874  1.4927
15850TIP3   OH269040   5.721   4.377  15.624  0.0542 -0.1607 -0.1405
15850TIP3    H169041   5.684   4.398  15.710 -1.7375  0.8789 -1.1131
15850TIP3    H269042   5.718   4.460  15.576  0.2560 -0.9080 -1.4913
15851TIP3   OH269043   5.137   5.642   0.777 -0.9338  0.2471 -0.3638
15851TIP3    H169044   5.153   5.732   0.750 -0.7087  0.1636 -0.5106
15851TIP3    H269045   5.189   5.631   0.857 -0.1657 -0.0524 -0.8910
15852TIP3   OH269046   1.290   5.634  12.262  0.0822  0.3881  0.1751
15852TIP3    H169047   1.260   5.545  12.243 -1.6109  1.2812 -1.6270
15852TIP3    H269048   1.245   5.689  12.198  2.1401  2.4066  0.3480
15853TIP3   OH269049   3.671   5.631   0.967  0.4333  0.0410 -0.3831
15853TIP3    H169050   3.685   5.611   0.874  0.3910 -1.2504 -0.1305
15853TIP3    H269051   3.577   5.619   0.979  0.5750 -0.6857  0.0215
15854TIP3   OH269052   6.686   3.753   1.462  0.5569  0.3263 -0.2011
15854TIP3    H169053   6.769   3.769   1.415 -0.0150  2.2652 -0.6555
15854TIP3    H269054   6.694   3.805   1.542  0.4736 -0.9104  0.6286
15855TIP3   OH269055   4.055   2.405  16.548  0.0532  0.9186 -0.0485
15855TIP3    H169056   4.124   2.339  16.559 -0.0305  0.7287 -0.5982
15855TIP3    H269057   4.056   2.455  16.629 -0.3658 -0.2237  0.6882
15856TIP3   OH269058   3.960   3.769  16.131 -0.2412 -0.1457 -0.9537
15856TIP3    H169059   4.037   3.715  16.114 -1.2193 -2.0426  0.1538
15856TIP3    H269060   3.890   3.727  16.081 -0.9258  0.4174 -0.4900
15857TIP3   OH269061   1.679   5.723   2.944 -0.5553 -0.4967 -0.0337
15857TIP3    H169062   1.759   5.673   2.959 -1.3923 -1.8934  0.0269
15857TIP3    H269063   1.708   5.804   2.903  0.8775 -1.0287 -0.1236
15858TIP3   OH269064   0.956   4.214   6.457  0.6350 -0.1340 -0.3438
15858TIP3    H169065   0.905   4.148   6.410 -1.2554  0.9783  0.0358
15858TIP3    H269066   1.020   4.164   6.507  1.3766 -1.4787 -2.4706
15859TIP3   OH269067   4.125   1.262   3.547  0.1875 -0.2018  0.4751
15859TIP3    H169068   4.181   1.282   3.621 -0.9386  0.3533  1.1989
15859TIP3    H269069   4.110   1.346   3.504  1.3984 -0.6130 -0.8232
15860TIP3   OH269070   3.753   2.510   2.749  0.0581 -0.3769  0.1297
15860TIP3    H169071   3.659   2.490   2.742  0.2627 -1.0462 -1.0178
15860TIP3    H269072   3.765   2.537   2.840 -1.0688 -1.2793  0.5763
15861TIP3   OH269073   4.937   5.221   5.476  0.4047  0.0418 -0.6310
15861TIP3    H169074   4.865   5.273   5.511 -2.4378 -2.3676 -2.5132
15861TIP3    H269075   5.008   5.285   5.464 -1.0837  2.4104  1.9030
15862TIP3   OH269076   0.195   3.747  11.256 -0.3788  0.3151 -0.0664
15862TIP3    H169077   0.193   3.672  11.196  1.0048 -0.1932  0.4898
15862TIP3    H269078   0.108   3.786  11.248 -1.2244 -1.4946 -0.2013
15863TIP3   OH269079   1.142   2.718  12.436  0.5861 -0.1430  0.3067
15863TIP3    H169080   1.112   2.676  12.516  1.4394 -1.5503 -0.0800
15863TIP3    H269081   1.062   2.747  12.392  0.0572 -0.2922  1.1622
15864TIP3   OH269082   5.616   2.026   2.310 -0.0998 -0.2984  0.4182
15864TIP3    H169083   5.619   2.018   2.215 -0.2574 -0.8589  0.4556
15864TIP3    H269084   5.568   1.948   2.339  0.3848 -0.3882  0.9920
15865TIP3   OH269085   4.571   2.668   4.405  0.2079 -0.6523 -0.3124
15865TIP3    H169086   4.524   2.592   4.369 -1.1033  0.6337 -1.4343
15865TIP3    H269087   4.510   2.707   4.467 -0.2482  0.9863 -1.7112
15866TIP3   OH269088   2.577   5.087  14.658  0.2320  0.1436 -0.0270
15866TIP3    H169089   2.525   5.157  14.697  1.2474  0.2830  1.1087
15866TIP3    H269090   2.667   5.105  14.685  0.9175 -0.0810 -1.9685
15867TIP3   OH269091   2.232   0.690  13.697  0.3261  0.0249 -0.0802
15867TIP3    H169092   2.242   0.621  13.762  3.5314  0.8693  0.4825
15867TIP3    H269093   2.139   0.710  13.697 -0.2998 -2.4819  1.6026
15868TIP3   OH269094   3.199   2.881   6.295 -0.1809  0.5204  0.8028
15868TIP3    H169095   3.262   2.950   6.317  0.0745  0.9021 -0.9452
15868TIP3    H269096   3.253   2.805   6.274 -0.1570  1.0777 -1.5068
15869TIP3   OH269097   4.141   6.241  13.321  0.0510  0.1288  0.4329
15869TIP3    H169098   4.182   6.168  13.276 -1.0425 -0.0575 -0.2896
15869TIP3    H269099   4.103   6.295  13.251  0.4674  1.1706  0.9778
15870TIP3   OH269100   4.374   0.714  12.113  0.5349 -0.0107 -0.2923
15870TIP3    H169101   4.317   0.786  12.084  1.5474  1.0547  0.2784
15870TIP3    H269102   4.366   0.716  12.209 -0.4418 -1.5419 -0.2986
15871TIP3   OH269103   0.776   3.996   2.783 -0.4093  0.0045 -0.3550
15871TIP3    H169104   0.838   4.068   2.793 -0.6469 -0.0309  1.8612
15871TIP3    H269105   0.691   4.038   2.768 -0.5309  0.2168  0.8416
15872TIP3   OH269106   3.759   1.095  14.723 -0.2912  0.1711 -0.0306
15872TIP3    H169107   3.826   1.153  14.688 -0.5272 -0.1028 -0.9515
15872TIP3    H269108   3.808   1.026  14.769  0.0366  0.2593 -0.2462
15873TIP3   OH269109   6.283   3.205   2.205 -0.0095 -0.4069 -0.1500
15873TIP3    H169110   6.335   3.264   2.151 -0.1333  0.4930  0.6842
15873TIP3    H269111   6.294   3.119   2.165  2.2283 -0.2653  0.0798
15874TIP3   OH269112   3.010   1.569  12.424 -0.3016 -0.6989  0.5598
15874TIP3    H169113   3.104   1.551  12.429  0.2482  1.3265 -0.8192
15874TIP3    H269114   2.983   1.529  12.342 -0.5649 -0.9740  0.7815
15875TIP3   OH269115   1.003   5.611   0.509 -0.0725  0.3468  0.0886
15875TIP3    H169116   1.025   5.690   0.558 -0.4250  0.2717  0.3690
15875TIP3    H269117   0.994   5.543   0.576 -1.7110  0.4878  0.0681
15876TIP3   OH269118   4.096   0.616   2.851 -0.8858 -0.0381 -0.1001
15876TIP3    H169119   4.164   0.609   2.784 -1.0115 -0.1734 -0.2157
15876TIP3    H269120   4.114   0.699   2.895 -1.7568  0.8679 -1.3682
15877TIP3   OH269121   1.563   3.482   1.721  0.3098 -0.1976 -0.4047
15877TIP3    H169122   1.514   3.540   1.779 -0.0638 -0.9138  0.0074
15877TIP3    H269123   1.565   3.529   1.637  0.6277  0.7243  0.1045
15878TIP3   OH269124   5.320   5.641  14.724 -0.6939 -0.3755 -0.4385
15878TIP3    H169125   5.345   5.705  14.657  2.3716 -1.9530 -0.9747
15878TIP3    H269126   5.313   5.693  14.804 -0.0601  0.8986 -1.1741
15879TIP3   OH269127   4.787   4.333   1.904 -0.0942  0.4926  0.0982
15879TIP3    H169128   4.778   4.271   1.832  0.3208 -1.2595  1.5097
15879TIP3    H269129   4.705   4.382   1.903  0.3563  1.3560 -2.2617
15880TIP3   OH269130   6.169   4.834  17.217  0.1040  0.1217 -0.0157
15880TIP3    H169131   6.149   4.866  17.305 -2.0406 -1.1800  0.0367
15880TIP3    H269132   6.230   4.761  17.231  0.5336  0.5325  0.2898
15881TIP3   OH269133   6.015   2.696   3.488  0.1688 -0.3811  0.3575
15881TIP3    H169134   5.928   2.679   3.452  0.1122 -1.3437  0.9060
15881TIP3    H269135   6.075   2.653   3.428  0.2914  0.5076 -0.1636
15882TIP3   OH269136   4.231   3.339  14.264  0.6695  0.5813 -0.4734
15882TIP3    H169137   4.316   3.360  14.226  0.2537  1.1879 -1.0731
15882TIP3    H269138   4.180   3.302  14.191  0.7707 -0.8255  0.1270
15883TIP3   OH269139   3.728   5.555  11.985  0.3539  0.1216 -0.7300
15883TIP3    H169140   3.753   5.647  11.985 -0.3987  0.3608  0.6815
15883TIP3    H269141   3.687   5.540  11.900  0.0986  1.2011 -0.8050
15884TIP3   OH269142   2.349   4.906   0.552  0.1005  0.4253 -0.2505
15884TIP3    H169143   2.324   4.932   0.463 -1.0249  0.7772  0.1454
15884TIP3    H269144   2.396   4.982   0.587  2.5295 -0.5117 -1.2530
15885TIP3   OH269145   2.327   4.496   1.014  0.0527 -0.0123  0.3707
15885TIP3    H169146   2.382   4.481   0.937 -0.3345  0.8218 -0.0816
15885TIP3    H269147   2.367   4.571   1.058 -1.9987  2.1579 -1.2447
15886TIP3   OH269148   0.074   0.280  10.375 -0.1200  0.1081 -0.5529
15886TIP3    H169149   0.049   0.350  10.435  1.4805 -1.1570  1.7537
15886TIP3    H269150   0.136   0.322  10.315 -0.1892  0.9493 -0.0613
15887TIP3   OH269151   2.063   3.305   1.997  0.0782 -0.6879 -0.3064
15887TIP3    H169152   2.085   3.327   1.906 -1.1267 -1.1682 -0.7201
15887TIP3    H269153   1.985   3.357   2.016  2.0559  1.8689  1.5284
15888TIP3   OH269154   4.301   0.703   4.483  0.0569  0.1786 -0.0883
15888TIP3    H169155   4.348   0.736   4.560 -1.1144 -1.7603  1.5701
15888TIP3    H269156   4.245   0.775   4.457  1.6533  1.4438 -0.1844
15889TIP3   OH269157   1.088   3.347  17.059 -0.1577  0.5508 -0.0446
15889TIP3    H169158   1.107   3.387  17.144  0.7798 -2.3441  1.2419
15889TIP3    H269159   1.060   3.258  17.080 -0.2158 -0.1638 -2.7760
15890TIP3   OH269160   6.295   4.787   2.821 -0.1495 -0.4100 -0.8544
15890TIP3    H169161   6.302   4.810   2.728  1.5382  1.2665 -0.3790
15890TIP3    H269162   6.356   4.846   2.865  0.8623 -2.7080  1.0847
15891TIP3   OH269163   5.199   0.454   3.775  0.3751  0.2465 -0.7329
15891TIP3    H169164   5.122   0.474   3.721  1.5651  0.9374 -2.2332
15891TIP3    H269165   5.172   0.378   3.827 -1.0377 -0.0625 -1.8467
15892TIP3   OH269166   1.274   2.306   5.176  0.7920  0.1539 -0.3574
15892TIP3    H169167   1.268   2.400   5.193 -1.5976  0.1193 -0.6253
15892TIP3    H269168   1.252   2.265   5.260  0.2930 -0.1403 -0.6284
15893TIP3   OH269169   2.765   3.469   4.483  1.1769 -0.2810 -0.3620
15893TIP3    H169170   2.722   3.388   4.512  0.9158 -0.4369 -1.1770
15893TIP3    H269171   2.695   3.523   4.447  1.2512  0.5872  0.7445
15894TIP3   OH269172   4.401   2.711  15.028 -0.0596  0.2665 -0.7850
15894TIP3    H169173   4.309   2.691  15.046 -0.1801  2.4350  1.5412
15894TIP3    H269174   4.450   2.664  15.096  0.2757  1.3758 -0.2304
15895TIP3   OH269175   6.665   5.880   0.982  0.1636 -0.4095  0.0724
15895TIP3    H169176   6.654   5.836   1.067 -0.7518  2.3490  1.4870
15895TIP3    H269177   6.602   5.836   0.925  0.6199 -2.1583  0.8418
15896TIP3   OH269178   0.279   2.640  13.343 -0.7824 -0.4236  0.0933
15896TIP3    H169179   0.331   2.721  13.349 -0.6410 -0.6434  2.7101
15896TIP3    H269180   0.188   2.669  13.348 -0.8655 -0.2688 -1.6563
15897TIP3   OH269181   5.514   1.441  13.566 -0.5304 -0.5638  0.3325
15897TIP3    H169182   5.499   1.347  13.578  0.1631 -0.8467 -0.8858
15897TIP3    H269183   5.527   1.452  13.472  0.6182  0.5735  0.5970
15898TIP3   OH269184   4.483   1.980   0.428 -0.3365 -0.0773 -0.4612
15898TIP3    H169185   4.438   1.904   0.391 -1.1750 -0.7478  1.7321
15898TIP3    H269186   4.414   2.046   0.437  0.1059  0.4859 -1.1381
15899TIP3   OH269187   4.300   1.469  17.149 -0.0311 -0.2057  0.2557
15899TIP3    H169188   4.250   1.550  17.150 -0.4027 -0.4315  0.4160
15899TIP3    H269189   4.305   1.444  17.057 -2.8503 -1.7571  0.3867
15900TIP3   OH269190   0.918   5.801   4.213 -0.1362 -0.4065  0.0582
15900TIP3    H169191   0.932   5.892   4.241  0.1348 -0.4088 -0.0673
15900TIP3    H269192   0.832   5.802   4.170  0.9006  0.3161 -2.1340
15901TIP3   OH269193   3.151   1.871   4.331  0.4593  0.3100 -0.1733
15901TIP3    H169194   3.197   1.935   4.385  0.1701  0.9417 -0.6573
15901TIP3    H269195   3.213   1.849   4.261 -0.7924  3.1829 -2.4049
15902TIP3   OH269196   0.907   4.898   4.068 -0.6241  0.0761 -0.2215
15902TIP3    H169197   0.890   4.850   4.149  0.6585 -0.7614 -0.4204
15902TIP3    H269198   1.002   4.908   4.065 -0.6642  0.2547 -1.5368
15903TIP3   OH269199   6.546   2.866  13.009  0.4820  0.1302 -0.1566
15903TIP3    H169200   6.546   2.961  13.023 -1.5601  0.1594 -0.0884
15903TIP3    H269201   6.549   2.829  13.097  0.5060  0.1437 -0.1516
15904TIP3   OH269202   0.521   3.292   0.322 -0.2981  0.2593 -0.0520
15904TIP3    H169203   0.476   3.314   0.404 -0.2610 -1.4788  0.4788
15904TIP3    H269204   0.452   3.294   0.256 -0.9457 -1.0961  0.5339
15905TIP3   OH269205   1.078   3.736  14.822  0.7256  0.5361  0.2537
15905TIP3    H169206   1.090   3.829  14.841 -1.2788  0.6855  1.0214
15905TIP3    H269207   1.037   3.700  14.901  1.5179 -1.0376  0.0046
15906TIP3   OH269208   3.686   2.057  15.667  0.2213 -0.3884 -0.0397
15906TIP3    H169209   3.620   1.991  15.646 -0.0795 -0.1820  0.2466
15906TIP3    H269210   3.735   2.068  15.586 -1.4387  0.9857 -0.9051
15907TIP3   OH269211   5.282   0.374  16.626 -0.3601 -0.8994 -0.3966
15907TIP3    H169212   5.248   0.338  16.544 -0.2630  0.3731 -1.0165
15907TIP3    H269213   5.340   0.306  16.659 -1.6165 -2.1021 -0.5527
15908TIP3   OH269214   3.906   0.008   5.725 -0.3002 -0.1289  1.0700
15908TIP3    H169215   3.921  -0.084   5.705 -1.0196 -0.3704  1.5884
15908TIP3    H269216   3.988   0.037   5.767 -0.2191 -0.6441  1.2764
15909TIP3   OH269217   1.947   1.854  14.159  0.2033 -0.0766  0.0019
15909TIP3    H169218   1.925   1.798  14.085 -0.6824 -0.0470  0.2373
15909TIP3    H269219   2.033   1.889  14.138 -0.3391  0.4906 -1.3463
15910TIP3   OH269220   5.437   4.194   2.562  0.8190 -0.5384 -0.1236
15910TIP3    H169221   5.420   4.178   2.655 -0.8289  0.4789 -0.1977
15910TIP3    H269222   5.377   4.135   2.517  0.0675  0.4715 -0.4825
15911TIP3   OH269223   6.607   1.598   1.468 -0.0619 -0.0837  0.1047
15911TIP3    H169224   6.619   1.534   1.397  0.0580 -0.2598  0.2827
15911TIP3    H269225   6.695   1.616   1.500 -0.0891  0.2412 -0.0054
15912TIP3   OH269226   1.682   1.165  17.168  0.5246  0.4415  0.2916
15912TIP3    H169227   1.649   1.239  17.219  0.3310  0.2034  0.5134
15912TIP3    H269228   1.731   1.205  17.097  2.1892  0.7767  1.5628
15913TIP3   OH269229   1.085   4.965  13.138  0.4412  0.0376 -0.2202
15913TIP3    H169230   1.152   4.936  13.076  1.0182  1.1312 -0.1458
15913TIP3    H269231   1.114   5.053  13.164  0.1565 -0.3402  1.5003
15914TIP3   OH269232   4.435   1.216  15.325 -0.0842  0.1496 -0.0188
15914TIP3    H169233   4.473   1.162  15.255  0.4212  2.6350 -1.7690
15914TIP3    H269234   4.343   1.189  15.328 -0.5690  1.0892 -2.8867
15915TIP3   OH269235   3.763   1.071   0.513  0.6169  0.4851 -0.3669
15915TIP3    H169236   3.690   1.134   0.516  0.6480  0.5380 -0.6836
15915TIP3    H269237   3.728   0.995   0.467  0.3759 -0.0067  0.5956
15916TIP3   OH269238   2.286   4.740  15.992 -0.1610 -0.0423  0.1796
15916TIP3    H169239   2.294   4.656  15.947 -0.8061  0.3287 -0.6406
15916TIP3    H269240   2.374   4.757  16.026  0.3019 -0.4144 -0.7962
15917TIP3   OH269241   6.737   3.305   3.501  0.7454  0.3900 -0.1799
15917TIP3    H169242   6.707   3.296   3.411  0.0251  0.0613  0.0846
15917TIP3    H269243   6.658   3.296   3.554  1.1598  0.5731  0.4866
15918TIP3   OH269244   6.727   4.100   2.173 -0.0543  0.3458  0.2133
15918TIP3    H169245   6.745   4.146   2.091  0.1347  0.0279  0.0792
15918TIP3    H269246   6.759   4.160   2.241  0.3074  0.3558  0.0336
15919TIP3   OH269247   3.294   3.169  13.420 -0.6270  0.5408 -0.2159
15919TIP3    H169248   3.307   3.096  13.481  2.0445 -0.5601 -1.9162
15919TIP3    H269249   3.220   3.142  13.365 -1.8088  0.6932  1.2305
15920TIP3   OH269250   5.050   3.410  11.567  0.9244 -0.2199 -0.0096
15920TIP3    H169251   5.078   3.436  11.479 -0.2322  1.3419  0.0493
15920TIP3    H269252   5.129   3.419  11.621  0.9266  1.8010 -0.2991
15921TIP3   OH269253   3.123   4.088   3.874  0.3834 -0.2469 -0.3202
15921TIP3    H169254   3.031   4.074   3.851  0.3381  0.2252 -0.4292
15921TIP3    H269255   3.132   4.183   3.883  0.9449 -0.2565 -0.6804
15922TIP3   OH269256   0.955   4.750  16.095  1.1143 -0.4318  0.4671
15922TIP3    H169257   0.985   4.741  16.005  0.4020  1.3879  0.0158
15922TIP3    H269258   0.883   4.812  16.091 -0.2220 -1.7544  2.0500
15923TIP3   OH269259   1.683   5.526  11.345 -0.4893 -0.3477 -0.4320
15923TIP3    H169260   1.764   5.559  11.305 -1.0654  0.3291 -1.0685
15923TIP3    H269261   1.619   5.526  11.274 -1.2621 -0.1246  0.2436
15924TIP3   OH269262   1.628   6.047   3.843 -0.0981  0.3424 -0.4090
15924TIP3    H169263   1.566   6.064   3.772 -1.2396  1.9131  0.8762
15924TIP3    H269264   1.575   6.005   3.911  0.0675  2.1078  0.8871
15925TIP3   OH269265   1.804   4.068  15.741 -0.1842  0.0809  0.5293
15925TIP3    H169266   1.864   4.141  15.729 -0.1448  0.4102  2.4297
15925TIP3    H269267   1.758   4.061  15.658  1.7432  0.4756 -0.6332
15926TIP3   OH269268   5.387   5.796  14.072 -0.1944 -0.8069 -0.3827
15926TIP3    H169269   5.482   5.790  14.065 -0.0799 -0.7568  0.9760
15926TIP3    H269270   5.358   5.825  13.985  0.9339 -1.7378 -1.0982
15927TIP3   OH269271   5.322   0.868   3.408  0.0072 -0.1167 -0.2298
15927TIP3    H169272   5.411   0.832   3.412 -0.2870 -0.8333  0.2433
15927TIP3    H269273   5.283   0.828   3.330  0.1641  0.3535 -0.5497
15928TIP3   OH269274   3.628   3.246  15.346 -0.0342  0.2384 -0.0066
15928TIP3    H169275   3.617   3.304  15.422 -0.2814 -0.7652  0.7405
15928TIP3    H269276   3.723   3.237  15.337  0.0593 -1.9875  2.0830
15929TIP3   OH269277   1.788   4.272  14.132  0.3024 -0.3200  0.0594
15929TIP3    H169278   1.861   4.247  14.190  0.3477  0.8045  0.5222
15929TIP3    H269279   1.828   4.278  14.045  0.8418  0.5054  0.3441
15930TIP3   OH269280   5.267   5.391  13.173 -0.6584  0.0816  0.6893
15930TIP3    H169281   5.293   5.474  13.134  0.1040 -1.2691 -1.8836
15930TIP3    H269282   5.343   5.364  13.225  0.4973 -0.5499 -1.2222
15931TIP3   OH269283   6.101   1.180   1.955  0.1621  0.1905 -0.5626
15931TIP3    H169284   6.140   1.200   2.040  0.3355  2.1856 -1.0694
15931TIP3    H269285   6.037   1.111   1.973  0.2168  0.5662  1.1823
15932TIP3   OH269286   1.263   5.867  13.782 -0.2512 -0.5497  0.4993
15932TIP3    H169287   1.226   5.795  13.732 -0.2522  1.2333 -2.3153
15932TIP3    H269288   1.353   5.874  13.751 -0.7036  1.5795 -0.5313
15933TIP3   OH269289   4.046   1.723   1.672  0.1033 -0.0750  0.2124
15933TIP3    H169290   4.116   1.786   1.689  2.7930 -2.2980 -1.8170
15933TIP3    H269291   4.018   1.741   1.582 -1.3768  0.1749  0.6822
15934TIP3   OH269292   5.061   5.361  11.511 -0.5625 -0.3951  0.0475
15934TIP3    H169293   5.036   5.441  11.465 -0.7782 -1.5075 -1.8762
15934TIP3    H269294   5.155   5.352  11.493 -0.2824 -0.0010  1.2244
15935TIP3   OH269295   3.674   2.878  11.345  0.0945 -0.2532  0.2679
15935TIP3    H169296   3.583   2.907  11.343  0.3834  0.6608  0.0147
15935TIP3    H269297   3.683   2.821  11.269 -0.1075  0.1613 -0.0711
15936TIP3   OH269298   4.814   3.197  17.218 -0.6021  0.1670 -0.1860
15936TIP3    H169299   4.779   3.258  17.154 -1.1886  1.2235  1.0994
15936TIP3    H269300   4.739   3.143  17.243 -0.3746 -0.2419 -0.3717
15937TIP3   OH269301   6.206   1.567  15.746  0.1143  0.3515  0.6390
15937TIP3    H169302   6.216   1.479  15.709 -0.0003  0.7369 -0.3260
15937TIP3    H269303   6.112   1.581  15.751  0.0428 -0.4382  2.9363
15938TIP3   OH269304   0.595   4.576   4.349  0.0702  0.3252 -0.1180
15938TIP3    H169305   0.575   4.505   4.288  2.4575  1.0065 -1.8928
15938TIP3    H269306   0.538   4.561   4.424 -0.4970 -2.6486 -1.0014
15939TIP3   OH269307   5.783   3.693  12.194 -0.0551 -0.2603 -0.1670
15939TIP3    H169308   5.731   3.771  12.214  0.1994 -0.2560  0.4830
15939TIP3    H269309   5.833   3.717  12.116 -0.1618  0.1408 -0.1152
15940TIP3   OH269310   5.048   1.343   1.228  0.1852  0.4610  0.4611
15940TIP3    H169311   5.107   1.320   1.300  0.0794  0.2416  0.4806
15940TIP3    H269312   4.961   1.344   1.268 -0.0420 -1.0111  0.0638
15941TIP3   OH269313   2.888   0.438  14.492 -0.6506 -0.0662  0.0053
15941TIP3    H169314   2.890   0.361  14.548 -0.8255  0.8143  1.2822
15941TIP3    H269315   2.805   0.481  14.513 -0.4151  0.6285 -0.4318
15942TIP3   OH269316   4.833   5.641   3.402 -0.2227 -0.2654 -0.4476
15942TIP3    H169317   4.775   5.637   3.325  0.2678 -2.5752 -0.7513
15942TIP3    H269318   4.919   5.664   3.366 -0.2617 -0.0232 -0.3931
15943TIP3   OH269319   3.243   6.398  15.641 -0.0698 -0.1144  0.4287
15943TIP3    H169320   3.252   6.343  15.563 -0.5022 -0.3060  0.5120
15943TIP3    H269321   3.327   6.444  15.648  0.6523 -1.4407  0.8782
15944TIP3   OH269322   5.634   2.117  15.484 -0.0576  0.1482  0.1815
15944TIP3    H169323   5.657   2.210  15.491  0.1006  0.3559 -2.1670
15944TIP3    H269324   5.598   2.108  15.396  0.5509 -2.1511  0.0966
15945TIP3   OH269325   0.007   0.575  16.948 -0.2182 -0.8463 -0.0158
15945TIP3    H169326   0.087   0.590  16.899  0.3271 -1.7257  0.5688
15945TIP3    H269327  -0.054   0.537  16.884  0.0350 -0.7368 -0.3218
15946TIP3   OH269328   6.817   1.157  11.492  0.6209 -0.4323  0.0063
15946TIP3    H169329   6.853   1.101  11.561  1.7953  1.6049  1.1269
15946TIP3    H269330   6.883   1.157  11.424  2.1479  1.9954  1.3609
15947TIP3   OH269331   0.653   5.704  15.823 -0.1844 -0.4635 -0.0516
15947TIP3    H169332   0.581   5.685  15.882 -0.3472  2.0967  0.7194
15947TIP3    H269333   0.612   5.746  15.747  0.3906  0.6053  0.1964
15948TIP3   OH269334   5.316   1.074  13.197  0.0544 -0.1797 -0.2363
15948TIP3    H169335   5.354   1.124  13.125  0.0968  1.1156  0.6290
15948TIP3    H269336   5.379   1.085  13.269 -1.6189  1.6185  1.0759
15949TIP3   OH269337   1.458   4.941  13.143  0.5423  0.0166 -0.2261
15949TIP3    H169338   1.537   4.995  13.137  1.5835 -1.5318 -1.1644
15949TIP3    H269339   1.399   4.978  13.078 -0.1970  2.1619  1.5410
15950TIP3   OH269340   2.484   6.750  12.201  0.3386 -0.3068 -0.1502
15950TIP3    H169341   2.570   6.767  12.240  0.3731 -1.3660  0.2746
15950TIP3    H269342   2.477   6.654  12.200 -0.0927 -0.2943 -1.8131
15951TIP3   OH269343   3.120   1.326  13.843 -0.2117 -0.5510  0.3076
15951TIP3    H169344   3.164   1.379  13.910  3.1122 -2.1338 -0.4142
15951TIP3    H269345   3.080   1.254  13.892  0.9210 -0.9019  0.7358
15952TIP3   OH269346   4.513   4.726  15.197 -0.5206  0.2422  0.1116
15952TIP3    H169347   4.474   4.717  15.283 -1.3075  0.6507 -0.1915
15952TIP3    H269348   4.474   4.655  15.145  1.0686 -0.9556  0.4610
15953TIP3   OH269349   6.350   2.943  16.539 -0.0246  0.2467 -0.0132
15953TIP3    H169350   6.326   3.018  16.593  0.6407 -0.5733  1.4782
15953TIP3    H269351   6.409   2.892  16.594  0.8522 -0.5301 -1.6043
15954TIP3   OH269352   2.455   1.647  16.842 -0.5460  0.5468 -0.0938
15954TIP3    H169353   2.471   1.692  16.925  0.8987  0.0509 -0.0641
15954TIP3    H269354   2.430   1.717  16.781  0.8471  1.2972  0.1530
15955TIP3   OH269355   3.665   3.485   0.686  0.0448 -0.1204  1.1242
15955TIP3    H169356   3.578   3.519   0.706 -0.9423 -0.9751 -1.3676
15955TIP3    H269357   3.685   3.518   0.598  0.7716 -2.5668  0.2774
15956TIP3   OH269358   0.493   2.009  13.956  0.0261 -0.9411 -0.0945
15956TIP3    H169359   0.500   1.992  14.050 -1.5535 -2.8401 -0.2353
15956TIP3    H269360   0.399   2.021  13.941  0.3446  0.2041 -1.3146
15957TIP3   OH269361   5.787   3.649   0.608  0.2760 -0.2014  0.1928
15957TIP3    H169362   5.826   3.602   0.682  0.1615 -2.5687 -1.1357
15957TIP3    H269363   5.857   3.706   0.576  1.1330 -0.9664  0.6514
15958TIP3   OH269364   3.299   5.893   2.672  0.2070  0.0346 -0.1553
15958TIP3    H169365   3.264   5.979   2.648  2.6965  0.6585 -1.9832
15958TIP3    H269366   3.357   5.911   2.746  0.3078 -0.1673 -0.1860
15959TIP3   OH269367   5.053   2.032  11.309  0.3486  0.3458 -0.0783
15959TIP3    H169368   5.044   2.110  11.254 -1.5061 -0.2379 -0.6788
15959TIP3    H269369   5.086   1.964  11.249 -2.2722 -0.4625 -0.7612
15960TIP3   OH269370   5.002   3.011  15.536 -0.2170 -0.3083  0.0687
15960TIP3    H169371   4.973   3.068  15.606  1.1795  1.3307 -0.6077
15960TIP3    H269372   5.071   2.957  15.575 -0.1368 -0.1044  0.2068
15961TIP3   OH269373   5.845   2.297  12.589 -0.2016 -0.0685 -0.1295
15961TIP3    H169374   5.837   2.229  12.655  0.8805  2.2167  2.5480
15961TIP3    H269375   5.910   2.263  12.527  0.7604 -1.2384  1.4533
15962TIP3   OH269376   0.182   0.745   3.109 -0.6010 -0.4190 -0.4629
15962TIP3    H169377   0.169   0.691   3.032  0.2198 -0.3848 -0.6342
15962TIP3    H269378   0.219   0.827   3.076 -1.9187  0.3028 -0.2184
15963TIP3   OH269379   6.743   2.159   5.797 -0.1179  0.0428 -0.5076
15963TIP3    H169380   6.767   2.095   5.730 -1.4729 -0.8945 -0.1580
15963TIP3    H269381   6.766   2.117   5.880 -0.1965  0.3932 -0.3053
15964TIP3   OH269382   4.380   3.419   2.355  0.2598  0.3468  0.2268
15964TIP3    H169383   4.364   3.433   2.449  1.2535 -2.3168  0.8913
15964TIP3    H269384   4.442   3.345   2.352  0.0945  0.2162 -2.5490
15965TIP3   OH269385   0.862   0.194  13.558  0.1123  0.0151  0.1303
15965TIP3    H169386   0.904   0.173  13.642  2.3754  0.3515 -0.8323
15965TIP3    H269387   0.786   0.137  13.554  0.7063 -0.9784  1.8172
15966TIP3   OH269388   4.735   4.731  11.819  0.3631  0.1074 -0.5503
15966TIP3    H169389   4.690   4.806  11.856  1.5677  0.2871  0.6358
15966TIP3    H269390   4.771   4.762  11.736  2.2678  1.4075  0.6809
15967TIP3   OH269391   4.984   4.348  11.948  0.6507  0.1644 -1.1226
15967TIP3    H169392   5.080   4.355  11.949  0.6594  1.0300  2.2086
15967TIP3    H269393   4.954   4.438  11.960 -0.4056 -0.4565  1.4961
15968TIP3   OH269394   2.029   6.343  10.724  0.1369  0.2329  0.0838
15968TIP3    H169395   2.117   6.316  10.699 -0.0439 -1.1566  0.8664
15968TIP3    H269396   1.978   6.262  10.725 -0.7557  0.7802  1.2337
15969TIP3   OH269397   4.132   3.181  10.468 -0.5524 -0.4208  0.9015
15969TIP3    H169398   4.040   3.187  10.443  0.2407  1.2355 -2.1444
15969TIP3    H269399   4.161   3.097  10.434 -0.5034 -0.0153 -0.1210
15970TIP3   OH269400   0.850   6.230  17.038 -0.2805  0.0820 -0.2483
15970TIP3    H169401   0.762   6.237  17.001 -0.7511 -1.5911  0.4628
15970TIP3    H269402   0.841   6.261  17.128 -0.3629 -0.9699  0.1133
15971TIP3   OH269403   0.963   1.016   6.543  0.0413 -0.1574  0.5615
15971TIP3    H169404   1.043   1.005   6.491 -0.1940 -1.9554  0.5089
15971TIP3    H269405   0.994   1.030   6.632  0.4153  0.4340  0.3446
15972TIP3   OH269406   3.860   5.604  11.416 -0.0879  0.2094 -0.6739
15972TIP3    H169407   3.848   5.615  11.510  1.0273  1.2500 -0.6218
15972TIP3    H269408   3.851   5.693  11.380 -2.0323 -0.3661 -1.7707
15973TIP3   OH269409   0.577   3.805   1.518  0.1291  0.1800 -0.0118
15973TIP3    H169410   0.663   3.846   1.507 -0.2725  0.9519 -0.3543
15973TIP3    H269411   0.529   3.829   1.438 -0.3689 -0.3258  0.1343
15974TIP3   OH269412   2.167   3.459   1.541  0.1925  0.0736 -0.7550
15974TIP3    H169413   2.203   3.372   1.551  0.3482  0.1351 -0.7782
15974TIP3    H269414   2.206   3.492   1.460  1.2707  0.7255  0.0053
15975TIP3   OH269415   2.788   2.413  14.891  0.5977  0.1822 -0.6191
15975TIP3    H169416   2.738   2.336  14.865  1.2251 -0.3844 -0.1778
15975TIP3    H269417   2.813   2.455  14.809 -0.2301  0.2303 -0.8467
15976TIP3   OH269418   3.401   5.118  11.493  0.3624  0.3613  0.5402
15976TIP3    H169419   3.310   5.103  11.469  0.9247  0.0210 -1.5914
15976TIP3    H269420   3.448   5.042  11.459  1.4130  0.3504  1.9184
15977TIP3   OH269421   5.800   2.123  15.907  0.3091 -0.2937  0.5339
15977TIP3    H169422   5.816   2.195  15.968  0.6433 -0.7434  0.9855
15977TIP3    H269423   5.809   2.162  15.820  2.0003 -0.1163  0.7648
15978TIP3   OH269424   2.964   4.720   4.174  0.2253  0.3902  0.6743
15978TIP3    H169425   3.015   4.747   4.251  0.1773  3.8499 -0.3668
15978TIP3    H269426   2.880   4.763   4.185 -0.0524  0.2981 -0.9609
15979TIP3   OH269427   2.144   5.761  13.191 -0.4068  0.2488  0.3436
15979TIP3    H169428   2.111   5.731  13.106  0.5855  1.4352 -0.5044
15979TIP3    H269429   2.227   5.714  13.202  1.1625  2.4702 -0.9972
15980TIP3   OH269430   3.266   5.953  16.595 -0.4908 -0.3859  0.5113
15980TIP3    H169431   3.271   5.917  16.684 -1.8065 -0.0726  0.7349
15980TIP3    H269432   3.349   5.999  16.583 -1.3755  2.0575  2.7106
15981TIP3   OH269433   3.346   5.971   5.936 -0.4998  0.8602  0.1360
15981TIP3    H169434   3.348   5.962   6.031 -0.0148  0.4985  0.1003
15981TIP3    H269435   3.377   6.060   5.919 -0.8218  1.0080  0.3259
15982TIP3   OH269436   3.981   3.281  12.009 -0.2014 -0.3928 -0.2635
15982TIP3    H169437   3.938   3.197  11.990  0.8411 -0.5396 -2.1836
15982TIP3    H269438   3.936   3.344  11.954  0.0942 -0.0004 -0.0562
15983TIP3   OH269439   4.430   0.633   1.381 -0.3294 -0.0044  0.2141
15983TIP3    H169440   4.406   0.543   1.401 -0.8147  0.1096  0.1534
15983TIP3    H269441   4.347   0.682   1.384 -0.1314  0.3628 -0.1479
15984TIP3   OH269442   5.269   1.841   3.972 -0.0009  0.0563 -0.0984
15984TIP3    H169443   5.270   1.762   4.027  0.9917 -0.2929 -0.6062
15984TIP3    H269444   5.290   1.912   4.033  0.2592 -0.2203  0.1413
15985TIP3   OH269445   6.397   5.869   2.652  0.7227 -0.1618  0.3943
15985TIP3    H169446   6.384   5.811   2.727  3.0858  0.8872  1.7117
15985TIP3    H269447   6.485   5.847   2.619  0.4955  0.7017 -0.8737
15986TIP3   OH269448   3.497   5.510  12.134 -0.6949 -0.2759  0.6681
15986TIP3    H169449   3.443   5.577  12.177  0.4631  0.4345  1.0753
15986TIP3    H269450   3.561   5.560  12.083 -0.5655 -1.0976  0.0088
15987TIP3   OH269451   3.426   1.430   6.102 -0.2891  0.4169  0.2137
15987TIP3    H169452   3.362   1.361   6.118  0.0134  0.6823  3.0229
15987TIP3    H269453   3.498   1.385   6.057  0.3772 -1.4944  2.8882
15988TIP3   OH269454   2.806   1.764  11.562  0.4684 -0.1606 -0.0864
15988TIP3    H169455   2.895   1.789  11.539  0.6789 -0.2143  0.6366
15988TIP3    H269456   2.751   1.813  11.502  0.9707  0.2094 -0.2518
15989TIP3   OH269457   1.578   3.167  16.419 -0.5998  0.6100 -0.2018
15989TIP3    H169458   1.605   3.104  16.486 -0.9522 -1.0692 -1.5834
15989TIP3    H269459   1.507   3.216  16.461  0.2011  0.6606  1.1774
15990TIP3   OH269460   0.979   6.310   3.748  0.5897 -0.3328 -0.6730
15990TIP3    H169461   1.060   6.262   3.765  0.4765 -0.0664  0.7366
15990TIP3    H269462   0.944   6.271   3.668  1.2353 -1.6074 -0.3558
15991TIP3   OH269463   1.905   0.607   4.917 -0.3068  0.3096 -0.0679
15991TIP3    H169464   1.895   0.520   4.878 -0.8151 -0.3388  1.4069
15991TIP3    H269465   1.843   0.662   4.869 -0.0336 -0.1506 -0.9681
15992TIP3   OH269466   0.344   0.280   4.014  0.1350  0.3374  0.4667
15992TIP3    H169467   0.418   0.326   3.975  0.0297 -1.5868 -2.3178
15992TIP3    H269468   0.273   0.344   4.011  0.2222  0.4383 -2.4692
15993TIP3   OH269469   5.386   2.891  14.053 -0.0619  0.2856  0.3162
15993TIP3    H169470   5.463   2.901  14.110 -0.3323  0.5839  0.6266
15993TIP3    H269471   5.414   2.827  13.987 -0.1898 -1.1113  1.5659
15994TIP3   OH269472   6.329   6.594   0.063 -0.4536 -0.3204 -0.4680
15994TIP3    H169473   6.250   6.627   0.019 -1.6109  0.7446  2.1799
15994TIP3    H269474   6.391   6.667   0.057 -0.8130  0.0393  0.1362
15995TIP3   OH269475   6.486   0.494   1.005  0.2371 -0.4847 -0.5335
15995TIP3    H169476   6.436   0.492   0.923 -0.1631 -0.2637 -0.3011
15995TIP3    H269477   6.471   0.582   1.039  0.6451 -0.4773 -0.3673
15996TIP3   OH269478   1.511   6.528  16.977 -0.1202  0.2471 -0.2343
15996TIP3    H169479   1.499   6.504  16.885 -0.3384  1.3336 -0.4985
15996TIP3    H269480   1.454   6.603  16.990 -0.1401  0.0636  0.8154
15997TIP3   OH269481   5.380   6.209   2.838 -0.6077 -0.1574 -0.6788
15997TIP3    H169482   5.388   6.187   2.745 -0.8947 -0.5997 -0.6010
15997TIP3    H269483   5.345   6.130   2.879 -0.5707  0.0644 -0.2071
15998TIP3   OH269484   3.450   5.930   1.261 -0.1929 -0.5699 -0.1022
15998TIP3    H169485   3.465   5.857   1.202  0.7516  0.4421 -1.1671
15998TIP3    H269486   3.373   5.975   1.225 -0.4284 -0.7024  0.2258
15999TIP3   OH269487   3.754   4.694  12.441 -0.1037  0.1211 -0.4130
15999TIP3    H169488   3.732   4.610  12.481  1.2809  0.4753  1.2590
15999TIP3    H269489   3.769   4.752  12.516  2.5358  0.8627 -1.4019
16000TIP3   OH269490   1.793   3.048   3.565 -0.3704 -0.1340 -0.0406
16000TIP3    H169491   1.830   3.131   3.597 -0.3081 -0.1634 -0.0375
16000TIP3    H269492   1.710   3.073   3.525 -1.2611 -0.3045  1.6263
16001TIP3   OH269493   6.360   5.807   6.413 -0.1391  0.5153 -0.0712
16001TIP3    H169494   6.455   5.808   6.398  0.1577  2.5764  1.4672
16001TIP3    H269495   6.337   5.714   6.411  2.1780 -0.1676  0.9213
16002TIP3   OH269496   5.182   1.976  13.667 -0.2566  0.3770  0.2544
16002TIP3    H169497   5.191   1.992  13.573  1.1248  0.4983  0.3887
16002TIP3    H269498   5.261   2.013  13.706 -0.0900 -1.0085  1.3054
16003TIP3   OH269499   1.373   4.585  16.139 -0.0650  0.4732  0.1653
16003TIP3    H169500   1.301   4.536  16.180 -1.1439  0.3374 -1.7557
16003TIP3    H269501   1.334   4.669  16.116  0.8304  0.9646  0.3850
16004TIP3   OH269502   1.356   0.203   1.658  0.0979 -0.0630 -0.0345
16004TIP3    H169503   1.398   0.120   1.635 -0.5747 -0.6151  0.6827
16004TIP3    H269504   1.299   0.222   1.584 -0.6793 -0.8847  0.3443
16005TIP3   OH269505   6.241   6.480  10.258 -0.3559 -0.1386  0.1831
16005TIP3    H169506   6.312   6.483  10.322  0.0582 -3.9769  0.1112
16005TIP3    H269507   6.284   6.481  10.173 -0.5305 -0.4753  0.0892
16006TIP3   OH269508   1.145   6.090  12.142  0.9135 -0.7591 -0.0822
16006TIP3    H169509   1.103   6.116  12.224 -1.1759 -0.2575 -1.2381
16006TIP3    H269510   1.120   5.998  12.130 -0.6572 -0.2348 -1.1763
16007TIP3   OH269511   5.507   4.585   1.896 -0.6225  0.4049  0.0666
16007TIP3    H169512   5.491   4.516   1.960 -0.4176  1.9583  1.9184
16007TIP3    H269513   5.502   4.666   1.948  0.6609  1.6796 -1.6948
16008TIP3   OH269514   6.591   5.896  15.603  0.0409  0.2069 -0.3898
16008TIP3    H169515   6.575   5.931  15.515 -0.4131  1.4049  0.1349
16008TIP3    H269516   6.668   5.944  15.634  0.6882 -0.7949 -0.4310
16009TIP3   OH269517   6.435   0.642  13.073  0.5710  0.3494 -0.2618
16009TIP3    H169518   6.414   0.730  13.041  2.1599  0.8184 -0.0920
16009TIP3    H269519   6.454   0.655  13.166  0.2840 -0.2634 -0.1201
16010TIP3   OH269520   1.621   2.836   2.576 -0.1668  0.2786  0.2273
16010TIP3    H169521   1.693   2.785   2.540  0.7274  3.0036 -2.2033
16010TIP3    H269522   1.551   2.827   2.512 -0.8836  0.1648  1.0109
16011TIP3   OH269523   4.650   0.539   0.533  0.0612 -0.4416 -0.6816
16011TIP3    H169524   4.729   0.581   0.499  0.7634  0.0451  1.4571
16011TIP3    H269525   4.580   0.602   0.515  0.1324 -0.7798 -2.3834
16012TIP3   OH269526   2.529   3.625   2.487  0.4155 -0.2459  0.1025
16012TIP3    H169527   2.472   3.600   2.414 -1.6649  2.2019  0.7343
16012TIP3    H269528   2.606   3.569   2.477 -1.3492 -2.5889 -1.7810
16013TIP3   OH269529   6.429   2.512  16.989 -0.2202  0.1287  0.4657
16013TIP3    H169530   6.420   2.563  16.909  0.8730  1.2419  1.0209
16013TIP3    H269531   6.519   2.479  16.987 -0.8493 -1.7074  0.1900
16014TIP3   OH269532   1.178   1.957   3.727 -0.1836  0.6504 -0.1743
16014TIP3    H169533   1.210   1.977   3.639  0.3213  0.3628 -0.0621
16014TIP3    H269534   1.109   1.892   3.714 -0.9873  1.5369 -0.4488
16015TIP3   OH269535   4.252   2.561  16.429 -0.7078 -0.6822  0.0354
16015TIP3    H169536   4.317   2.520  16.371  0.0310  0.6097 -0.0955
16015TIP3    H269537   4.173   2.510  16.416 -0.6531 -0.2872 -2.3847
16016TIP3   OH269538   4.600   1.132   0.034 -0.1367  0.6275  0.0849
16016TIP3    H169539   4.633   1.120   0.123  1.3554  1.6715 -0.2921
16016TIP3    H269540   4.550   1.052   0.016  1.7707 -0.8144  0.8977
16017TIP3   OH269541   4.181   5.559  13.963  0.3751 -0.2915 -0.0437
16017TIP3    H169542   4.165   5.549  14.057  1.2102  1.3524  0.3162
16017TIP3    H269543   4.260   5.613  13.958 -1.3369  2.2914 -1.6500
16018TIP3   OH269544   0.331   5.085   2.369 -0.5302 -0.6686 -0.2901
16018TIP3    H169545   0.348   5.016   2.434  0.6288  0.3976  0.5882
16018TIP3    H269546   0.393   5.155   2.392  0.5681 -0.6018 -3.0998
16019TIP3   OH269547   0.165   4.708   0.686 -0.1483  0.7191 -0.2513
16019TIP3    H169548   0.147   4.615   0.668  3.4691  0.2227 -2.2926
16019TIP3    H269549   0.243   4.706   0.742 -0.6283  2.5568  0.5222
16020TIP3   OH269550   3.398   5.636  16.009  0.1733  0.2370 -0.6633
16020TIP3    H169551   3.342   5.712  15.991  1.3574  0.8887 -1.8385
16020TIP3    H269552   3.473   5.673  16.056 -0.2552 -0.5875  0.7141
16021TIP3   OH269553   4.648   1.381   5.118  0.0872 -0.0480  0.6821
16021TIP3    H169554   4.704   1.410   5.191 -0.3017  2.6636  0.0056
16021TIP3    H269555   4.586   1.453   5.106 -0.1355 -0.6077 -2.0233
16022TIP3   OH269556   3.449   1.333  13.995  0.3904 -0.4963  0.0653
16022TIP3    H169557   3.382   1.290  14.047  0.1798 -0.9647 -0.5808
16022TIP3    H269558   3.456   1.421  14.032 -1.0598 -0.2164 -0.2815
16023TIP3   OH269559   6.440   0.764  14.427  0.3124 -0.2087  0.3964
16023TIP3    H169560   6.535   0.771  14.433  0.1813  3.0895  0.1434
16023TIP3    H269561   6.413   0.739  14.516  1.3874 -1.7291  0.3355
16024TIP3   OH269562   6.780   0.134  10.567  0.5373 -0.0311 -0.0736
16024TIP3    H169563   6.828   0.051  10.573  1.7083  0.6618  0.4882
16024TIP3    H269564   6.814   0.176  10.488  0.8561  0.4581  0.3187
16025TIP3   OH269565   5.094   3.586   1.054 -0.1519 -0.2343 -0.2013
16025TIP3    H169566   5.058   3.543   1.132  0.7940  1.4428  1.2248
16025TIP3    H269567   5.189   3.580   1.065  0.0125 -0.8069 -1.7327
16026TIP3   OH269568   3.209   6.058  14.637 -0.0591  0.2850  0.0989
16026TIP3    H169569   3.264   6.101  14.572  1.4810 -0.2118  1.0168
16026TIP3    H269570   3.133   6.115  14.645  0.2858  0.9868 -1.2367
16027TIP3   OH269571   6.488   2.649  15.990 -0.4833  0.0418  0.2671
16027TIP3    H169572   6.450   2.678  16.073  0.3570  0.6307  0.4528
16027TIP3    H269573   6.434   2.574  15.964 -2.5349  1.5562 -0.0821
16028TIP3   OH269574   0.639   6.576  14.349  0.2407  0.2013  0.1978
16028TIP3    H169575   0.722   6.607  14.386 -0.0952  2.6287 -0.8835
16028TIP3    H269576   0.572   6.630  14.391 -0.4458  0.5837 -1.3147
16029TIP3   OH269577   1.685   3.658  14.768  0.3443  0.3394  0.4363
16029TIP3    H169578   1.622   3.663  14.695  0.9088  1.5083 -0.0095
16029TIP3    H269579   1.652   3.722  14.831  0.4318  0.0826  0.7407
16030TIP3   OH269580   0.196   6.161   2.461 -0.3168  0.4286  0.3640
16030TIP3    H169581   0.178   6.183   2.369  0.2106 -1.1651 -0.1528
16030TIP3    H269582   0.271   6.216   2.485  0.9091 -0.6458 -0.8511
16031TIP3   OH269583   2.783   3.393  13.307 -0.4870  0.0549 -0.2854
16031TIP3    H169584   2.833   3.412  13.228  0.1568 -0.9670 -0.1451
16031TIP3    H269585   2.711   3.337  13.277  0.6046 -1.5993  0.0187
16032TIP3   OH269586   3.130   5.329   4.833 -0.5594  0.2782  0.1977
16032TIP3    H169587   3.117   5.411   4.881 -0.4900 -1.2326  2.9960
16032TIP3    H269588   3.080   5.341   4.752 -2.4044  2.2369  1.5045
16033TIP3   OH269589   0.151   3.495  13.134 -0.1740 -1.2545 -0.4009
16033TIP3    H169590   0.205   3.570  13.160  0.4048 -2.0091  0.6598
16033TIP3    H269591   0.146   3.502  13.039  0.2462 -0.1283 -0.3646
16034TIP3   OH269592   5.091   6.380  11.760 -0.5698  0.2144 -0.5016
16034TIP3    H169593   5.028   6.331  11.814 -1.6181 -0.2650 -2.0801
16034TIP3    H269594   5.071   6.472  11.777 -2.1563  0.0863 -1.3858
16035TIP3   OH269595   5.903   3.492   2.171 -0.0028  0.3288  0.4920
16035TIP3    H169596   5.919   3.412   2.222 -0.2348 -0.5472 -0.7625
16035TIP3    H269597   5.987   3.537   2.170  0.6333 -0.8228 -0.3109
16036TIP3   OH269598   5.272   5.303   3.612  0.0181 -0.1108 -0.3752
16036TIP3    H169599   5.260   5.321   3.706  2.1054  0.5666 -0.1942
16036TIP3    H269600   5.268   5.207   3.606  0.1859 -0.1845  0.4671
16037TIP3   OH269601   4.934   0.342  15.251 -0.3719 -0.1313  0.3209
16037TIP3    H169602   4.968   0.285  15.182  0.8654  0.9677 -0.0396
16037TIP3    H269603   4.862   0.390  15.210  0.3003  0.4532 -0.2220
16038TIP3   OH269604   0.993   3.299   4.783  0.2895  0.6635 -0.0816
16038TIP3    H169605   0.973   3.388   4.755 -0.8175  0.6223  0.4958
16038TIP3    H269606   0.972   3.298   4.876 -3.6222 -1.1816 -0.7735
16039TIP3   OH269607   2.998   5.261  15.759 -0.1356  0.5285  0.0417
16039TIP3    H169608   2.950   5.207  15.822 -0.2318 -0.4015 -0.8026
16039TIP3    H269609   2.944   5.339  15.748 -0.8722  0.0178 -0.0163
16040TIP3   OH269610   6.169   6.418   6.424  0.1527 -0.2931 -0.7339
16040TIP3    H169611   6.143   6.509   6.408 -0.9155 -0.4562 -0.0190
16040TIP3    H269612   6.087   6.371   6.433  0.7023 -1.1727 -0.1974
16041TIP3   OH269613   5.131   4.121  11.744  0.3170  0.2766  0.0519
16041TIP3    H169614   5.120   4.055  11.675 -2.8752 -0.0950  0.7750
16041TIP3    H269615   5.188   4.079  11.808  0.5537 -0.7041 -0.7702
16042TIP3   OH269616   0.504   1.885  15.347 -0.1276  0.0104  0.5511
16042TIP3    H169617   0.430   1.863  15.403 -0.8983  0.5388 -0.2362
16042TIP3    H269618   0.518   1.807  15.294 -1.3089  0.5128 -0.5582
16043TIP3   OH269619   0.916   0.020  16.542  0.0677  0.0217  0.6909
16043TIP3    H169620   0.893   0.060  16.626 -0.5322  0.0090  0.5316
16043TIP3    H269621   0.834   0.016  16.494  0.2550 -0.7398  0.4210
16044TIP3   OH269622   1.055   4.533   3.200 -0.0710 -0.1132  0.3602
16044TIP3    H169623   1.106   4.555   3.278 -0.5206 -0.5905  0.7987
16044TIP3    H269624   1.054   4.437   3.199  0.2234 -0.1079 -0.4275
16045TIP3   OH269625   3.100   2.988  13.833 -0.0479  0.2459  0.1579
16045TIP3    H169626   3.120   3.058  13.772 -1.2504  1.3089  0.9378
16045TIP3    H269627   3.122   3.023  13.920  2.5361 -1.5663  0.3612
16046TIP3   OH269628   0.359   4.303  10.690 -0.3942 -0.0331 -0.1059
16046TIP3    H169629   0.330   4.215  10.663 -0.5289 -0.4912  1.4440
16046TIP3    H269630   0.436   4.319  10.636  0.5973 -1.8114  0.6779
16047TIP3   OH269631   3.495   6.399   0.351 -0.0964  0.6936 -0.0300
16047TIP3    H169632   3.565   6.353   0.306  1.8646  1.3362  2.1246
16047TIP3    H269633   3.416   6.348   0.333  1.0522 -0.5453 -1.8682
16048TIP3   OH269634   1.134   0.875  17.057  0.2218 -0.0367  0.0518
16048TIP3    H169635   1.130   0.793  17.106 -1.7932 -0.0577 -0.0476
16048TIP3    H269636   1.150   0.849  16.966 -0.4415 -0.3316  0.0167
16049TIP3   OH269637   2.851   5.642   4.464 -0.0684  0.2029 -0.1886
16049TIP3    H169638   2.893   5.575   4.518  0.5521  0.0150 -0.9061
16049TIP3    H269639   2.895   5.637   4.380 -0.3664  1.1727 -0.4096
16050TIP3   OH269640   0.354   3.584   0.527  0.1494 -0.0810 -0.1439
16050TIP3    H169641   0.418   3.644   0.565  0.4186  0.7842 -1.8728
16050TIP3    H269642   0.298   3.639   0.473 -1.1252 -1.0533  0.1498
16051TIP3   OH269643   4.564   6.053  15.148 -0.2779  0.5385 -0.3768
16051TIP3    H169644   4.545   6.065  15.241 -0.9714 -3.0881  0.0989
16051TIP3    H269645   4.659   6.055  15.142 -0.1598 -0.6053  0.7138
16052TIP3   OH269646   0.305   1.625   0.876  0.2665  0.2987 -0.2531
16052TIP3    H169647   0.300   1.645   0.970  1.3756 -0.1499 -0.0805
16052TIP3    H269648   0.370   1.687   0.842 -0.8309  1.1154 -0.9339
16053TIP3   OH269649   4.204   4.741  13.774  0.5029  0.2089  0.1688
16053TIP3    H169650   4.210   4.711  13.684 -1.5766  0.2893 -0.0448
16053TIP3    H269651   4.246   4.826  13.774  0.8622  0.0392 -0.6326
16054TIP3   OH269652   5.588   6.126  11.736  0.6137  0.6831 -0.6416
16054TIP3    H169653   5.615   6.092  11.821 -0.5847  0.7935 -0.1896
16054TIP3    H269654   5.571   6.219  11.752 -1.0386  0.4132 -0.6042
16055TIP3   OH269655   0.178   4.921   4.500  0.5670 -0.3465 -0.2156
16055TIP3    H169656   0.102   4.888   4.549 -0.0746 -0.0348 -0.9698
16055TIP3    H269657   0.244   4.852   4.510 -0.2681 -1.2252 -0.6045
16056TIP3   OH269658   6.014   3.974  12.014 -0.2365 -0.0458 -0.2826
16056TIP3    H169659   6.059   4.056  11.994  2.6267 -0.9851  1.7343
16056TIP3    H269660   5.934   4.001  12.060  1.0352  1.6416  1.0651
16057TIP3   OH269661   4.929   3.002   4.236 -0.3584  0.2968  0.2908
16057TIP3    H169662   4.850   2.990   4.289 -0.5019 -1.2867 -0.2421
16057TIP3    H269663   4.985   3.059   4.289 -0.7554 -0.7365  1.9013
16058TIP3   OH269664   4.805   2.299  14.125 -0.3729 -0.7296  0.4152
16058TIP3    H169665   4.778   2.351  14.200 -0.1837  0.2647 -0.1975
16058TIP3    H269666   4.740   2.318  14.058  0.5678 -0.0462 -0.3312
16059TIP3   OH269667   4.767   0.229  17.138 -0.4795  0.0086 -0.3161
16059TIP3    H169668   4.715   0.204  17.062 -0.8198 -1.5714  0.3955
16059TIP3    H269669   4.719   0.194  17.213 -1.4739  3.6101  0.9559
16060TIP3   OH269670   3.405   2.638   4.846  0.2279 -0.3206  0.0370
16060TIP3    H169671   3.315   2.621   4.819 -0.0400  0.9509  0.0851
16060TIP3    H269672   3.458   2.578   4.793 -0.6230 -0.9098 -0.1617
16061TIP3   OH269673   5.919   6.101  15.642 -0.5103  0.1371  0.1728
16061TIP3    H169674   6.004   6.127  15.606 -1.6964  1.1670 -2.0003
16061TIP3    H269675   5.913   6.149  15.725  0.1161  1.7202 -0.6676
16062TIP3   OH269676   2.323   0.483   4.035  0.5968 -0.2118 -0.2401
16062TIP3    H169677   2.291   0.563   4.076  1.7460 -0.3010  0.8816
16062TIP3    H269678   2.281   0.412   4.083  1.3217 -0.3038  0.2744
16063TIP3   OH269679   1.201   5.609  16.226 -0.3707 -0.1782  0.1458
16063TIP3    H169680   1.108   5.616  16.247 -0.5118 -1.8750  0.1893
16063TIP3    H269681   1.245   5.619  16.311 -0.5159  0.3393  0.1659
16064TIP3   OH269682   2.222   3.450   0.888  0.3191  0.2626 -0.2565
16064TIP3    H169683   2.265   3.430   0.805 -1.9658 -1.9375 -1.0554
16064TIP3    H269684   2.293   3.454   0.952  1.8475 -1.9008 -1.6775
16065TIP3   OH269685   3.341   4.175  13.057  0.0293 -0.4321 -0.4486
16065TIP3    H169686   3.268   4.115  13.066 -0.1698  0.0953  2.0009
16065TIP3    H269687   3.326   4.218  12.972 -1.6345 -1.4242 -0.7015
16066TIP3   OH269688   6.035   3.581   4.343  0.4447 -0.0600  0.5471
16066TIP3    H169689   5.965   3.573   4.407 -1.3026 -0.6167 -1.3489
16066TIP3    H269690   6.044   3.676   4.330 -1.1120 -0.0239 -0.3882
16067TIP3   OH269691   2.081   5.394  13.168 -0.0726  0.1824 -0.0001
16067TIP3    H169692   2.130   5.440  13.100 -0.1619  0.8337  0.3638
16067TIP3    H269693   1.994   5.380  13.130  0.0307  0.0966 -0.2051
16068TIP3   OH269694   2.701   0.222   0.432 -0.0862  0.1385  0.2791
16068TIP3    H169695   2.751   0.233   0.351  1.3112 -1.3456  0.8666
16068TIP3    H269696   2.620   0.270   0.417  0.5981  0.8276 -1.5656
16069TIP3   OH269697   5.017   2.261   1.207 -0.0911 -0.5554  0.1356
16069TIP3    H169698   4.932   2.246   1.166  0.0920 -1.6401  0.1059
16069TIP3    H269699   5.005   2.341   1.258 -0.0424  1.3673 -2.6946
16070TIP3   OH269700   1.404   1.014   3.108 -0.4093  0.6846 -0.5192
16070TIP3    H169701   1.344   1.061   3.051 -0.0725  0.3334 -1.1868
16070TIP3    H269702   1.361   0.930   3.124 -0.6933  0.9435  0.0949
16071TIP3   OH269703   2.406   1.177   0.971 -0.1020  0.6297  0.1088
16071TIP3    H169704   2.450   1.204   1.052  0.4058 -0.7201  0.2986
16071TIP3    H269705   2.423   1.249   0.910  1.6556  0.5364  0.4337
16072TIP3   OH269706   4.549   1.595  11.718 -1.0075  1.0060 -0.1104
16072TIP3    H169707   4.602   1.641  11.784  0.1956  1.9959 -1.7005
16072TIP3    H269708   4.533   1.661  11.651 -3.1152  0.3102 -0.3414
16073TIP3   OH269709   6.416   3.346   0.188 -0.2862  0.1758  0.7339
16073TIP3    H169710   6.446   3.326   0.100 -0.6101  0.6691  0.5069
16073TIP3    H269711   6.479   3.303   0.246 -1.0844 -1.6992  0.2775
16074TIP3   OH269712   4.613   2.256   4.434  0.3466  0.0079 -0.2112
16074TIP3    H169713   4.657   2.247   4.519  1.6893 -3.2659 -1.0913
16074TIP3    H269714   4.541   2.194   4.438  0.7105 -0.5403 -1.5895
16075TIP3   OH269715   4.878   3.687  16.886 -0.4664 -0.3020  0.1332
16075TIP3    H169716   4.864   3.782  16.892 -0.1101 -0.3382  2.2665
16075TIP3    H269717   4.943   3.668  16.953 -0.9832 -2.1456  0.1580
16076TIP3   OH269718   0.780   4.423  16.566 -0.0723  0.4610  0.0795
16076TIP3    H169719   0.768   4.508  16.609  1.3548  0.8266 -0.2006
16076TIP3    H269720   0.829   4.444  16.486  0.6114 -0.6650  0.1886
16077TIP3   OH269721   1.894   1.575  14.895  0.1622 -0.6695 -0.7160
16077TIP3    H169722   1.864   1.485  14.896  1.0610 -0.9757  0.7759
16077TIP3    H269723   1.821   1.626  14.929  0.1446 -1.0078 -0.2449
16078TIP3   OH269724   5.512   6.434  16.838  0.3122  0.7316  0.2635
16078TIP3    H169725   5.461   6.393  16.768 -0.8303  0.9547  0.9541
16078TIP3    H269726   5.581   6.483  16.792  1.0254 -1.0091 -0.6136
16079TIP3   OH269727   0.927   4.261  12.567 -0.1114 -0.6269  0.2492
16079TIP3    H169728   0.925   4.170  12.536 -0.8408 -0.9827  1.3023
16079TIP3    H269729   0.843   4.274  12.611 -0.1389  0.6577 -0.1331
16080TIP3   OH269730   0.298   3.321  11.325  0.3070 -0.4434 -0.0004
16080TIP3    H169731   0.243   3.387  11.283  0.7862  0.2136  0.3835
16080TIP3    H269732   0.387   3.339  11.293  0.6754  0.0474  1.2307
16081TIP3   OH269733   6.344   4.155  16.511  0.1558 -0.0278  0.2741
16081TIP3    H169734   6.256   4.192  16.511  0.7741  1.6807 -1.8092
16081TIP3    H269735   6.398   4.220  16.556  0.6856 -0.0116 -0.3603
16082TIP3   OH269736   6.666   3.869  14.435 -0.3011 -0.0138 -0.0358
16082TIP3    H169737   6.575   3.839  14.436 -1.0205  2.0552  0.0865
16082TIP3    H269738   6.715   3.794  14.399 -1.4835 -2.4823  3.0627
16083TIP3   OH269739   0.815   0.533   2.948  0.5255  0.0786  0.0616
16083TIP3    H169740   0.882   0.481   2.992  0.3772 -0.4969 -0.3859
16083TIP3    H269741   0.841   0.624   2.964  0.8283 -0.1336  0.7808
16084TIP3   OH269742   1.589   1.101  10.859 -0.2658  0.2436 -0.3316
16084TIP3    H169743   1.540   1.035  10.809 -1.6750  0.4457  0.7117
16084TIP3    H269744   1.525   1.170  10.876  0.2928  0.4021  1.3053
16085TIP3   OH269745   5.788   2.620   1.094  0.0083  0.6309 -0.0170
16085TIP3    H169746   5.822   2.638   1.182 -1.1851  0.5265  0.4847
16085TIP3    H269747   5.755   2.530   1.099 -3.9537  1.9320  0.7811
16086TIP3   OH269748   4.129   1.454   1.222 -0.2366 -0.1511  0.1421
16086TIP3    H169749   4.216   1.419   1.239 -0.1850  0.6517  1.7039
16086TIP3    H269750   4.144   1.526   1.161  0.0153 -0.8992 -0.6904
16087TIP3   OH269751   2.950   1.801   5.779  0.2084 -0.0321 -0.0953
16087TIP3    H169752   2.863   1.822   5.814  0.5208 -0.1649  0.8039
16087TIP3    H269753   2.950   1.836   5.691 -0.0257  1.8463  0.6142
16088TIP3   OH269754   1.940   1.405   2.193  0.2285 -0.3245  0.5378
16088TIP3    H169755   2.029   1.393   2.225  0.8606  1.4284 -0.4363
16088TIP3    H269756   1.933   1.499   2.175 -1.3265 -0.6544 -0.8272
16089TIP3   OH269757   5.742   6.538   4.594  0.0507 -0.3444 -0.2957
16089TIP3    H169758   5.664   6.573   4.637  1.0105 -0.1031  1.3166
16089TIP3    H269759   5.804   6.611   4.594  0.8786 -1.0318  0.0221
16090TIP3   OH269760   0.786   6.028   1.530  0.8158 -0.0826  0.3557
16090TIP3    H169761   0.879   6.038   1.511  0.8771  1.2903  1.2399
16090TIP3    H269762   0.773   6.077   1.610 -0.8153  0.3743 -0.1575
16091TIP3   OH269763   3.479   5.451  13.096 -0.4713  0.3525  0.1053
16091TIP3    H169764   3.455   5.398  13.172 -0.4578 -0.8608 -0.7083
16091TIP3    H269765   3.494   5.387  13.026 -0.4430  1.4410 -0.9088
16092TIP3   OH269766   2.055   1.810   5.559  0.2744  0.2245  0.2500
16092TIP3    H169767   2.011   1.870   5.498  0.8500  1.5906  1.1381
16092TIP3    H269768   1.984   1.770   5.608 -0.0875  1.0272  0.4028
16093TIP3   OH269769   2.074   3.411   3.858  0.0845  0.5741  0.4138
16093TIP3    H169770   2.095   3.438   3.768  0.6298 -0.8514  0.0997
16093TIP3    H269771   2.081   3.492   3.909  1.2941  1.1185 -0.5592
16094TIP3   OH269772   6.357   4.460   1.684 -0.2580  0.3518 -0.2390
16094TIP3    H169773   6.417   4.392   1.651  3.0309  2.3352  1.1287
16094TIP3    H269774   6.372   4.534   1.626 -1.5122  0.8907  0.1028
16095TIP3   OH269775   4.472   0.235   4.155 -0.2329 -0.5096  0.2132
16095TIP3    H169776   4.386   0.241   4.195 -0.0458  0.5251  0.4932
16095TIP3    H269777   4.530   0.208   4.226  0.1843  1.8045  0.8201
16096TIP3   OH269778   3.474   3.589  13.211 -0.1097 -0.4934  0.7412
16096TIP3    H169779   3.478   3.518  13.275 -2.4350  0.3377  1.9209
16096TIP3    H269780   3.465   3.668  13.264 -0.9400  0.3354 -0.5744
16097TIP3   OH269781   1.133   3.629  10.982 -0.0239 -0.4036 -0.2396
16097TIP3    H169782   1.209   3.677  10.948 -0.2434 -0.2483 -0.5123
16097TIP3    H269783   1.058   3.683  10.958 -0.2288 -0.5907 -0.0273
16098TIP3   OH269784   3.389   6.739  13.098  0.0920 -0.1278  0.4968
16098TIP3    H169785   3.367   6.663  13.045  2.3176 -0.2239 -0.3992
16098TIP3    H269786   3.378   6.709  13.189 -1.1252 -0.8147  0.1400
16099TIP3   OH269787   6.461   0.326   3.998 -0.1695 -0.5590 -0.1873
16099TIP3    H169788   6.472   0.308   3.904 -1.4346  0.2985 -0.5312
16099TIP3    H269789   6.439   0.241   4.036 -2.8196 -0.4692 -1.2360
16100TIP3   OH269790   2.387   1.193   5.528  0.0626  0.2406  0.0880
16100TIP3    H169791   2.374   1.157   5.616  1.8655  0.2339  0.3850
16100TIP3    H269792   2.460   1.143   5.492 -0.5820  0.3074 -1.4059
16101TIP3   OH269793   0.656   5.159   4.749 -0.3616  0.4125 -0.2832
16101TIP3    H169794   0.738   5.117   4.722  0.1069  0.3474  1.1809
16101TIP3    H269795   0.665   5.250   4.719 -0.1567  0.1897 -0.9270
16102TIP3   OH269796   6.687   6.772  11.204 -0.9479  0.8456 -0.5512
16102TIP3    H169797   6.728   6.855  11.179 -2.2241  1.5859 -0.2827
16102TIP3    H269798   6.687   6.774  11.300 -0.7541  0.4035 -0.5372
16103TIP3   OH269799   0.055   2.041   2.273 -0.1348  0.0504  0.0061
16103TIP3    H169800   0.145   2.074   2.276  0.4670 -1.5591  0.5045
16103TIP3    H269801   0.031   2.028   2.365  1.0982 -4.4714 -0.0821
16104TIP3   OH269802   3.070   2.105   3.790 -0.1185 -0.0144  0.3774
16104TIP3    H169803   2.995   2.051   3.765 -0.8209  0.8669  0.5533
16104TIP3    H269804   3.113   2.055   3.859 -0.7951 -0.3268  0.5852
16105TIP3   OH269805   1.344   6.648  15.779 -0.0994 -0.0802 -0.0637
16105TIP3    H169806   1.299   6.729  15.802  1.4971  0.7397  0.3644
16105TIP3    H269807   1.392   6.625  15.859 -1.6952 -2.3193  0.3370
16106TIP3   OH269808   6.292   1.278   0.677 -0.1909 -0.5644 -0.1318
16106TIP3    H169809   6.242   1.321   0.607 -0.3828 -3.1037 -1.6997
16106TIP3    H269810   6.249   1.193   0.688  1.2199 -1.1213  1.5290
16107TIP3   OH269811   4.145   1.875   1.410 -0.3469  0.4940  0.0707
16107TIP3    H169812   4.139   1.971   1.411 -0.0334  0.5086  0.4487
16107TIP3    H269813   4.238   1.857   1.395 -0.3090  0.2471  0.5923
16108TIP3   OH269814   4.405   4.055  15.741  0.2356 -0.2906  0.0921
16108TIP3    H169815   4.341   4.045  15.812 -1.6995 -2.1094 -1.7886
16108TIP3    H269816   4.468   3.984  15.756 -0.8604 -1.4505 -0.6443
16109TIP3   OH269817   1.842   2.567   4.391 -0.3721  0.3507  0.0188
16109TIP3    H169818   1.833   2.658   4.363  1.0931  0.3752 -0.4698
16109TIP3    H269819   1.880   2.522   4.315  3.0005  0.2482  1.5609
16110TIP3   OH269820   4.320   3.942   5.741 -0.4924 -0.1881 -0.3083
16110TIP3    H169821   4.284   3.863   5.781  0.4902 -0.2258  0.5399
16110TIP3    H269822   4.407   3.916   5.712  0.2285  0.8264  0.8606
16111TIP3   OH269823   3.344   3.372   5.251  0.8544 -0.4016 -0.1400
16111TIP3    H169824   3.436   3.393   5.268  1.0997  1.9830 -3.5247
16111TIP3    H269825   3.300   3.457   5.248 -1.1078 -1.3703 -0.4340
16112TIP3   OH269826   4.918   2.522   2.532  0.4562  0.0601 -0.1908
16112TIP3    H169827   4.892   2.509   2.623  1.8734 -1.5658  0.0369
16112TIP3    H269828   4.921   2.617   2.521 -3.5303  0.4269  0.2635
16113TIP3   OH269829   4.529   5.759  10.581  0.2562 -0.1990 -0.0491
16113TIP3    H169830   4.454   5.819  10.582 -0.7787 -1.3624 -2.1322
16113TIP3    H269831   4.600   5.809  10.540  0.1829  0.4154  0.5599
16114TIP3   OH269832   1.908   5.097   3.823  0.2312  0.4150  0.2243
16114TIP3    H169833   1.817   5.126   3.836  0.3100  0.4564  0.7182
16114TIP3    H269834   1.945   5.096   3.912  1.1468  1.8185 -0.1132
16115TIP3   OH269835   3.418   3.084  12.190 -0.5956 -0.2042 -0.7348
16115TIP3    H169836   3.443   3.087  12.283 -1.7864 -2.7119 -0.2467
16115TIP3    H269837   3.373   3.167  12.175 -2.0247 -0.4741  1.4913
16116TIP3   OH269838   2.399   3.841  15.002 -0.9302  0.2379 -0.3703
16116TIP3    H169839   2.471   3.822  15.061 -0.2545 -0.7555 -1.4957
16116TIP3    H269840   2.330   3.779  15.027 -0.9229  0.3152 -0.1539
16117TIP3   OH269841   1.965   6.363  16.912 -0.0437  0.5116  0.6337
16117TIP3    H169842   2.009   6.318  16.840  0.1349  1.1104  0.3599
16117TIP3    H269843   1.874   6.333  16.906 -0.1152  0.8346 -0.0801
16118TIP3   OH269844   0.433   0.101   3.574  0.4566 -0.3614 -0.1801
16118TIP3    H169845   0.443   0.060   3.660 -0.5050 -0.9854 -0.3465
16118TIP3    H269846   0.343   0.133   3.573  0.4902 -0.2613 -0.9142
16119TIP3   OH269847   1.177   6.121  13.203  0.0056  0.8577 -0.5781
16119TIP3    H169848   1.194   6.189  13.269 -0.7095  1.2598 -0.8071
16119TIP3    H269849   1.089   6.090  13.223  0.6039 -0.5535  0.0068
16120TIP3   OH269850   6.475   2.046   5.823  0.4400 -0.4619  0.5871
16120TIP3    H169851   6.489   2.122   5.880  1.4745 -0.7294  0.7124
16120TIP3    H269852   6.419   1.987   5.875  1.0488 -0.5315  1.1887
16121TIP3   OH269853   6.154   1.661  12.181  0.1153 -0.4994  0.0998
16121TIP3    H169854   6.223   1.687  12.242 -0.9934 -0.8825  1.5928
16121TIP3    H269855   6.136   1.570  12.203  0.7128 -1.1321 -1.8648
16122TIP3   OH269856   2.639   1.475   0.987 -0.1152  0.0652 -0.8305
16122TIP3    H169857   2.660   1.492   1.078 -1.2147 -1.0872 -0.3332
16122TIP3    H269858   2.713   1.510   0.938 -0.3526  2.4138  0.3556
16123TIP3   OH269859   6.002   0.618   4.187  0.3360  0.4588  0.5505
16123TIP3    H169860   6.031   0.661   4.267  2.5600 -0.2301  0.1652
16123TIP3    H269861   5.939   0.552   4.216  1.5879 -0.2159  1.8278
16124TIP3   OH269862   1.829   0.852   3.561  0.7408  0.2595 -0.0192
16124TIP3    H169863   1.756   0.812   3.513  0.0908  0.5874  0.6773
16124TIP3    H269864   1.877   0.901   3.494 -0.5906  1.3339 -0.2296
16125TIP3   OH269865   3.971   6.165   2.240  0.4989  0.3295  0.2080
16125TIP3    H169866   3.950   6.071   2.237 -0.4240  0.5451 -0.4988
16125TIP3    H269867   4.002   6.185   2.151 -0.1228  0.8771  0.1110
16126TIP3   OH269868   6.403   4.285   2.651 -0.1061  0.0307  0.9406
16126TIP3    H169869   6.474   4.343   2.625 -0.5006  0.0315 -0.1854
16126TIP3    H269870   6.324   4.329   2.620 -0.4329 -0.9809  0.3128
16127TIP3   OH269871   2.321   2.321  13.059 -0.3401  0.0989  0.2971
16127TIP3    H169872   2.334   2.275  13.142  0.2493 -1.8055 -0.7803
16127TIP3    H269873   2.226   2.318  13.045 -0.6679  2.0717  1.7308
16128TIP3   OH269874   2.804   5.396  13.166 -0.1801 -0.4180 -0.3944
16128TIP3    H169875   2.806   5.307  13.131 -0.7785 -0.8187  0.5763
16128TIP3    H269876   2.823   5.386  13.259 -0.8452  0.4056 -0.1622
16129TIP3   OH269877   0.444   1.793   0.534  0.3834  0.3839  0.0945
16129TIP3    H169878   0.428   1.836   0.618  0.1689 -1.0116  0.7880
16129TIP3    H269879   0.530   1.751   0.544 -0.6533 -1.7658  0.4957
16130TIP3   OH269880   4.257   4.221  15.489 -0.1143  1.0562  0.6356
16130TIP3    H169881   4.205   4.300  15.474  1.5149  2.0861  0.1770
16130TIP3    H269882   4.319   4.246  15.557  0.2674  0.0855  0.6616
16131TIP3   OH269883   4.944   4.623   3.364 -0.0082  0.1562  0.0592
16131TIP3    H169884   4.938   4.662   3.277 -0.9009  0.7132  0.3583
16131TIP3    H269885   4.927   4.530   3.350 -2.2060  0.5384 -0.1346
16132TIP3   OH269886   2.833   3.146   5.665 -0.3709 -0.0375 -0.2850
16132TIP3    H169887   2.743   3.119   5.682 -1.1996  2.7706  0.4705
16132TIP3    H269888   2.871   3.157   5.753  0.5202 -0.5924 -0.5889
16133TIP3   OH269889   0.878   4.339   5.081 -0.3908  0.2290 -0.3437
16133TIP3    H169890   0.962   4.382   5.092 -0.9800  2.0345 -2.3995
16133TIP3    H269891   0.816   4.409   5.062 -1.8291 -1.3072 -1.6916
16134TIP3   OH269892   0.504   0.667  16.820 -0.3101 -0.2829 -0.4269
16134TIP3    H169893   0.549   0.585  16.839 -1.3466 -0.4797  1.4940
16134TIP3    H269894   0.572   0.726  16.787  0.5267 -1.7619 -1.4312
16135TIP3   OH269895   2.785   2.769   2.988 -0.5461  0.0106  0.3829
16135TIP3    H169896   2.691   2.769   2.972 -0.3743 -1.2231 -0.8948
16135TIP3    H269897   2.818   2.842   2.936 -0.4596 -1.5958 -1.9643
16136TIP3   OH269898   3.520   5.697  10.469  0.1390  0.3307 -0.0047
16136TIP3    H169899   3.612   5.679  10.450  0.2003  2.2668 -1.8915
16136TIP3    H269900   3.476   5.613  10.461  1.6371 -0.5171  0.3607
16137TIP3   OH269901   5.788   4.449  14.062  0.5458  0.0545 -0.7628
16137TIP3    H169902   5.722   4.517  14.078  0.6985 -0.2109  1.1733
16137TIP3    H269903   5.864   4.497  14.029  0.1841  0.6506 -0.7531
16138TIP3   OH269904   2.683   1.835   1.774 -0.2351  0.0205 -0.1124
16138TIP3    H169905   2.701   1.746   1.742 -0.5151 -0.2547  0.4817
16138TIP3    H269906   2.679   1.826   1.869 -2.9519  0.1388 -0.1439
16139TIP3   OH269907   1.346   5.839   2.321  0.1180 -0.2124  0.1992
16139TIP3    H169908   1.400   5.779   2.271 -2.5170  0.2018 -3.4969
16139TIP3    H269909   1.329   5.793   2.404  2.7422 -1.9913 -0.1397
16140TIP3   OH269910   4.926   4.871  13.165  0.0729  0.6442 -0.5601
16140TIP3    H169911   4.943   4.956  13.204 -3.5787  0.9065  0.9273
16140TIP3    H269912   4.931   4.809  13.238 -1.7594  0.3638 -0.6024
16141TIP3   OH269913   5.963   5.103   0.644  0.1834 -0.2215  0.2761
16141TIP3    H169914   5.914   5.173   0.686  1.2333 -0.2361  1.6093
16141TIP3    H269915   6.000   5.053   0.717  1.1326 -0.9325 -0.6676
16142TIP3   OH269916   5.617   5.404   1.800  0.0456 -0.0032 -0.1367
16142TIP3    H169917   5.630   5.383   1.892 -0.5494 -0.6383 -0.1848
16142TIP3    H269918   5.691   5.460   1.777  1.5201 -1.7247  0.1382
16143TIP3   OH269919   3.751   5.820   3.507  0.2064  0.3233  0.8787
16143TIP3    H169920   3.792   5.901   3.537 -0.8764  1.1979  0.0739
16143TIP3    H269921   3.674   5.849   3.458  0.7287 -1.1064 -0.8879
16144TIP3   OH269922   5.420   1.205  12.537 -0.1603 -0.0188 -0.3409
16144TIP3    H169923   5.406   1.204  12.442 -2.2674 -1.4647 -0.0896
16144TIP3    H269924   5.355   1.266  12.571  0.2914  0.1663  0.2131
16145TIP3   OH269925   2.063   4.880  12.515  0.2230 -0.5404 -0.2013
16145TIP3    H169926   1.975   4.907  12.490  0.3206  0.1693  0.2045
16145TIP3    H269927   2.111   4.878  12.432 -0.0950 -0.6454 -0.3865
16146TIP3   OH269928   1.561   5.127   2.653 -0.1252 -0.0264  0.7715
16146TIP3    H169929   1.652   5.096   2.652  0.2697  1.1107 -0.5751
16146TIP3    H269930   1.559   5.192   2.723  0.2936  0.4879  0.3104
16147TIP3   OH269931   0.481   1.448  11.659 -0.4644  0.0060  0.2746
16147TIP3    H169932   0.442   1.441  11.746  0.0603 -1.4638  0.4178
16147TIP3    H269933   0.472   1.540  11.636 -0.6683  0.4068  1.8571
16148TIP3   OH269934   5.847   5.323  12.242 -0.0662 -0.3076 -1.0245
16148TIP3    H169935   5.787   5.383  12.288 -2.4839 -1.6666 -2.2269
16148TIP3    H269936   5.800   5.298  12.163  1.6103 -2.4273 -1.4361
16149TIP3   OH269937   0.544   0.066   0.166 -0.0510  0.7950 -0.3105
16149TIP3    H169938   0.497   0.141   0.130 -2.0526 -0.6709 -0.9100
16149TIP3    H269939   0.575   0.018   0.089 -1.4212 -0.5603 -0.0590
16150TIP3   OH269940   3.437   5.019   3.548 -0.3964 -0.3048 -0.3977
16150TIP3    H169941   3.372   4.960   3.512  0.5713 -2.2280  0.8280
16150TIP3    H269942   3.521   4.975   3.532  0.2641  0.1074  1.5931
16151TIP3   OH269943   3.842   5.770   5.566 -0.1982  0.0088  0.4129
16151TIP3    H169944   3.811   5.734   5.649 -0.8741  1.7003  0.9503
16151TIP3    H269945   3.922   5.722   5.547 -0.7080 -1.2898  1.3845
16152TIP3   OH269946   3.931   1.601   2.409 -0.3286  0.0777 -0.2718
16152TIP3    H169947   3.952   1.664   2.479  1.1007 -1.5697  0.8560
16152TIP3    H269948   3.836   1.594   2.412 -0.3127  0.1587  1.4279
16153TIP3   OH269949   6.356   4.309   0.074 -0.3681  0.0768 -0.1549
16153TIP3    H169950   6.387   4.255   0.001 -0.7322 -0.5369  0.1344
16153TIP3    H269951   6.317   4.247   0.135 -1.3389  0.7315 -0.0830
16154TIP3   OH269952   3.685   3.570   5.574 -0.3471  0.1197 -0.2579
16154TIP3    H169953   3.743   3.596   5.502  0.2148  2.0317  0.8015
16154TIP3    H269954   3.711   3.627   5.647 -2.4346 -0.1698  0.7792
16155TIP3   OH269955   1.137   3.564   4.986 -0.3144 -0.0264 -0.4469
16155TIP3    H169956   1.108   3.580   4.897  1.6290  0.3061 -1.0588
16155TIP3    H269957   1.217   3.512   4.977 -0.2511 -0.2762  1.1208
16156TIP3   OH269958   4.724   4.811   1.700  0.1822  0.3273 -0.0033
16156TIP3    H169959   4.783   4.783   1.631 -1.6341  2.1530 -2.4694
16156TIP3    H269960   4.665   4.873   1.658 -1.5952  0.8968  3.0148
16157TIP3   OH269961   6.747   3.926   5.630  0.8449  0.0241 -0.9613
16157TIP3    H169962   6.676   3.989   5.640  0.4368 -0.3718 -1.3269
16157TIP3    H269963   6.809   3.969   5.571  1.9460  1.2434  0.9956
16158TIP3   OH269964   4.611   5.502   4.624  0.7658 -0.1411  0.5767
16158TIP3    H169965   4.694   5.471   4.660  0.0304 -0.8350  1.7186
16158TIP3    H269966   4.544   5.447   4.664 -0.1950 -0.2467 -1.0747
16159TIP3   OH269967   1.261   2.173   2.774 -0.5874 -0.1010  0.2598
16159TIP3    H169968   1.353   2.146   2.785 -0.5875 -1.0664 -1.6899
16159TIP3    H269969   1.245   2.232   2.848  1.1766 -0.9895  1.4420
16160TIP3   OH269970   5.361   6.437   5.353 -0.0112 -0.4508  0.0707
16160TIP3    H169971   5.382   6.348   5.380  0.9283 -0.1323  0.4303
16160TIP3    H269972   5.371   6.489   5.433  0.7759  0.1846 -0.4237
16161TIP3   OH269973   3.647   6.333   1.254 -0.0329 -0.3963  0.2792
16161TIP3    H169974   3.576   6.398   1.263  1.0031  0.6530  1.2405
16161TIP3    H269975   3.613   6.269   1.192 -2.0084 -0.1800  1.0695
16162TIP3   OH269976   4.774   4.373  17.162  0.1874  0.1251  0.1898
16162TIP3    H169977   4.731   4.432  17.101  0.9488 -0.4595 -0.9404
16162TIP3    H269978   4.854   4.345  17.117 -0.5335 -2.4165  0.3404
16163TIP3   OH269979   2.404   5.206   5.855  0.5974  0.5373  0.0114
16163TIP3    H169980   2.360   5.290   5.869 -0.7053 -0.1593  0.2355
16163TIP3    H269981   2.473   5.225   5.792  0.8649  1.9491  0.7008
16164TIP3   OH269982   6.312   6.659   0.689  0.5726 -0.4898  0.7826
16164TIP3    H169983   6.310   6.572   0.648 -0.0353 -0.0276 -0.1773
16164TIP3    H269984   6.365   6.646   0.768 -0.3072 -1.9676  1.1783
16165TIP3   OH269985   3.201   1.814  12.405 -0.0021  0.2567 -0.0101
16165TIP3    H169986   3.173   1.904  12.423  0.5994  0.3102  0.6819
16165TIP3    H269987   3.119   1.765  12.397 -0.3212  0.6091  0.9739
16166TIP3   OH269988   0.131   5.693  16.358  0.1105  0.9711  0.2488
16166TIP3    H169989   0.135   5.677  16.263  1.0458  0.8487  0.2974
16166TIP3    H269990   0.167   5.781  16.369 -0.7221  1.2990  0.4256
16167TIP3   OH269991   5.837   1.313  11.188 -0.7284 -0.2862 -0.0628
16167TIP3    H169992   5.887   1.235  11.213  0.6155  0.8668  0.9834
16167TIP3    H269993   5.820   1.301  11.094  1.9576 -0.5341 -0.6015
16168TIP3   OH269994   4.244   2.844  14.321 -0.0130  0.1623 -0.3997
16168TIP3    H169995   4.176   2.845  14.387 -0.2863  0.4309 -0.6869
16168TIP3    H269996   4.197   2.837  14.238  0.3214 -0.0477 -0.5734
16169TIP3   OH269997   1.729   0.286   4.556  0.0761 -0.6991 -0.0163
16169TIP3    H169998   1.668   0.358   4.544 -0.2344 -0.8177  0.7563
16169TIP3    H269999   1.684   0.210   4.519 -0.9932 -1.1203  2.0109
16170TIP3   OH270000   6.227   1.927   5.843  0.0879 -0.0590  0.1673
16170TIP3    H170001   6.298   1.947   5.783  1.0156 -2.4792  0.3388
16170TIP3    H270002   6.157   1.892   5.788 -0.9365  2.0523  0.0323
16171TIP3   OH270003   1.320   2.195   0.693 -0.1464  0.3709  0.0045
16171TIP3    H170004   1.279   2.235   0.617 -0.8437 -0.9440 -0.3443
16171TIP3    H270005   1.345   2.108   0.664  1.0948  0.4273  0.8060
16172TIP3   OH270006   6.279   3.227  16.818  0.2067 -0.0462 -0.2658
16172TIP3    H170007   6.287   3.150  16.874 -1.6632 -1.0390 -1.2555
16172TIP3    H270008   6.249   3.296  16.877 -1.3466 -0.9726  0.0976
16173TIP3   OH270009   0.300   4.360  11.256 -0.2182  0.5713  0.2082
16173TIP3    H170010   0.233   4.339  11.321 -0.9327  3.1025  0.3982
16173TIP3    H270011   0.258   4.346  11.172 -0.2960  0.1872  0.3109
16174TIP3   OH270012   0.739   0.612  12.492 -0.4107  0.0326  0.9634
16174TIP3    H170013   0.770   0.543  12.433 -0.0279 -0.3732  1.6201
16174TIP3    H270014   0.660   0.576  12.531 -0.9966  0.5381  0.2748
16175TIP3   OH270015   4.817   6.484  11.027 -0.1738  0.5203  0.5792
16175TIP3    H170016   4.769   6.547  10.973 -1.1997  0.6046  1.5429
16175TIP3    H270017   4.898   6.467  10.978 -0.8196  0.9861 -0.7137
16176TIP3   OH270018   0.804   0.957   0.469  0.1738  0.1841  0.1972
16176TIP3    H170019   0.886   0.998   0.441 -0.0257  0.2948 -0.2135
16176TIP3    H270020   0.795   0.880   0.413 -0.6949  0.9076 -0.6750
16177TIP3   OH270021   0.651   0.194   4.283  0.2102  0.2273  0.1454
16177TIP3    H170022   0.649   0.286   4.311 -3.1194  0.4522 -0.4648
16177TIP3    H270023   0.703   0.194   4.203  0.9087  1.4315  0.5772
16178TIP3   OH270024   5.798   4.276  15.070  0.0705  0.5163  0.9276
16178TIP3    H170025   5.833   4.334  15.003 -1.7436 -0.7730 -1.2654
16178TIP3    H270026   5.735   4.330  15.118  1.1765  1.3672  1.4734
16179TIP3   OH270027   4.559   5.275   2.930 -0.0832 -0.0270  0.4153
16179TIP3    H170028   4.651   5.249   2.923 -0.7765 -3.0534  0.8277
16179TIP3    H270029   4.511   5.205   2.885 -2.3085  0.2355  2.1734
16180TIP3   OH270030   1.260   3.648   4.294  0.3676  0.3965 -0.2397
16180TIP3    H170031   1.296   3.722   4.245 -1.6534  0.5675 -1.5755
16180TIP3    H270032   1.168   3.645   4.269  0.3884 -2.6268 -0.2719
16181TIP3   OH270033   4.817   1.222  12.503  1.1024  0.5281  0.2127
16181TIP3    H170034   4.805   1.247  12.411 -1.8636 -0.5136  0.2118
16181TIP3    H270035   4.814   1.127  12.503 -1.2290  0.5234  1.5473
16182TIP3   OH270036   0.785   5.651  12.195  0.4630 -0.4602 -0.0287
16182TIP3    H170037   0.733   5.731  12.210  1.0075  0.1742 -1.3092
16182TIP3    H270038   0.862   5.661  12.250 -0.1490 -0.7858  0.8955
16183TIP3   OH270039   0.836   5.474   9.671 -0.6036  0.2515 -0.3039
16183TIP3    H170040   0.893   5.434   9.736 -0.2266 -0.1423 -0.8687
16183TIP3    H270041   0.865   5.565   9.667 -1.2770  0.5276  0.7801
16184TIP3   OH270042   1.908   2.569   0.664  0.4848 -0.0697  0.3516
16184TIP3    H170043   1.991   2.576   0.616  0.7607 -0.3070  0.7800
16184TIP3    H270044   1.853   2.514   0.610  0.7472 -0.2302  0.2469
16185TIP3   OH270045   0.777   5.656  11.052  0.0556  0.6951  0.5720
16185TIP3    H170046   0.848   5.642  10.990  0.1500 -0.2259  0.8708
16185TIP3    H270047   0.817   5.637  11.138 -0.5049  0.2999  0.7500
16186TIP3   OH270048   2.029   5.174  13.704 -0.3544 -0.4706 -0.2241
16186TIP3    H170049   2.056   5.206  13.790  3.1861  0.2443 -1.4423
16186TIP3    H270050   1.986   5.090  13.722 -2.2327  0.9149  2.3702
16187TIP3   OH270051   4.807   5.251   3.433  0.3497  0.7322 -0.1627
16187TIP3    H170052   4.810   5.310   3.508  0.1926  0.1160  0.3311
16187TIP3    H270053   4.742   5.290   3.374 -1.0629  0.1553  0.9383
16188TIP3   OH270054   3.839   0.791   4.069 -0.1679  0.0848 -0.0375
16188TIP3    H170055   3.861   0.729   4.139 -2.2672 -1.1266 -0.3726
16188TIP3    H270056   3.912   0.784   4.008 -0.1767 -1.8697  0.0905
16189TIP3   OH270057   5.936   3.921  13.321  0.4185  0.5201 -0.0341
16189TIP3    H170058   5.913   3.931  13.229  0.1860  0.3419  0.0048
16189TIP3    H270059   5.921   4.008  13.359  0.2826  0.5304 -0.1114
16190TIP3   OH270060   0.639   6.491   1.461  0.1922  0.0445  0.6426
16190TIP3    H170061   0.562   6.520   1.413  0.0281 -0.4181  0.6272
16190TIP3    H270062   0.690   6.571   1.475  0.7827  0.0380 -1.2428
16191TIP3   OH270063   0.850   4.130  12.081  0.2240  0.2181  0.2918
16191TIP3    H170064   0.819   4.175  12.160 -0.4802 -1.6908  1.1599
16191TIP3    H270065   0.822   4.040  12.092  0.8560 -0.2882 -1.7815
16192TIP3   OH270066   2.946   5.883  10.430 -0.3648 -0.0761  0.8741
16192TIP3    H170067   2.979   5.826  10.500  3.5277 -2.2729 -2.3383
16192TIP3    H270068   2.855   5.855  10.417 -0.6696 -0.7830  3.7467
16193TIP3   OH270069   4.658   0.533  13.841  0.7964  0.3310  0.2016
16193TIP3    H170070   4.609   0.454  13.866 -0.1790  0.7582 -0.3102
16193TIP3    H270071   4.727   0.540  13.907  0.2220 -0.3415  0.8914
16194TIP3   OH270072   6.555   5.138  16.771 -0.0083  0.0718  0.3546
16194TIP3    H170073   6.650   5.135  16.759 -0.2492 -1.2866 -1.9650
16194TIP3    H270074   6.528   5.219  16.727 -0.0642 -0.5873 -0.8889
16195TIP3   OH270075   0.105   2.345  13.813 -0.2003 -0.1731 -0.1552
16195TIP3    H170076   0.124   2.278  13.878 -0.1979 -1.2802 -1.2680
16195TIP3    H270077   0.179   2.406  13.819  0.4913 -1.0102 -0.0775
16196TIP3   OH270078   1.137   3.879   4.129 -0.5961 -0.0433 -0.3362
16196TIP3    H170079   1.189   3.875   4.048 -1.0710  1.0543 -0.7064
16196TIP3    H270080   1.187   3.937   4.187 -0.9992  0.3679 -0.3959
16197TIP3   OH270081   2.205   5.112  12.552 -0.3180 -0.4452 -0.0412
16197TIP3    H170082   2.130   5.114  12.492 -0.4834 -0.2404  0.1659
16197TIP3    H270083   2.204   5.023  12.588  0.9533 -1.2073 -1.7771
16198TIP3   OH270084   4.679   4.605   0.366  0.0148  0.3082 -0.2842
16198TIP3    H170085   4.671   4.674   0.300  2.5939  2.1212  1.1008
16198TIP3    H270086   4.774   4.590   0.373 -0.3089 -1.3002  1.5352
16199TIP3   OH270087   6.540   3.114   1.731 -0.6925  0.2484 -0.6189
16199TIP3    H170088   6.634   3.104   1.745 -0.8159 -0.9594 -0.5786
16199TIP3    H270089   6.517   3.193   1.780 -0.4806 -1.8471  3.2858
16200TIP3   OH270090   0.477   0.996  15.613  0.2376 -0.6636  0.1110
16200TIP3    H170091   0.532   1.001  15.690 -0.9145  2.1552  0.8878
16200TIP3    H270092   0.432   1.081  15.610 -0.8458 -1.2126 -2.8475
16201TIP3   OH270093   0.157   1.317  11.891  0.8346  0.2245  0.2754
16201TIP3    H170094   0.211   1.269  11.829  0.7375  1.3900 -0.7423
16201TIP3    H270095   0.178   1.409  11.876 -0.8851  0.6704  0.3462
16202TIP3   OH270096   0.538   5.544  11.450  0.8494 -0.6020 -0.1139
16202TIP3    H170097   0.517   5.582  11.365  1.6706 -0.4752 -0.2678
16202TIP3    H270098   0.612   5.596  11.482 -0.6706  0.6886  1.5917
16203TIP3   OH270099   5.158   2.178  14.394  0.4990 -0.3539 -0.5887
16203TIP3    H170100   5.231   2.199  14.452  0.8312  1.0516 -1.4462
16203TIP3    H270101   5.197   2.175  14.306 -0.2469 -0.8839 -0.9188
16204TIP3   OH270102   2.249   2.045  16.489  0.0613  0.0316 -0.5850
16204TIP3    H170103   2.195   2.099  16.431  0.3610  0.7787 -0.1828
16204TIP3    H270104   2.220   2.067  16.577  0.7553  0.1657 -0.3804
16205TIP3   OH270105   3.515   4.044  14.281  0.5896 -0.0802 -0.1314
16205TIP3    H170106   3.446   4.080  14.337 -0.9082 -0.7047 -1.5087
16205TIP3    H270107   3.521   3.952  14.309 -0.5960 -0.5596 -1.3313
16206TIP3   OH270108   5.305   3.416  12.115  0.1520  0.3105 -0.1499
16206TIP3    H170109   5.289   3.322  12.110  2.1392 -0.2590  2.1323
16206TIP3    H270110   5.399   3.425  12.098  0.0049  1.8923 -0.2879
16207TIP3   OH270111   0.413   1.527   3.303  0.0318 -0.0903  0.1110
16207TIP3    H170112   0.344   1.468   3.272  0.3088 -0.2022 -0.3086
16207TIP3    H270113   0.492   1.496   3.258  0.2131  0.4976  0.0234
16208TIP3   OH270114   1.078   4.620  14.130  0.1419  0.1455  0.3733
16208TIP3    H170115   1.076   4.707  14.169  2.0520  0.5361 -0.2708
16208TIP3    H270116   1.171   4.599  14.123 -0.1767 -0.8071 -1.9416
16209TIP3   OH270117   4.954   6.488   5.700 -0.8122 -0.5501  0.1841
16209TIP3    H170118   4.992   6.404   5.674 -0.7927 -1.1826  2.0879
16209TIP3    H270119   5.007   6.516   5.774  0.8845  2.5201 -1.9650
16210TIP3   OH270120   2.507   5.602  15.782 -0.4380  0.5008  0.1703
16210TIP3    H170121   2.452   5.681  15.777  0.1007  0.8170 -0.9698
16210TIP3    H270122   2.514   5.584  15.876  0.2234  2.3731  0.5121
16211TIP3   OH270123   3.231   0.245   1.229 -0.0768 -0.3934 -0.3891
16211TIP3    H170124   3.164   0.250   1.297 -1.8977  0.6560 -2.1384
16211TIP3    H270125   3.192   0.190   1.161  1.4036 -0.8677 -0.8914
16212TIP3   OH270126   4.656   6.267   4.737  0.2603  1.0528  0.3963
16212TIP3    H170127   4.615   6.233   4.817  0.7111  1.7861  0.9497
16212TIP3    H270128   4.750   6.259   4.753  0.4982 -2.2674 -1.5546
16213TIP3   OH270129   3.494   5.022  15.869 -0.5807  0.1014  0.1542
16213TIP3    H170130   3.557   5.093  15.852  0.9879 -1.2380  0.0464
16213TIP3    H270131   3.547   4.942  15.864 -2.4839 -1.1788 -0.7852
16214TIP3   OH270132   0.009   2.426   2.893  1.0362  0.2248  0.2092
16214TIP3    H170133  -0.055   2.470   2.838 -0.6261  1.1570  2.7388
16214TIP3    H270134   0.016   2.338   2.856  0.1028  0.8224 -1.5026
16215TIP3   OH270135   6.373   4.247  12.143  0.0353 -0.6930 -0.0105
16215TIP3    H170136   6.433   4.173  12.137  0.3166 -0.4612 -0.0744
16215TIP3    H270137   6.396   4.289  12.226 -0.1674 -0.7103  0.0571
16216TIP3   OH270138   1.973   1.364  10.933 -0.2747  0.3373  0.3607
16216TIP3    H170139   1.922   1.287  10.958  0.0273  0.5282  1.6421
16216TIP3    H270140   1.916   1.438  10.953 -0.2286  0.4909 -0.0520
16217TIP3   OH270141   5.680   4.562   3.868  0.1828  0.4634 -0.2433
16217TIP3    H170142   5.624   4.591   3.940  1.0366  0.0911  0.5868
16217TIP3    H270143   5.666   4.626   3.799 -0.8577  0.6718  0.1445
16218TIP3   OH270144   1.939   6.597  15.244  0.6576 -0.3843 -1.0459
16218TIP3    H170145   2.007   6.624  15.307 -1.0250  3.5634 -0.6090
16218TIP3    H270146   1.859   6.590  15.297  0.0629 -1.7336 -2.0669
16219TIP3   OH270147   2.764   5.558  14.700  0.1756 -0.3819 -0.2998
16219TIP3    H170148   2.708   5.481  14.693 -0.1574 -0.1894  0.1973
16219TIP3    H270149   2.837   5.530  14.755  1.8121 -1.3313 -2.7757
16220TIP3   OH270150   3.684   1.847   4.273 -0.6471  0.2856  0.3981
16220TIP3    H170151   3.723   1.761   4.280 -0.6199  0.3436  0.9993
16220TIP3    H270152   3.666   1.858   4.180 -0.3583 -0.2357  0.2806
16221TIP3   OH270153   5.552   6.615  11.918  0.8596 -0.7539  0.4909
16221TIP3    H170154   5.458   6.619  11.935  1.3064 -0.2261  3.3183
16221TIP3    H270155   5.562   6.538  11.861 -1.2441 -0.7514 -0.0032
16222TIP3   OH270156   5.526   0.504   1.795 -0.0063  0.0439 -0.5917
16222TIP3    H170157   5.525   0.408   1.798 -1.8640  0.0624  1.2990
16222TIP3    H270158   5.445   0.531   1.838  1.0735  2.5007  0.0910
16223TIP3   OH270159   1.435   5.568   0.487  0.0350 -0.2471 -0.4320
16223TIP3    H170160   1.400   5.553   0.575 -0.6116 -2.5623 -1.0069
16223TIP3    H270161   1.376   5.519   0.430  0.8943  0.5768 -2.0807
16224TIP3   OH270162   5.944   5.763   0.544  0.0201  0.4111 -0.2373
16224TIP3    H170163   6.031   5.732   0.568 -0.8637 -1.0273  1.3188
16224TIP3    H270164   5.929   5.839   0.600  0.5556  1.1335 -1.0579
16225TIP3   OH270165   2.972   4.000   2.476 -0.1430 -0.5450  0.7671
16225TIP3    H170166   3.058   4.019   2.515  0.1032 -0.0887  0.0163
16225TIP3    H270167   2.914   4.068   2.510  0.2957  0.4534 -0.3996
16226TIP3   OH270168   0.380   5.045  14.704 -0.0968  0.1078 -0.5862
16226TIP3    H170169   0.321   5.030  14.779 -0.4753  1.8013 -0.5048
16226TIP3    H270170   0.340   4.996  14.632  0.0310 -1.1832  0.1896
16227TIP3   OH270171   6.018   5.233   3.843 -0.5129  0.5597  0.7001
16227TIP3    H170172   5.981   5.176   3.776 -0.6345 -0.1974  1.3994
16227TIP3    H270173   5.945   5.289   3.870 -0.7931  0.0300  1.0637
16228TIP3   OH270174   5.332   4.141  15.955  0.8155  0.4434  0.1496
16228TIP3    H170175   5.348   4.056  15.996  2.3492  0.3175 -0.6486
16228TIP3    H270176   5.376   4.136  15.870 -1.1478  1.1719 -0.9745
16229TIP3   OH270177   5.436   1.099   4.633  0.0389 -0.1144 -0.2505
16229TIP3    H170178   5.502   1.140   4.577  0.0466  0.8594  0.4502
16229TIP3    H270179   5.483   1.076   4.713 -0.6333  1.5034  0.6679
16230TIP3   OH270180   1.895   6.136  14.262 -0.1050 -0.2644  0.4434
16230TIP3    H170181   1.964   6.137  14.196 -0.7806 -0.7584 -0.2838
16230TIP3    H270182   1.934   6.091  14.337  0.6086  0.1420  0.3229
16231TIP3   OH270183   1.530   2.832  16.859  0.1674 -0.3818  0.1647
16231TIP3    H170184   1.459   2.769  16.863 -1.5651  1.5216  2.0324
16231TIP3    H270185   1.511   2.886  16.783  0.6074 -0.9072 -0.3304
16232TIP3   OH270186   2.172   1.371   5.917 -0.1596  0.2265 -0.2648
16232TIP3    H170187   2.114   1.327   5.978  0.5398  0.4837  0.6069
16232TIP3    H270188   2.128   1.363   5.832 -1.5953  0.6599  0.4017
16233TIP3   OH270189   0.750   5.213  16.771 -0.6163  0.2673 -0.1949
16233TIP3    H170190   0.749   5.306  16.791 -0.3370 -0.1802  2.1734
16233TIP3    H270191   0.751   5.170  16.857 -0.9931 -1.9217 -1.2171
16234TIP3   OH270192   6.332   2.228  12.046  0.1074  0.4004  0.3196
16234TIP3    H170193   6.344   2.294  12.114 -1.7973 -0.1876  1.3023
16234TIP3    H270194   6.251   2.183  12.070  1.0050 -1.9055 -0.6655
16235TIP3   OH270195   2.690   2.650   3.953 -0.0886  0.3840 -0.2295
16235TIP3    H170196   2.724   2.573   3.908  1.8038  0.9538  0.1755
16235TIP3    H270197   2.612   2.617   3.999  0.3782 -1.1618 -0.4784
16236TIP3   OH270198   1.726   4.774   5.030 -0.1284  0.5335  0.3694
16236TIP3    H170199   1.664   4.802   5.096  0.0396  1.9762 -0.0400
16236TIP3    H270200   1.765   4.856   4.997  0.7247 -0.2207 -0.5889
16237TIP3   OH270201   4.857   0.989  12.724  0.8051  0.8555 -0.0500
16237TIP3    H170202   4.928   1.046  12.695  0.2751  0.6719 -1.8581
16237TIP3    H270203   4.896   0.902  12.728  0.8195  0.8376 -0.5215
16238TIP3   OH270204   1.291   4.756   4.166  0.1093  0.1981  0.3640
16238TIP3    H170205   1.372   4.720   4.130 -0.1496  0.4181 -0.4526
16238TIP3    H270206   1.274   4.835   4.115 -0.2998  0.4890  0.9310
16239TIP3   OH270207   3.223   3.113   5.293  0.5136 -0.4647 -0.1865
16239TIP3    H170208   3.292   3.110   5.227 -0.1113 -2.4404 -0.8208
16239TIP3    H270209   3.153   3.164   5.251 -0.5073 -2.9877 -1.8187
16240TIP3   OH270210   0.615   1.048   1.494  0.3032 -0.3622  0.1880
16240TIP3    H170211   0.644   1.139   1.497  0.1071 -0.2596 -0.6023
16240TIP3    H270212   0.674   1.001   1.552  1.6982 -0.0740 -0.9485
16241TIP3   OH270213   5.932   3.772   0.981 -0.0466  0.4868  0.2208
16241TIP3    H170214   5.960   3.862   0.965 -0.2601  0.4729 -0.2287
16241TIP3    H270215   5.844   3.767   0.943 -1.2635  0.9230  2.7125
16242TIP3   OH270216   4.661   6.521  15.212 -0.6283  0.1321  0.0976
16242TIP3    H170217   4.720   6.454  15.245 -1.9776 -1.6180 -0.8597
16242TIP3    H270218   4.706   6.559  15.137 -1.4538 -2.6620 -1.9540
16243TIP3   OH270219   1.240   6.262  11.529 -0.2459 -0.2728  0.2132
16243TIP3    H170220   1.278   6.215  11.603 -0.0684 -1.1423 -0.4227
16243TIP3    H270221   1.273   6.217  11.451 -0.4393  0.6185 -0.4024
16244TIP3   OH270222   0.380   2.183  11.195 -0.4159  0.3653  0.1454
16244TIP3    H170223   0.420   2.102  11.226 -0.8662  0.0307 -0.1303
16244TIP3    H270224   0.286   2.163  11.189 -0.3971  0.5158 -1.0657
16245TIP3   OH270225   6.197   4.857   1.193  0.4226 -0.4548  1.3015
16245TIP3    H170226   6.163   4.773   1.225 -1.1951  0.0582  1.0634
16245TIP3    H270227   6.291   4.843   1.182  0.3449 -1.9098  2.2500
16246TIP3   OH270228   6.286   1.438   4.809 -0.3585  0.1824 -0.2927
16246TIP3    H170229   6.212   1.429   4.870  2.0532 -0.7734  2.7538
16246TIP3    H270230   6.297   1.533   4.799 -2.0791  0.3401 -0.9799
16247TIP3   OH270231   3.754   6.008   1.741 -0.0416  0.1074 -0.0859
16247TIP3    H170232   3.762   5.990   1.834  2.3971 -1.8034 -0.5596
16247TIP3    H270233   3.760   6.103   1.734  1.2246  0.1863  1.6201
16248TIP3   OH270234   3.838   4.512   6.209 -0.4992 -0.1945  0.2529
16248TIP3    H170235   3.921   4.546   6.243 -0.2756 -0.9049  0.4372
16248TIP3    H270236   3.819   4.568   6.134 -0.0200  0.1826  0.3993
16249TIP3   OH270237   5.807   0.781  13.445  0.2046 -0.5620  0.2838
16249TIP3    H170238   5.719   0.818  13.451  0.3559 -0.0994 -0.2996
16249TIP3    H270239   5.797   0.690  13.474 -0.6163 -0.7349 -0.4944
16250TIP3   OH270240   5.592   4.843   2.156  0.3110 -0.2973  0.3451
16250TIP3    H170241   5.568   4.854   2.249 -1.4246 -0.8533  0.0056
16250TIP3    H270242   5.631   4.927   2.132  3.1958 -0.9495  2.1836
16251TIP3   OH270243   4.278   0.432  12.473  0.0111  0.7258 -0.5854
16251TIP3    H170244   4.184   0.449  12.474 -0.5497 -1.7252 -2.1024
16251TIP3    H270245   4.291   0.364  12.540  0.2618 -0.4736 -1.7941
16252TIP3   OH270246   6.441   3.466  12.438  0.0951  0.1585  0.2809
16252TIP3    H170247   6.369   3.511  12.393 -0.6131 -1.2558 -0.0520
16252TIP3    H270248   6.405   3.380  12.460  1.2820 -0.1101  1.2574
16253TIP3   OH270249   5.427   0.826   3.878 -0.7161  0.6445 -0.6599
16253TIP3    H170250   5.437   0.822   3.974 -0.6553  0.4657 -0.6738
16253TIP3    H270251   5.459   0.741   3.847  2.2092  1.7703 -1.0995
16254TIP3   OH270252   2.148   2.000   4.209 -0.6764  1.0007  0.0401
16254TIP3    H170253   2.235   2.001   4.169 -0.3666 -1.4993  0.4829
16254TIP3    H270254   2.119   1.909   4.201 -3.3973  1.8004 -0.3412
16255TIP3   OH270255   0.882   6.397   1.140 -0.0523  0.4026  0.2572
16255TIP3    H170256   0.786   6.400   1.142 -0.0289  1.2547  0.2425
16255TIP3    H270257   0.907   6.378   1.230 -0.2386 -0.2827  0.1760
16256TIP3   OH270258   0.037   0.995  12.771 -0.1029 -0.8378 -0.2544
16256TIP3    H170259  -0.056   1.013  12.788 -0.0833  0.4052 -1.3726
16256TIP3    H270260   0.079   1.009  12.856 -0.8009 -0.4810  0.0454
16257TIP3   OH270261   5.948   2.063   1.412 -0.0963 -0.3464  0.3219
16257TIP3    H170262   5.918   1.979   1.447 -1.6136 -0.0897 -0.2846
16257TIP3    H270263   5.954   2.049   1.318  0.5971 -0.0371  0.3123
16258TIP3   OH270264   3.996   4.945  14.388  0.3851  0.4414  0.4245
16258TIP3    H170265   4.073   5.000  14.400 -0.4575  1.7149  0.1896
16258TIP3    H270266   3.959   4.937  14.476  0.6206  0.0576  0.4923
16259TIP3   OH270267   3.050   5.404  16.768  0.5981 -0.1520  0.4328
16259TIP3    H170268   3.041   5.360  16.683  1.8732  0.0902  0.1386
16259TIP3    H270269   3.145   5.417  16.778  0.4967 -0.3902  2.0098
16260TIP3   OH270270   0.921   0.976  13.806  0.3332  0.2854 -0.4979
16260TIP3    H170271   1.007   0.964  13.844  0.0044  0.9943  0.5057
16260TIP3    H270272   0.929   1.056  13.754  0.0328  0.9085  0.3934
16261TIP3   OH270273   4.389   2.591   1.692 -0.4295  0.3147 -0.6731
16261TIP3    H170274   4.391   2.621   1.601  0.2481 -0.5611 -0.9620
16261TIP3    H270275   4.335   2.656   1.738 -1.0967  0.5513 -1.7675
16262TIP3   OH270276   1.345   0.870  11.813 -0.1366  0.5792  0.1265
16262TIP3    H170277   1.333   0.780  11.843  0.1540 -0.0012 -1.4169
16262TIP3    H270278   1.422   0.867  11.757 -0.4678  1.6800 -0.4256
16263TIP3   OH270279   3.022   2.183  12.681  0.1655 -0.2844 -0.0004
16263TIP3    H170280   3.004   2.277  12.683  0.2342 -0.2300 -1.0901
16263TIP3    H270281   3.113   2.175  12.710 -0.9134 -0.4035  3.8418
16264TIP3   OH270282   5.099   3.350   4.692 -0.4010  0.1952 -0.7902
16264TIP3    H170283   5.172   3.291   4.672  0.0789  1.1646 -2.0287
16264TIP3    H270284   5.139   3.435   4.706 -1.2318  0.5914 -0.7447
16265TIP3   OH270285   6.157   1.960  14.033 -0.1330 -0.2120 -0.2329
16265TIP3    H170286   6.166   2.010  14.114  0.7815 -1.1996  0.3014
16265TIP3    H270287   6.076   1.910  14.044 -2.1638  2.5422 -1.5998
16266TIP3   OH270288   1.968   0.175   0.318  0.2280 -0.8276  0.3611
16266TIP3    H170289   2.060   0.164   0.339  0.4969 -0.0176 -0.3115
16266TIP3    H270290   1.966   0.183   0.222 -0.4308  0.0608  0.4328
16267TIP3   OH270291   3.064   2.383   5.288 -0.4290  0.2417 -0.1527
16267TIP3    H170292   3.116   2.304   5.271  0.0382  0.5350 -0.0925
16267TIP3    H270293   3.067   2.433   5.207  1.2898  1.3450  0.5388
16268TIP3   OH270294   0.990   0.157   0.842  0.3269 -0.1849 -0.0589
16268TIP3    H170295   0.921   0.219   0.820  0.8863 -0.6677 -3.9317
16268TIP3    H270296   0.944   0.076   0.864 -0.3871 -0.1680 -1.4276
16269TIP3   OH270297   4.888   5.019  13.804 -0.1001 -0.1653  0.1977
16269TIP3    H170298   4.877   5.029  13.709  0.2638  3.1405  0.4223
16269TIP3    H270299   4.822   5.077  13.842  0.5220 -0.5761  1.9850
16270TIP3   OH270300   1.172   3.983   2.251  0.2637  0.8395 -0.0489
16270TIP3    H170301   1.105   4.051   2.255  0.6248  1.2280 -0.3621
16270TIP3    H270302   1.196   3.980   2.158  0.3990  0.4336  0.0002
16271TIP3   OH270303   2.914   1.016   0.291 -0.3828 -0.3121  0.3528
16271TIP3    H170304   2.901   1.025   0.196 -0.1922  0.0538  0.3604
16271TIP3    H270305   2.849   1.074   0.330  0.7096  0.9232  0.4055
16272TIP3   OH270306   6.059   3.909   4.639  0.5478 -0.5526 -0.5877
16272TIP3    H170307   6.051   3.935   4.547 -0.8562 -0.0961 -0.3655
16272TIP3    H270308   6.013   3.978   4.687  0.1896 -1.4279  0.3554
16273TIP3   OH270309   6.427   5.432   2.219  0.1430  0.6848  0.1732
16273TIP3    H170310   6.517   5.409   2.195 -0.4665  0.7377 -2.3834
16273TIP3    H270311   6.435   5.518   2.262  1.5914 -0.7198  3.0420
16274TIP3   OH270312   6.168   4.234   0.877 -0.3732  0.1064 -0.3076
16274TIP3    H170313   6.144   4.271   0.793  0.9155  1.2681 -0.1972
16274TIP3    H270314   6.264   4.228   0.874 -0.2067  1.1588  1.4449
16275TIP3   OH270315   1.438   0.517   0.309  0.4552 -0.0983  0.0517
16275TIP3    H170316   1.460   0.601   0.348 -1.2934  1.1594 -1.4928
16275TIP3    H270317   1.415   0.461   0.384  0.9665  0.9815  1.0529
16276TIP3   OH270318   3.224   5.734  16.784 -0.2214 -0.2537  0.0826
16276TIP3    H170319   3.170   5.731  16.705  1.2975  0.8838 -1.0763
16276TIP3    H270320   3.264   5.647  16.790 -0.8081 -0.5329 -0.0535
16277TIP3   OH270321   0.320   0.217  10.975 -0.4735 -0.3466 -0.2562
16277TIP3    H170322   0.396   0.254  10.930 -0.6786 -0.4410 -0.6829
16277TIP3    H270323   0.318   0.125  10.947 -0.5948 -0.4104 -0.0422
16278TIP3   OH270324   5.764   2.676   0.149 -0.3554 -0.0784  0.5695
16278TIP3    H170325   5.788   2.707   0.236  0.5723 -0.3180  0.4129
16278TIP3    H270326   5.846   2.682   0.098 -0.4604 -1.5479  0.1867
16279TIP3   OH270327   4.825   2.724   2.935  0.9473 -0.0870 -0.4855
16279TIP3    H170328   4.780   2.688   3.012  0.1005  0.9990 -0.4321
16279TIP3    H270329   4.912   2.748   2.967  0.5354  0.5443  0.2105
16280TIP3   OH270330   2.547   5.959  15.038 -0.1902 -0.7364  0.2868
16280TIP3    H170331   2.579   6.038  14.994  0.5348 -1.0417  0.2653
16280TIP3    H270332   2.489   5.992  15.107 -0.7138 -0.2238 -0.3790
16281TIP3   OH270333   0.686   4.016   4.613  0.5049  0.3560 -0.5754
16281TIP3    H170334   0.761   4.056   4.657 -0.8474  2.9308 -0.4418
16281TIP3    H270335   0.630   3.984   4.684  0.3651  0.5961 -0.5755
16282TIP3   OH270336   0.489   3.888   3.020 -0.7378 -0.6377 -0.3401
16282TIP3    H170337   0.531   3.830   3.084 -1.3381 -1.3229 -0.5587
16282TIP3    H270338   0.519   3.856   2.936  1.0501  1.0258 -0.4140
16283TIP3   OH270339   3.276   1.980   0.312 -0.0920  0.3871 -0.0539
16283TIP3    H170340   3.370   1.966   0.319 -0.3732 -0.8166  2.1289
16283TIP3    H270341   3.243   1.968   0.401 -2.0422  3.1109 -0.2796
16284TIP3   OH270342   4.900   0.007   4.416 -1.0535  0.3652  0.2571
16284TIP3    H170343   4.919  -0.087   4.408 -3.5527 -0.3665  1.9256
16284TIP3    H270344   4.978   0.050   4.380 -0.7584 -2.2927 -2.7899
16285TIP3   OH270345   3.830   0.207   3.294  0.1658  0.2087  0.0940
16285TIP3    H170346   3.887   0.281   3.274 -0.4059  0.8001  0.6380
16285TIP3    H270347   3.752   0.246   3.332  0.6396 -0.7746  2.2174
16286TIP3   OH270348   0.001   6.685  10.945  0.0898  0.2611 -0.2776
16286TIP3    H170349  -0.061   6.709  10.876  1.0020  0.8551 -0.9097
16286TIP3    H270350  -0.039   6.719  11.026 -1.2948 -0.9962 -0.3888
16287TIP3   OH270351   1.873   5.199  15.038  0.0930  0.9393 -0.1001
16287TIP3    H170352   1.921   5.153  15.107 -0.4349 -0.8349 -0.8329
16287TIP3    H270353   1.880   5.141  14.962 -1.8896  1.3264 -0.6475
16288TIP3   OH270354   6.628   5.510   5.067  0.3920  0.0048 -0.0817
16288TIP3    H170355   6.702   5.518   5.127  0.5895 -1.6752 -0.0592
16288TIP3    H270356   6.659   5.549   4.986  1.2267 -0.4769 -0.0042
16289TIP3   OH270357   1.630   2.095   0.459  0.6368 -0.0791 -0.6461
16289TIP3    H170358   1.686   2.019   0.446  0.8833  0.1440 -0.8996
16289TIP3    H270359   1.630   2.109   0.554 -0.9793 -1.5716 -0.3818
16290TIP3   OH270360   4.756   6.645  13.951 -0.2960  0.1952 -0.0853
16290TIP3    H170361   4.836   6.692  13.926  0.2872 -0.4648  0.4770
16290TIP3    H270362   4.701   6.649  13.873 -0.6852  2.5880  0.2427
16291TIP3   OH270363   3.669   2.816  14.336 -0.2721  0.0635 -0.2877
16291TIP3    H170364   3.670   2.818  14.432 -0.4038  2.5103 -0.2590
16291TIP3    H270365   3.746   2.866  14.310  0.0799 -1.0574 -1.4957
16292TIP3   OH270366   6.476   0.444  13.873  0.2073  0.3421 -0.3464
16292TIP3    H170367   6.565   0.436  13.908  0.5998 -1.1473 -1.5637
16292TIP3    H270368   6.425   0.483  13.944  1.2233 -1.4121  1.4419
16293TIP3   OH270369   0.860   2.642   1.829 -0.1381  0.1043  0.6901
16293TIP3    H170370   0.800   2.643   1.754 -0.7118  0.6745  1.1537
16293TIP3    H270371   0.844   2.724   1.874  1.5686  0.6400  0.3857
16294TIP3   OH270372   3.812   5.698  11.700 -0.5016  0.0042  0.0972
16294TIP3    H170373   3.861   5.721  11.779 -0.9463  0.5659  0.2161
16294TIP3    H270374   3.791   5.782  11.660 -0.9832 -0.2507 -0.1869
16295TIP3   OH270375   6.811   4.797   5.182 -0.0902  0.0621  0.1525
16295TIP3    H170376   6.801   4.704   5.165 -0.1160  0.2981 -1.2042
16295TIP3    H270377   6.845   4.802   5.272 -0.7877 -1.2084  0.5028
16296TIP3   OH270378   5.749   2.446  13.671  0.5686  0.1065 -0.1503
16296TIP3    H170379   5.804   2.371  13.696 -0.9209 -1.6548 -1.8188
16296TIP3    H270380   5.808   2.504  13.622  1.1543 -1.4150 -1.3263
16297TIP3   OH270381   4.693   2.925   4.376 -0.7220 -0.3075 -0.0376
16297TIP3    H170382   4.657   2.837   4.366  0.2164 -0.5339 -1.7860
16297TIP3    H270383   4.742   2.921   4.458 -1.0901 -1.2586  0.1532
16298TIP3   OH270384   5.015   3.902  13.516 -0.0188 -0.1533  0.5604
16298TIP3    H170385   4.940   3.960  13.501  0.7928  1.1940  1.4740
16298TIP3    H270386   5.014   3.842  13.441 -1.9924 -0.1835  0.5503
16299TIP3   OH270387   4.715   4.578  16.197 -0.3120 -0.2177 -0.6236
16299TIP3    H170388   4.705   4.645  16.129 -1.5910  0.2063 -0.0410
16299TIP3    H270389   4.626   4.552  16.219  0.0349  0.2436  1.4815
16300TIP3   OH270390   1.746   0.295   3.023  0.2771  0.9948  0.4281
16300TIP3    H170391   1.705   0.287   2.937  0.9505 -1.1566  0.2571
16300TIP3    H270392   1.740   0.389   3.044 -0.1303  1.5237 -1.8174
16301TIP3   OH270393   4.161   4.472  12.188 -0.1751  0.0269 -0.0734
16301TIP3    H170394   4.254   4.464  12.166 -0.5602 -1.3048 -1.3195
16301TIP3    H270395   4.146   4.404  12.253 -0.1234  0.8104  0.7948
16302TIP3   OH270396   2.417   5.455   3.850 -0.4404  0.4114 -0.3202
16302TIP3    H170397   2.449   5.492   3.768  0.7792  1.5934  0.6370
16302TIP3    H270398   2.422   5.527   3.912 -0.0688 -0.8029  1.1183
16303TIP3   OH270399   5.909   1.832   6.549  0.5769  0.5616 -0.2298
16303TIP3    H170400   5.906   1.751   6.601 -0.5709  1.3208  0.9369
16303TIP3    H270401   5.839   1.821   6.484  1.5039 -0.0535 -1.1652
16304TIP3   OH270402   6.592   3.074   3.385  0.2927  0.1369 -0.6593
16304TIP3    H170403   6.517   3.132   3.388  1.2562  1.3979 -0.2826
16304TIP3    H270404   6.598   3.038   3.474 -1.0058 -1.5246 -1.1852
16305TIP3   OH270405   0.371   3.435   1.751 -0.1908  0.0487 -0.5187
16305TIP3    H170406   0.445   3.456   1.808 -1.0463  0.3892  0.5186
16305TIP3    H270407   0.401   3.361   1.699  0.3770 -0.8193  0.9636
16306TIP3   OH270408   2.520   3.260  13.945  0.0492  0.3036 -0.4611
16306TIP3    H170409   2.506   3.299  13.858  2.9115  2.0304 -0.2837
16306TIP3    H270410   2.471   3.178  13.942 -0.7089  0.7222 -3.3669
16307TIP3   OH270411   3.119   1.961  15.437 -0.4846  0.1065 -0.0232
16307TIP3    H170412   3.046   1.948  15.376 -0.0363 -1.3241 -0.2905
16307TIP3    H270413   3.191   1.912  15.399  0.4430  0.9779  0.5777
16308TIP3   OH270414   0.750   6.634  13.958  0.0647 -0.2382 -0.0116
16308TIP3    H170415   0.688   6.705  13.978  0.5633  0.1636  0.1352
16308TIP3    H270416   0.701   6.554  13.975 -0.7934  0.0513 -1.0159
16309TIP3   OH270417   3.400   2.903  15.508 -0.3088  0.3957  0.2771
16309TIP3    H170418   3.313   2.943  15.498  0.2683  1.1579 -2.4903
16309TIP3    H270419   3.459   2.977  15.522 -0.0518 -0.1315  2.3204
16310TIP3   OH270420   6.732   4.708   0.753 -0.1574 -0.3085  0.4277
16310TIP3    H170421   6.723   4.800   0.776  0.3772 -0.6036  1.9448
16310TIP3    H270422   6.826   4.692   0.754 -0.1517 -0.5383 -1.3030
16311TIP3   OH270423   6.433   4.541  17.015  0.4978 -0.4188 -0.3673
16311TIP3    H170424   6.500   4.606  17.036  0.7143 -1.0798  1.0973
16311TIP3    H270425   6.378   4.537  17.094 -0.4046 -0.9370 -1.0035
16312TIP3   OH270426   6.484   3.362  17.121 -0.4887 -0.1027  0.1728
16312TIP3    H170427   6.566   3.340  17.075 -0.4931 -2.6016  1.1764
16312TIP3    H270428   6.487   3.457  17.132  2.5368 -0.1432  0.5895
16313TIP3   OH270429   4.955   5.686  13.185  0.0199 -0.1211  0.0670
16313TIP3    H170430   4.992   5.627  13.119 -1.4703 -0.8664 -0.1409
16313TIP3    H270431   5.024   5.751  13.201  0.7786 -0.5096 -1.4847
16314TIP3   OH270432   1.799   3.097   0.772  0.3405 -0.1550 -0.1050
16314TIP3    H170433   1.814   3.123   0.681  0.2580  0.4258  0.0492
16314TIP3    H270434   1.825   3.173   0.824  0.6055 -0.5638  0.3720
16315TIP3   OH270435   5.002   2.944   5.628 -0.3255 -0.5777  0.0480
16315TIP3    H170436   5.040   2.871   5.678 -0.9970 -0.6429  0.4672
16315TIP3    H270437   5.015   2.920   5.536  0.0025 -0.9342  0.1863
16316TIP3   OH270438   1.665   6.063  14.831  0.3255 -0.8503 -0.2344
16316TIP3    H170439   1.631   6.058  14.921  0.6044 -1.3234 -0.1553
16316TIP3    H270440   1.638   5.981  14.790 -0.1609 -0.4583 -0.7185
16317TIP3   OH270441   5.840   0.081   3.701 -0.2234  0.4771  0.4031
16317TIP3    H170442   5.869   0.164   3.738 -2.4180  1.2052  0.6167
16317TIP3    H270443   5.769   0.104   3.642 -0.1462 -1.1608 -0.3914
16318TIP3   OH270444   5.976   3.599  13.689 -0.4847  0.7301 -0.1890
16318TIP3    H170445   5.903   3.633  13.740 -0.6169  0.9494 -0.5188
16318TIP3    H270446   6.040   3.671  13.687  0.4183  0.0157  1.3837
16319TIP3   OH270447   6.699   4.616   4.458  0.2911  0.0442 -0.3158
16319TIP3    H170448   6.745   4.669   4.523  1.0041 -1.0542  0.0909
16319TIP3    H270449   6.690   4.674   4.382  1.2039  0.6909  0.0537
16320TIP3   OH270450   2.052   6.249   0.325 -0.3377  0.3511  0.4475
16320TIP3    H170451   2.055   6.274   0.418 -0.0742  2.3765 -0.0641
16320TIP3    H270452   2.069   6.155   0.326  0.9763  0.5350  2.3683
16321TIP3   OH270453   3.564   0.812   4.100 -0.0086  0.1956  0.0243
16321TIP3    H170454   3.649   0.829   4.060 -0.8631  0.2552 -1.8782
16321TIP3    H270455   3.529   0.899   4.120  0.2018  0.1894  0.4197
16322TIP3   OH270456   4.071   5.499   5.387  0.4890  0.3269 -0.2257
16322TIP3    H170457   4.081   5.530   5.477  0.5476 -0.6438  0.1090
16322TIP3    H270458   3.978   5.507   5.370  0.2713 -0.7475  0.3962
16323TIP3   OH270459   0.979   2.942  15.392 -0.0283  0.0206 -0.0533
16323TIP3    H170460   1.016   2.903  15.313 -1.2008  2.6914 -2.0501
16323TIP3    H270461   1.050   2.993  15.430  0.2625 -0.4788  0.0816
16324TIP3   OH270462   0.740   1.974   1.957 -0.0883 -0.2481 -0.0349
16324TIP3    H170463   0.795   1.927   2.019  0.0704  0.2544  0.2094
16324TIP3    H270464   0.781   2.060   1.949 -0.3417 -0.1700 -0.5221
16325TIP3   OH270465   0.828   5.826   2.624 -0.3961  0.3009  0.0716
16325TIP3    H170466   0.816   5.768   2.699  1.2532 -0.5534 -0.2823
16325TIP3    H270467   0.839   5.913   2.663 -1.3848  0.1663  0.6907
16326TIP3   OH270468   1.670   1.282   3.879 -0.7652 -0.3377 -0.3600
16326TIP3    H170469   1.670   1.344   3.952 -0.5858  0.6301 -1.1589
16326TIP3    H270470   1.617   1.209   3.910  1.7807 -1.3986  1.9063
16327TIP3   OH270471   0.565   2.957  11.908  0.3343  0.9077 -0.1387
16327TIP3    H170472   0.492   2.945  11.848  2.2178  0.6020 -2.5493
16327TIP3    H270473   0.621   3.022  11.866  2.5939 -0.5860  0.3416
16328TIP3   OH270474   6.027   3.345  12.334  0.5056 -1.1358  0.0295
16328TIP3    H170475   5.964   3.277  12.309  1.3133 -1.0809 -2.4267
16328TIP3    H270476   5.976   3.407  12.386 -1.8605 -0.4736 -2.8110
16329TIP3   OH270477   2.313   2.721   0.338 -0.1718  0.2567  0.2695
16329TIP3    H170478   2.340   2.797   0.389  1.3083 -1.3997  2.1211
16329TIP3    H270479   2.343   2.740   0.250  0.7264  1.5479  0.8135
16330TIP3   OH270480   0.171   1.526  13.300  0.4005 -0.1585  0.7862
16330TIP3    H170481   0.180   1.558  13.390  1.4613 -1.4320  1.1583
16330TIP3    H270482   0.106   1.456  13.307  0.3590 -0.1461  0.5153
16331TIP3   OH270483   3.745   3.437   3.906  0.3776 -0.0629  0.1327
16331TIP3    H170484   3.816   3.446   3.970  1.4258  0.2602 -1.0341
16331TIP3    H270485   3.736   3.343   3.893  1.6102 -0.0842 -0.7643
16332TIP3   OH270486   0.166   0.646  12.223  0.1431  0.3420  0.4903
16332TIP3    H170487   0.215   0.607  12.151 -0.0750  0.5836  0.2100
16332TIP3    H270488   0.081   0.603  12.220  0.8294 -1.2575  1.9666
16333TIP3   OH270489   3.038   6.445  12.411 -0.0703  0.1825  0.0321
16333TIP3    H170490   3.004   6.519  12.361 -2.5455  1.3648  3.0650
16333TIP3    H270491   2.960   6.392  12.431  0.9356 -0.8226  1.5774
16334TIP3   OH270492   1.870   0.060  14.789  0.3954 -0.4020  1.4002
16334TIP3    H170493   1.789   0.075  14.839 -1.3748 -2.4715 -0.6572
16334TIP3    H270494   1.881   0.140  14.738 -1.4385 -0.7582  0.3563
16335TIP3   OH270495   0.402   0.032   3.839  0.0545  0.0368 -0.0106
16335TIP3    H170496   0.493   0.031   3.868  0.0851 -1.8362 -0.0835
16335TIP3    H270497   0.359   0.095   3.897  1.3719  0.9949 -0.0149
16336TIP3   OH270498   6.234   1.962  13.103 -0.3891  0.0494 -0.4385
16336TIP3    H170499   6.298   2.034  13.109 -0.5382  0.3131 -1.7316
16336TIP3    H270500   6.281   1.886  13.136 -0.5109  0.8783  1.8248
16337TIP3   OH270501   0.501   2.314  16.134 -0.0071  0.1817  0.0133
16337TIP3    H170502   0.457   2.392  16.100  0.4210  0.5762  0.3446
16337TIP3    H270503   0.431   2.252  16.151 -0.2945  0.2294 -0.9311
16338TIP3   OH270504   4.706   0.283   4.463 -0.2130 -0.0885 -0.5969
16338TIP3    H170505   4.729   0.211   4.404 -0.3160 -0.6799  0.0727
16338TIP3    H270506   4.612   0.276   4.474 -0.1342 -0.2624 -0.0061
16339TIP3   OH270507   2.363   3.071   4.198  0.0349 -0.3627 -0.5205
16339TIP3    H170508   2.378   2.987   4.154  0.3098 -0.4364 -0.2975
16339TIP3    H270509   2.364   3.136   4.128 -2.7474 -0.7757 -1.0501
16340TIP3   OH270510   4.687   3.631  16.673  0.3454  0.1789  0.0323
16340TIP3    H170511   4.725   3.637  16.761  0.2002  0.3826  0.0832
16340TIP3    H270512   4.762   3.636  16.614  0.3445  1.5179  0.1004
16341TIP3   OH270513   0.127   6.067  13.725 -0.2710  0.1820  0.0537
16341TIP3    H170514   0.088   5.980  13.724  2.5553 -1.3424  3.1420
16341TIP3    H270515   0.083   6.112  13.796  1.6253 -0.6779  1.8916
16342TIP3   OH270516   4.084   2.437  17.114  0.6164  0.1620 -0.6533
16342TIP3    H170517   4.129   2.451  17.031  1.7121 -1.6737 -0.4099
16342TIP3    H270518   4.149   2.459  17.181  0.5488 -0.7051 -0.2928
16343TIP3   OH270519   0.967   6.081  12.879 -0.1306  0.4635 -0.0818
16343TIP3    H170520   1.052   6.122  12.864  0.7177 -1.2024  0.0014
16343TIP3    H270521   0.977   6.032  12.961 -1.0617 -0.0137 -0.2330
16344TIP3   OH270522   6.136   1.476   5.311  0.0560 -0.0878  0.5004
16344TIP3    H170523   6.109   1.400   5.261  0.3712 -0.1558  0.4344
16344TIP3    H270524   6.078   1.547   5.281  0.6541  0.0222 -0.4000
16345TIP3   OH270525   0.502   0.655  14.659  0.5530  0.2923  0.2348
16345TIP3    H170526   0.469   0.735  14.618  0.5428  0.3332  0.3229
16345TIP3    H270527   0.568   0.686  14.721  1.2185  0.1711 -0.3986
16346TIP3   OH270528   4.443   5.967  11.329  0.5638  0.2357 -0.4588
16346TIP3    H170529   4.352   5.989  11.347  0.3738 -0.7768 -0.1131
16346TIP3    H270530   4.472   5.918  11.406  1.4676  0.7214 -0.4734
16347TIP3   OH270531   3.229   5.413   2.310 -0.3123 -0.3652  0.0219
16347TIP3    H170532   3.305   5.454   2.349  1.0960 -2.5010 -0.3309
16347TIP3    H270533   3.210   5.467   2.232  1.4068 -0.3151 -0.3906
16348TIP3   OH270534   3.277   0.997  14.402 -0.1731  0.4549 -0.3388
16348TIP3    H170535   3.296   1.044  14.483  1.1177 -0.3425 -0.1508
16348TIP3    H270536   3.335   1.037  14.337 -0.1456  0.1229 -0.5200
16349TIP3   OH270537   6.408   0.730   2.177  0.0934  0.0503 -0.0592
16349TIP3    H170538   6.344   0.705   2.111  0.2172  0.1407 -0.2119
16349TIP3    H270539   6.417   0.652   2.232 -1.1034  0.4497  0.7372
16350TIP3   OH270540   4.058   2.111  13.748 -0.6252  0.3065 -0.4162
16350TIP3    H170541   3.975   2.066  13.733  0.0994 -0.7331 -1.4758
16350TIP3    H270542   4.053   2.141  13.839 -2.3022  0.6014 -0.5791
16351TIP3   OH270543   5.802   2.254   3.110  0.4856 -0.9110  0.2634
16351TIP3    H170544   5.780   2.288   3.196  1.6681 -0.4993  0.4196
16351TIP3    H270545   5.784   2.160   3.116  2.2312 -1.1956  1.5460
16352TIP3   OH270546   4.287   3.830   3.471  0.3878  0.3632  0.1814
16352TIP3    H170547   4.374   3.836   3.432  1.4332 -0.1610  2.3258
16352TIP3    H270548   4.292   3.880   3.552 -1.2040  0.0246  0.5355
16353TIP3   OH270549   2.481   4.181   6.245  0.0822  0.5945 -0.3210
16353TIP3    H170550   2.485   4.269   6.208 -0.0566  0.2191 -1.2576
16353TIP3    H270551   2.567   4.168   6.286 -0.6560  1.9843  1.8311
16354TIP3   OH270552   4.743   0.364   2.807 -0.0316  0.0527 -0.0082
16354TIP3    H170553   4.688   0.344   2.731  0.3591  0.8944 -0.5139
16354TIP3    H270554   4.681   0.367   2.880 -0.8984  2.2543 -0.7624
16355TIP3   OH270555   4.909   3.511  12.263  0.6924 -0.2194 -0.2001
16355TIP3    H170556   4.830   3.490  12.213 -2.4394  1.1472  3.6340
16355TIP3    H270557   4.931   3.430  12.308  0.4163 -0.1860 -0.0015
16356TIP3   OH270558   1.401   1.797   3.564  0.1417  0.3313  0.2478
16356TIP3    H170559   1.311   1.793   3.534  0.4788  0.9363 -0.8807
16356TIP3    H270560   1.404   1.737   3.639 -0.6924 -1.3364 -0.9908
16357TIP3   OH270561   0.247   5.317   4.155 -0.1640  0.6908 -0.1023
16357TIP3    H170562   0.199   5.272   4.225  1.4636 -0.1959  0.4832
16357TIP3    H270563   0.323   5.355   4.198  1.7731 -1.2330 -1.5763
16358TIP3   OH270564   3.701   4.339   0.077 -0.2163 -0.0726 -0.4214
16358TIP3    H170565   3.694   4.301   0.164  1.2602  1.3112  0.3515
16358TIP3    H270566   3.789   4.378   0.074 -0.9672  1.6574 -1.7941
16359TIP3   OH270567   5.689   1.742  13.538  0.3314  0.2862  0.0462
16359TIP3    H170568   5.754   1.791  13.488  1.1921 -0.6394  0.2083
16359TIP3    H270569   5.632   1.703  13.472 -0.2989  1.3954 -0.0863
16360TIP3   OH270570   4.489   0.734  17.187 -0.4868  0.6311  0.8009
16360TIP3    H170571   4.511   0.684  17.265  0.8675  1.3319  0.8860
16360TIP3    H270572   4.540   0.694  17.117  1.2185  2.3300  1.0187
16361TIP3   OH270573   2.846   3.680  12.080  0.1142  0.1884  0.2011
16361TIP3    H170574   2.883   3.609  12.133  1.2439 -0.6027 -1.5766
16361TIP3    H270575   2.777   3.638  12.028 -0.5260  0.8191  0.5085
16362TIP3   OH270576   0.976   0.437   5.316 -0.1099 -0.0992 -0.4900
16362TIP3    H170577   0.930   0.507   5.361  1.7263  2.1727 -1.9240
16362TIP3    H270578   1.021   0.389   5.385 -0.2290  1.0359  0.3918
16363TIP3   OH270579   4.615   2.096  13.717  0.1035 -0.3471  0.0468
16363TIP3    H170580   4.702   2.134  13.731 -0.5888  0.8244  1.3357
16363TIP3    H270581   4.617   2.013  13.765  0.7139 -0.6658 -0.5023
16364TIP3   OH270582   1.671   0.079  15.419 -0.2079 -0.0449  0.2767
16364TIP3    H170583   1.744   0.087  15.480  0.7222 -0.2695 -0.7812
16364TIP3    H270584   1.595   0.107  15.470  0.7942  1.4744  1.0245
16365TIP3   OH270585   6.293   3.594  14.582  0.2318 -0.0047  0.0370
16365TIP3    H170586   6.355   3.644  14.528 -0.8280 -1.3417 -2.6326
16365TIP3    H270587   6.218   3.651  14.591  1.1985  1.0583  2.0604
16366TIP3   OH270588   6.401   4.093   1.136  0.1999  0.1085  0.3189
16366TIP3    H170589   6.491   4.124   1.130  0.6270 -0.9614  0.9148
16366TIP3    H270590   6.394   4.054   1.223 -1.7427  2.8685  1.5227
16367TIP3   OH270591   3.778   3.882   5.511 -0.2854 -0.5944  0.6352
16367TIP3    H170592   3.843   3.850   5.574  0.1639 -1.9281 -0.4439
16367TIP3    H270593   3.792   3.827   5.434  0.6895  2.3622 -1.4634
16368TIP3   OH270594   3.753   0.390   5.787  0.1780 -0.5820 -0.2036
16368TIP3    H170595   3.747   0.439   5.869  2.6161  0.2332 -0.4552
16368TIP3    H270596   3.785   0.303   5.812 -2.2474 -1.5207  0.0019
16369TIP3   OH270597   5.768   2.382  11.088 -0.1069  0.3139  0.1870
16369TIP3    H170598   5.789   2.317  11.021  0.9019  1.2295 -0.4173
16369TIP3    H270599   5.766   2.466  11.040 -1.0077  0.7735  1.0108
16370TIP3   OH270600   2.022   3.798   2.613  0.3936 -0.0211 -0.4257
16370TIP3    H170601   1.980   3.798   2.698  0.3660 -1.6021 -0.4217
16370TIP3    H270602   1.960   3.754   2.555  0.8421  0.1303 -1.0343
16371TIP3   OH270603   2.663   3.835  15.304 -0.0574 -0.3531  0.2315
16371TIP3    H170604   2.740   3.888  15.326 -1.0272  1.6069 -0.7643
16371TIP3    H270605   2.595   3.867  15.363 -0.3111 -1.5484  0.6017
16372TIP3   OH270606   2.191   0.018  11.880  0.9201 -0.0816  0.2066
16372TIP3    H170607   2.194  -0.051  11.947 -0.1203 -0.9471 -0.5991
16372TIP3    H270608   2.235  -0.021  11.804 -0.8626 -0.4236 -0.7123
16373TIP3   OH270609   2.663   3.715   2.157  0.1757  0.5642  0.4540
16373TIP3    H170610   2.713   3.665   2.092 -2.5972 -2.1411  0.1838
16373TIP3    H270611   2.688   3.676   2.241  0.0104  0.5926  0.5160
16374TIP3   OH270612   0.527   5.295   2.777 -0.5046 -0.2204 -0.5540
16374TIP3    H170613   0.600   5.251   2.820 -0.7988 -2.3942 -2.0940
16374TIP3    H270614   0.515   5.376   2.826  1.8875 -0.5537  0.7206
16375TIP3   OH270615   6.513   4.758   0.087 -0.0221 -0.0142  0.6558
16375TIP3    H170616   6.496   4.779   0.179  1.3859 -0.3445  1.0110
16375TIP3    H270617   6.553   4.672   0.089  0.9103  0.3873 -0.1820
16376TIP3   OH270618   0.411   5.695  12.555 -0.2341 -0.1930 -0.5047
16376TIP3    H170619   0.436   5.729  12.641 -1.0174 -1.7024  0.3618
16376TIP3    H270620   0.341   5.632  12.573  0.1275 -1.1393 -2.1638
16377TIP3   OH270621   0.715   1.546   2.257  0.0858  0.2822  0.5090
16377TIP3    H170622   0.683   1.476   2.314 -1.4614  1.4032  1.0843
16377TIP3    H270623   0.658   1.621   2.276  1.8964  1.8348  0.1791
16378TIP3   OH270624   0.668   3.364   5.235 -0.0559 -0.2316  0.0635
16378TIP3    H170625   0.713   3.284   5.207 -1.1282 -0.3002 -1.5873
16378TIP3    H270626   0.738   3.428   5.245  0.4847 -0.3325 -2.4478
16379TIP3   OH270627   6.273   3.820   0.494 -0.3501  0.0255 -0.8237
16379TIP3    H170628   6.362   3.831   0.529 -0.3661  5.0142 -1.6572
16379TIP3    H270629   6.215   3.845   0.566 -0.8229  0.7758 -1.4456
16380TIP3   OH270630   2.914   4.567  11.129  0.1029 -0.7522 -0.5120
16380TIP3    H170631   3.010   4.565  11.134  0.2880 -0.6511 -2.7774
16380TIP3    H270632   2.885   4.513  11.202  1.8084  0.7905  1.4117
16381TIP3   OH270633   2.780   5.959   4.145  0.5053 -0.0041 -0.2847
16381TIP3    H170634   2.813   5.978   4.233  2.0586 -0.3035 -0.7807
16381TIP3    H270635   2.777   6.045   4.102 -1.2183  0.2916  0.3366
16382TIP3   OH270636   1.911   1.244  11.211 -0.0279 -0.4075 -0.2523
16382TIP3    H170637   1.872   1.265  11.296  0.4242 -2.2230  0.4629
16382TIP3    H270638   1.838   1.246  11.149 -0.2784  1.3815  0.0669
16383TIP3   OH270639   4.038   5.546  13.007 -0.1686 -0.5036 -0.1055
16383TIP3    H170640   3.948   5.519  13.027 -0.8406  1.1412 -0.7316
16383TIP3    H270641   4.066   5.595  13.084  0.2843 -1.1948  0.1764
16384TIP3   OH270642   1.483   5.185  12.195 -0.3396  0.1305 -0.6839
16384TIP3    H170643   1.417   5.207  12.261 -0.9475 -0.2522 -1.1522
16384TIP3    H270644   1.538   5.263  12.190  0.1244 -0.0811  0.7459
16385TIP3   OH270645   0.072   2.102  13.445 -0.1024 -0.1682  0.4196
16385TIP3    H170646   0.041   2.173  13.500 -0.2115 -0.3543  0.6023
16385TIP3    H270647   0.000   2.038  13.446 -0.2839  0.0134 -0.2830
16386TIP3   OH270648   0.747   6.493   5.436  0.2689  0.0170 -0.1930
16386TIP3    H170649   0.706   6.448   5.510 -1.3155  0.2268 -0.8998
16386TIP3    H270650   0.803   6.426   5.397  1.8186  0.1450  1.6483
16387TIP3   OH270651   2.193   0.322   0.865  0.1120 -0.1876 -0.6136
16387TIP3    H170652   2.245   0.300   0.941 -1.2750 -1.0693  0.1188
16387TIP3    H270653   2.109   0.352   0.901 -0.4283 -0.2507 -1.7679
16388TIP3   OH270654   3.338   1.569   2.277 -0.0096  0.1485 -0.2461
16388TIP3    H170655   3.311   1.636   2.213 -0.2106  0.2299 -0.0773
16388TIP3    H270656   3.307   1.487   2.238  1.8623 -0.0836 -1.3637
16389TIP3   OH270657   2.152   4.186   0.579 -0.3075 -0.9016 -0.1797
16389TIP3    H170658   2.216   4.136   0.529  0.2942 -3.7884  3.1002
16389TIP3    H270659   2.204   4.247   0.632 -0.1522 -2.7109  1.9101
16390TIP3   OH270660   6.293   5.177  14.236  0.5347  0.0816 -0.5211
16390TIP3    H170661   6.360   5.111  14.219  1.6384  0.8904  0.5199
16390TIP3    H270662   6.338   5.261  14.224 -0.1641  0.6421  0.6274
16391TIP3   OH270663   3.344   4.375  11.826 -0.5420 -0.2607  0.6161
16391TIP3    H170664   3.351   4.452  11.882 -0.4440  0.4368 -0.3385
16391TIP3    H270665   3.261   4.335  11.850  0.0668 -0.6964  2.1363
16392TIP3   OH270666   1.781   1.317  11.452  0.2436 -0.4984 -0.0130
16392TIP3    H170667   1.787   1.256  11.526  1.7813  0.0572  0.3593
16392TIP3    H270668   1.750   1.399  11.491  0.3691 -0.4058 -0.1082
16393TIP3   OH270669   4.165   6.778  14.880  0.0887  0.2896  0.5723
16393TIP3    H170670   4.157   6.867  14.916 -0.4948  0.4911 -0.0509
16393TIP3    H270671   4.240   6.741  14.927  1.4842  1.7209 -0.3724
16394TIP3   OH270672   6.450   1.791   2.620 -0.3301  0.1899 -0.5399
16394TIP3    H170673   6.542   1.781   2.645 -0.6533 -0.4306  0.4440
16394TIP3    H270674   6.450   1.861   2.554  0.7778  0.5364 -0.1827
16395TIP3   OH270675   3.714   1.717   1.680  0.1474  0.0214  0.3220
16395TIP3    H170676   3.632   1.672   1.657 -1.2675  1.6439  1.8717
16395TIP3    H270677   3.754   1.739   1.596 -0.8239 -1.1110 -0.4701
16396TIP3   OH270678   0.134   0.298   4.828  0.2144 -0.2388  0.0289
16396TIP3    H170679   0.160   0.363   4.893 -0.0191  0.6836 -0.7688
16396TIP3    H270680   0.042   0.319   4.809  0.1151 -0.8510 -0.1823
16397TIP3   OH270681   5.423   3.374   5.373 -0.1500  0.3149  0.5966
16397TIP3    H170682   5.331   3.395   5.355 -0.0373 -0.7245 -1.5124
16397TIP3    H270683   5.419   3.293   5.425 -0.4963 -1.3801 -1.8722
16398TIP3   OH270684   0.402   0.120   4.225 -0.0225 -0.5682  0.5776
16398TIP3    H170685   0.386   0.183   4.155 -0.4280 -0.9397  0.3343
16398TIP3    H270686   0.491   0.141   4.255 -0.9271  1.5725  2.0057
16399TIP3   OH270687   3.568   4.342   1.338 -0.2326 -0.3998 -0.3079
16399TIP3    H170688   3.506   4.319   1.408 -1.0509  1.1738 -0.4759
16399TIP3    H270689   3.639   4.278   1.348 -0.1749 -0.0696  2.1604
16400TIP3   OH270690   2.836   3.593  13.492  0.5187 -0.0733 -0.7961
16400TIP3    H170691   2.854   3.664  13.431  0.6405 -1.0204 -1.8781
16400TIP3    H270692   2.816   3.518  13.437 -0.2914 -0.7188  0.3323
16401TIP3   OH270693   3.253   3.276   4.505 -0.5103 -0.2163 -0.1595
16401TIP3    H170694   3.251   3.182   4.526  0.9371  0.2220  2.4747
16401TIP3    H270695   3.166   3.295   4.471 -1.2064 -2.3102  0.2653
16402TIP3   OH270696   1.304   5.745  14.999 -0.5942  0.0203  0.1420
16402TIP3    H170697   1.338   5.698  15.075  0.9848  0.0415 -0.5009
16402TIP3    H270698   1.213   5.716  14.991 -0.2935 -1.2593  1.0503
16403TIP3   OH270699   4.574   4.326  13.583 -0.1964  0.3037  0.3160
16403TIP3    H170700   4.532   4.384  13.520  0.1238 -0.0612 -0.2378
16403TIP3    H270701   4.666   4.355  13.585  0.0045 -0.2965 -0.0987
16404TIP3   OH270702   3.993   0.159   3.955  0.0365  0.1163  0.2037
16404TIP3    H170703   4.030   0.212   4.026  0.2535  0.4521 -0.1585
16404TIP3    H270704   3.941   0.093   4.000 -2.7147  2.3849  0.6450
16405TIP3   OH270705   1.049   0.382  16.795  0.5557  0.1619  0.5630
16405TIP3    H170706   1.056   0.476  16.785 -0.0460  0.2129  0.5494
16405TIP3    H270707   1.139   0.351  16.801  0.7737  0.6649 -0.0649
16406TIP3   OH270708   2.646   1.252   3.046  0.0591  0.5649 -0.8195
16406TIP3    H170709   2.645   1.302   3.127  1.0358  1.1409 -1.1510
16406TIP3    H270710   2.694   1.172   3.068 -1.9363 -0.5206 -0.1536
16407TIP3   OH270711   4.823   5.237  14.911  0.2418 -0.2562 -0.0284
16407TIP3    H170712   4.818   5.219  14.817 -2.2541  0.8066 -0.1631
16407TIP3    H270713   4.806   5.152  14.952  0.3237 -0.5216 -0.5361
16408TIP3   OH270714   3.396   3.991  16.318  0.2353  0.2650 -0.6554
16408TIP3    H170715   3.333   4.028  16.256 -1.9639  1.4131  2.0267
16408TIP3    H270716   3.437   4.067  16.359  1.6040 -0.4629 -0.5914
16409TIP3   OH270717   3.086   6.272  15.865  0.3506 -0.2940  0.2108
16409TIP3    H170718   3.109   6.270  15.772  1.5652  0.2444  0.4914
16409TIP3    H270719   3.019   6.340  15.872  0.4021 -0.1977 -0.2386
16410TIP3   OH270720   4.368   2.398  14.943 -0.0183 -0.4079 -0.1912
16410TIP3    H170721   4.310   2.463  14.982 -0.8581 -1.5248  0.4778
16410TIP3    H270722   4.319   2.316  14.949  0.2690 -0.8476 -2.5766
16411TIP3   OH270723   3.732   2.521   6.297 -0.1599 -0.1633 -0.0461
16411TIP3    H170724   3.664   2.571   6.250  0.2629 -0.1661 -0.6744
16411TIP3    H270725   3.687   2.442   6.327 -1.1315  1.0409  1.8992
16412TIP3   OH270726   6.091   3.233  12.686 -0.1360 -0.3880 -0.4839
16412TIP3    H170727   6.140   3.232  12.604  0.2275 -0.6749 -0.2683
16412TIP3    H270728   6.075   3.140  12.706 -0.0626 -0.3281 -0.1369
16413TIP3   OH270729   2.788   1.726  14.993 -0.6898 -0.2324  0.6077
16413TIP3    H170730   2.732   1.799  14.967 -0.9069  0.4136  2.7224
16413TIP3    H270731   2.727   1.658  15.022 -0.4419  0.2721  2.4066
16414TIP3   OH270732   1.350   4.410   3.204 -0.4059  0.0554  0.5003
16414TIP3    H170733   1.320   4.481   3.260  1.2035  0.0055  1.4871
16414TIP3    H270734   1.421   4.448   3.151 -0.9928 -0.2579 -0.5453
16415TIP3   OH270735   4.247   4.344  12.496  0.3651 -0.1001 -0.3538
16415TIP3    H170736   4.154   4.350  12.514  0.5160  1.3083  0.1016
16415TIP3    H270737   4.256   4.266  12.441 -1.1933  0.2422 -1.1546
16416TIP3   OH270738   4.883   5.349   2.123  0.4044 -0.0997  0.2980
16416TIP3    H170739   4.813   5.304   2.170 -0.0164  0.7625  0.5148
16416TIP3    H270740   4.838   5.406   2.061  0.9434 -0.6435 -0.6281
16417TIP3   OH270741   3.526   1.297  17.096  0.7209 -0.0613  0.3863
16417TIP3    H170742   3.471   1.251  17.159  1.5490  0.2685  1.3796
16417TIP3    H270743   3.580   1.229  17.056 -2.0997 -0.8295 -2.5282
16418TIP3   OH270744   4.171   6.458  15.300  0.2974  0.1492  0.0171
16418TIP3    H170745   4.266   6.445  15.301  0.3767  0.6420 -0.8415
16418TIP3    H270746   4.146   6.455  15.392  1.4137  1.9912  0.4185
16419TIP3   OH270747   2.712   6.385   0.401 -0.0382 -0.2003 -0.2356
16419TIP3    H170748   2.652   6.326   0.447  1.6514 -0.1761  2.2047
16419TIP3    H270749   2.656   6.437   0.344 -2.2696 -0.5850  1.4594
16420TIP3   OH270750   0.070   1.437  16.598  0.2591  0.1130 -0.2662
16420TIP3    H170751   0.018   1.511  16.567  0.1881 -0.4203 -1.4695
16420TIP3    H270752   0.087   1.384  16.520 -0.7761 -1.8347  0.7268
16421TIP3   OH270753   3.966   3.589   3.200 -0.1552  0.4579  0.9501
16421TIP3    H170754   3.874   3.575   3.176  0.3613 -1.9334  0.1597
16421TIP3    H270755   3.985   3.521   3.264  0.6028  2.0937  2.5479
16422TIP3   OH270756   4.153   5.545  14.989 -0.2606 -0.5669  0.6595
16422TIP3    H170757   4.176   5.638  14.992  0.6748 -0.7872  0.4989
16422TIP3    H270758   4.061   5.543  15.015 -0.1668  0.3572  1.1176
16423TIP3   OH270759   0.184   0.807  10.604  0.0046  0.1050  0.7459
16423TIP3    H170760   0.100   0.763  10.617 -0.0177  0.3805  1.6187
16423TIP3    H270761   0.200   0.802  10.510  0.0382 -1.8289  0.8235
16424TIP3   OH270762   2.639   2.738  16.795  0.0616  0.2585  0.0896
16424TIP3    H170763   2.547   2.763  16.783  0.4624  0.9409 -2.1686
16424TIP3    H270764   2.687   2.821  16.792  0.9925 -0.2811 -2.3478
16425TIP3   OH270765   5.986   0.790  16.277 -0.3462 -0.6087 -0.1282
16425TIP3    H170766   5.907   0.841  16.295  0.3709 -0.4181  3.3676
16425TIP3    H270767   6.058   0.851  16.294  0.5572 -1.3793 -1.0699
16426TIP3   OH270768   3.317   5.825   3.641  0.2939 -0.0463  0.2935
16426TIP3    H170769   3.362   5.896   3.596 -0.6129 -0.4515 -1.3302
16426TIP3    H270770   3.291   5.863   3.725  4.9246 -0.2299  2.1302
16427TIP3   OH270771   2.621   0.469  15.115 -0.1860  1.0744 -0.2884
16427TIP3    H170772   2.606   0.424  15.032 -1.4831 -1.5474  1.2219
16427TIP3    H270773   2.706   0.512  15.105 -0.2093  0.6643 -2.8508
16428TIP3   OH270774   4.441   3.536   4.226 -0.0419 -0.5645  0.3770
16428TIP3    H170775   4.394   3.517   4.145  0.6480  2.9370 -0.9994
16428TIP3    H270776   4.372   3.539   4.293 -1.1410 -0.0315 -0.7409
16429TIP3   OH270777   1.924   2.429  14.134  0.8962 -0.3797 -0.2597
16429TIP3    H170778   1.876   2.422  14.051 -0.3563 -1.6089  0.5246
16429TIP3    H270779   1.882   2.502  14.179  0.3347 -0.8848  0.0491
16430TIP3   OH270780   5.639   0.354   0.170 -0.4442 -0.1573 -0.0519
16430TIP3    H170781   5.603   0.265   0.168 -0.4567 -0.1720 -2.0403
16430TIP3    H270782   5.646   0.378   0.077 -1.8075  2.4655  0.4215
16431TIP3   OH270783   1.561   3.666   2.508 -0.1784  0.0026 -0.2451
16431TIP3    H170784   1.482   3.614   2.490  0.0479 -0.0763 -1.0833
16431TIP3    H270785   1.633   3.602   2.504 -0.1370 -0.1170  1.5071
16432TIP3   OH270786   4.244   6.054  16.593 -0.0241 -0.3122 -0.3571
16432TIP3    H170787   4.190   5.979  16.615 -0.2005 -0.3328 -0.8577
16432TIP3    H270788   4.302   6.024  16.523  0.7681 -0.3429  0.2908
16433TIP3   OH270789   6.248   3.240  16.332 -0.0718  0.0346  0.3276
16433TIP3    H170790   6.226   3.177  16.264  1.7535  0.7584 -1.0157
16433TIP3    H270791   6.163   3.272  16.363 -0.9845 -0.1377 -1.7980
16434TIP3   OH270792   6.767   6.301  17.147  0.5049 -0.2820  0.3093
16434TIP3    H170793   6.847   6.250  17.137  0.6831 -0.1792  1.1062
16434TIP3    H270794   6.727   6.268  17.228 -0.9068 -1.1883 -0.7199
16435TIP3   OH270795   2.301   2.440   3.165 -0.3450 -0.1722  0.3630
16435TIP3    H170796   2.314   2.382   3.241  1.5888  1.0932  1.0819
16435TIP3    H270797   2.354   2.401   3.096  1.4078  0.9654  1.0137
16436TIP3   OH270798   4.560   0.532   4.087 -0.2789  0.2436 -0.4202
16436TIP3    H170799   4.541   0.439   4.087 -0.5421  0.2680  1.3680
16436TIP3    H270800   4.566   0.556   4.180 -2.4279  2.4614 -0.7628
16437TIP3   OH270801   3.542   3.082  15.153  0.0163 -0.5251 -0.2695
16437TIP3    H170802   3.602   3.102  15.081 -0.1933  0.3885 -0.2040
16437TIP3    H270803   3.571   3.139  15.225 -0.1726 -0.9670  0.1607
16438TIP3   OH270804   3.430   2.202  17.211 -0.2254 -0.0057  0.3771
16438TIP3    H170805   3.460   2.155  17.133 -1.3347  1.1199 -0.7743
16438TIP3    H270806   3.497   2.184  17.277  0.3682 -1.5882 -0.6023
16439TIP3   OH270807   4.270   4.652  12.970  0.1760  0.4247 -0.4690
16439TIP3    H170808   4.273   4.599  12.890 -0.6286  0.1493 -0.3322
16439TIP3    H270809   4.355   4.695  12.974  0.6146 -0.3709 -0.9219
16440TIP3   OH270810   1.549   2.066  16.030 -0.0597  0.1057  0.4267
16440TIP3    H170811   1.533   1.984  16.076 -0.1851 -1.0057 -1.4670
16440TIP3    H270812   1.619   2.045  15.968  1.1317  1.9233  1.0646
16441TIP3   OH270813   3.745   1.417   2.962  0.1618  0.6186  0.8592
16441TIP3    H170814   3.705   1.331   2.964  1.2809  0.0049 -1.0336
16441TIP3    H270815   3.793   1.423   3.045 -1.2772  0.1470  1.7600
16442TIP3   OH270816   6.260   0.392  15.459 -0.2887  0.3248 -0.5853
16442TIP3    H170817   6.247   0.465  15.399 -0.4042  1.2460  0.5273
16442TIP3    H270818   6.206   0.321  15.423  0.6091  0.4379 -2.2284
16443TIP3   OH270819   5.390   0.133  12.293  0.2106 -0.4404 -0.4329
16443TIP3    H170820   5.473   0.181  12.297 -0.1084  0.0255  0.9627
16443TIP3    H270821   5.416   0.042  12.278  0.9989 -0.3444  0.2523
16444TIP3   OH270822   3.668   6.785   5.288  0.6724 -0.0402  0.9121
16444TIP3    H170823   3.746   6.730   5.280  0.1256 -0.5821 -1.1700
16444TIP3    H270824   3.651   6.788   5.383  1.0881 -2.9393  1.1892
16445TIP3   OH270825   1.447   1.886   5.914  0.1437 -0.1761 -0.4730
16445TIP3    H170826   1.372   1.889   5.973  0.8091 -2.4116  0.5985
16445TIP3    H270827   1.443   1.969   5.866  1.1991  3.3837  4.6796
16446TIP3   OH270828   4.594   2.256   2.604 -0.3864 -0.5202 -0.4532
16446TIP3    H170829   4.601   2.304   2.686  0.7163  1.9716 -1.8941
16446TIP3    H270830   4.611   2.165   2.627  1.0597  0.2746  1.8959
16447TIP3   OH270831   4.964   5.015  16.100 -0.5513  0.0134 -0.5220
16447TIP3    H170832   4.892   4.952  16.106 -1.9536  1.5750  0.0991
16447TIP3    H270833   4.951   5.058  16.016 -1.4553  1.4804  0.3126
16448TIP3   OH270834   2.004   2.198  14.717  0.2988  0.1855 -0.6673
16448TIP3    H170835   1.954   2.273  14.685  0.9772  0.5263 -0.9411
16448TIP3    H270836   1.938   2.138  14.752 -0.1819  1.4506  0.7131
16449TIP3   OH270837   0.924   4.614   5.412  0.9502 -0.3324  0.2614
16449TIP3    H170838   0.912   4.700   5.454  0.3432 -0.1649 -0.2399
16449TIP3    H270839   0.837   4.574   5.416  1.0609 -0.6142 -0.1749
16450TIP3   OH270840   3.473   1.423  10.456 -0.3095  0.3244 -0.4406
16450TIP3    H170841   3.547   1.482  10.445  0.7383 -1.1683 -1.9408
16450TIP3    H270842   3.396   1.479  10.444  0.5407  1.8552  0.8515
16451TIP3   OH270843   6.160   3.202   1.363  0.1038 -0.5503 -0.5027
16451TIP3    H170844   6.250   3.182   1.388  0.7264  0.7710 -1.4963
16451TIP3    H270845   6.106   3.139   1.411  1.5886 -1.7309 -0.3099
16452TIP3   OH270846   3.760   2.782   0.368 -0.3943 -0.1095  0.3862
16452TIP3    H170847   3.735   2.694   0.340 -2.5764  0.8824 -1.0519
16452TIP3    H270848   3.679   2.833   0.361 -0.0161  1.3283  4.3277
16453TIP3   OH270849   1.865   3.016   1.123  0.1938 -0.1079  0.1504
16453TIP3    H170850   1.918   3.083   1.167  1.0717  0.7269 -2.0642
16453TIP3    H270851   1.917   2.936   1.131  2.1786  0.8019 -2.4385
16454TIP3   OH270852   3.421   6.071  12.383  0.0090 -0.1323  0.1937
16454TIP3    H170853   3.365   6.025  12.446 -2.3885  1.3250 -0.7096
16454TIP3    H270854   3.402   6.164  12.398  0.9281  0.3295 -1.2865
16455TIP3   OH270855   4.537   5.565   0.229 -0.8071  0.4857 -0.0742
16455TIP3    H170856   4.509   5.490   0.280  0.1498 -0.4766 -0.9054
16455TIP3    H270857   4.627   5.544   0.203 -0.4538  1.9961 -0.1814
16456TIP3   OH270858   3.652   4.841  10.962 -0.1062  0.5411  0.0752
16456TIP3    H170859   3.686   4.872  10.878  0.6881 -0.8808 -0.1728
16456TIP3    H270860   3.596   4.911  10.993 -1.2537  0.7037 -2.1416
16457TIP3   OH270861   4.356   1.548  13.291 -1.0959  0.2477 -0.2898
16457TIP3    H170862   4.385   1.458  13.305 -1.0593  0.1310 -1.0511
16457TIP3    H270863   4.330   1.550  13.199 -0.4827  1.1796 -0.4521
16458TIP3   OH270864   5.632   0.219  14.348  0.2318 -0.1705 -0.4018
16458TIP3    H170865   5.630   0.139  14.295 -0.5278 -0.0189 -0.6227
16458TIP3    H270866   5.573   0.201  14.421 -0.9298  0.6048 -1.1041
16459TIP3   OH270867   5.359   0.216  15.150 -0.3644 -0.3805  0.0768
16459TIP3    H170868   5.411   0.266  15.088  0.3229 -0.3655  0.6470
16459TIP3    H270869   5.345   0.276  15.224 -1.3649 -0.3192 -0.1570
16460TIP3   OH270870   4.936   2.933   6.564 -0.0483  0.1771 -0.0443
16460TIP3    H170871   4.919   2.903   6.653 -0.0711  1.9997  0.6159
16460TIP3    H270872   5.030   2.955   6.563 -0.2427  1.0545 -0.1633
16461TIP3   OH270873   5.005   1.398  16.891  0.0639 -0.3669  0.0972
16461TIP3    H170874   4.937   1.357  16.837 -0.6498  0.7949  0.1016
16461TIP3    H270875   5.086   1.357  16.860 -0.5623 -1.3117 -0.3410
16462TIP3   OH270876   2.663   1.892   5.890 -0.1756 -0.8879 -0.1557
16462TIP3    H170877   2.714   1.966   5.857  0.3395 -1.4910 -0.7172
16462TIP3    H270878   2.691   1.883   5.981 -3.4311  2.4182  1.4532
16463TIP3   OH270879   4.732   3.402   6.115 -0.0550 -0.2957 -0.7941
16463TIP3    H170880   4.706   3.346   6.188  0.2857  2.3627  1.5401
16463TIP3    H270881   4.822   3.428   6.135 -0.6225  2.1137 -0.9726
16464TIP3   OH270882   5.785   1.405   5.072 -0.0996  0.7734 -0.3884
16464TIP3    H170883   5.709   1.457   5.099  0.4078  1.1006  0.4473
16464TIP3    H270884   5.748   1.321   5.045 -0.6119  0.1776  1.9507
16465TIP3   OH270885   2.428   0.722   5.219 -0.1693  0.2455 -0.2517
16465TIP3    H170886   2.453   0.737   5.310  0.3487 -0.7193 -0.2211
16465TIP3    H270887   2.359   0.656   5.223 -1.9083  1.9806 -0.4248
16466TIP3   OH270888   5.514   0.582  12.391 -0.0385 -0.0848 -0.2139
16466TIP3    H170889   5.516   0.524  12.468 -0.5673  0.3086  0.1035
16466TIP3    H270890   5.466   0.532  12.325  0.0513 -0.2550 -0.1517
16467TIP3   OH270891   3.074   5.888  14.299  0.1634 -0.1246  0.1795
16467TIP3    H170892   2.998   5.938  14.327 -1.7524 -2.2071 -0.9123
16467TIP3    H270893   3.148   5.930  14.341 -1.3797  2.9697  0.0744
16468TIP3   OH270894   5.288   2.277   0.543 -0.0929  0.3414  0.6113
16468TIP3    H170895   5.285   2.359   0.592  1.0146  0.3721  0.6619
16468TIP3    H270896   5.379   2.269   0.516 -0.2545 -0.7164  0.3290
16469TIP3   OH270897   2.060   2.577   3.213 -0.2346  0.5774  0.0927
16469TIP3    H170898   1.982   2.582   3.158 -0.0299  1.2513 -0.1581
16469TIP3    H270899   2.115   2.511   3.171 -0.0522  1.1296 -0.5699
16470TIP3   OH270900   3.474   5.165   4.081  0.1869 -0.1555  0.0205
16470TIP3    H170901   3.532   5.154   4.006  2.3069  1.1842  1.3545
16470TIP3    H270902   3.387   5.147   4.047  1.1760 -0.5270 -2.5077
16471TIP3   OH270903   3.948   2.883   1.390 -0.2917 -0.0177 -0.1619
16471TIP3    H170904   3.918   2.884   1.299  0.6742  1.0019 -0.4942
16471TIP3    H270905   3.913   2.965   1.427  0.2922  0.1403  0.0419
16472TIP3   OH270906   0.074   0.806  10.892  0.2558 -0.1539  0.1165
16472TIP3    H170907   0.027   0.879  10.932  0.5167  0.8541 -1.3336
16472TIP3    H270908   0.007   0.761  10.840  0.4050 -0.0908 -0.1304
16473TIP3   OH270909   1.248   6.678   3.155 -0.2221  0.2033 -0.0300
16473TIP3    H170910   1.210   6.599   3.117  0.8073  0.2647 -1.2533
16473TIP3    H270911   1.228   6.748   3.093  0.3199  0.5700  0.1987
16474TIP3   OH270912   4.980   3.984  13.890  0.0764 -0.2023 -0.1060
16474TIP3    H170913   5.022   4.033  13.961 -2.2543  0.1758  1.1234
16474TIP3    H270914   4.896   4.029  13.877  0.0233 -0.8742 -2.4501
16475TIP3   OH270915   2.314   2.378  11.832  0.6697 -0.2047  0.1159
16475TIP3    H170916   2.312   2.457  11.777  0.5617 -1.6657 -2.1239
16475TIP3    H270917   2.408   2.361  11.845  0.7056 -0.1671 -0.0886
16476TIP3   OH270918   3.944   1.283   2.716  0.0318  0.2337 -0.0288
16476TIP3    H170919   3.864   1.319   2.676  1.6140  4.4834  0.1291
16476TIP3    H270920   3.914   1.245   2.798 -1.8374  2.2880  0.3384
16477TIP3   OH270921   0.984   3.903   4.790 -0.1804  0.0724 -0.0911
16477TIP3    H170922   0.971   3.984   4.740 -0.1439 -0.2713 -0.6647
16477TIP3    H270923   0.936   3.836   4.741 -0.1154 -0.2773  0.3160
16478TIP3   OH270924   3.085   6.375   5.452  0.4523 -0.5663 -0.6316
16478TIP3    H170925   3.147   6.307   5.479  1.9116 -0.0209 -2.3404
16478TIP3    H270926   3.010   6.327   5.419  1.4715 -1.4111 -1.8337
16479TIP3   OH270927   3.938   4.648   1.365  0.4719 -0.2905 -0.4829
16479TIP3    H170928   3.869   4.655   1.299  0.3021 -2.0007 -0.5406
16479TIP3    H270929   3.972   4.559   1.354  0.4505 -0.6190  1.7058
16480TIP3   OH270930   4.489   0.843   2.792 -0.0280  0.2377  0.3860
16480TIP3    H170931   4.551   0.882   2.730  0.3840 -0.6405  0.2349
16480TIP3    H270932   4.439   0.918   2.825  1.4878  1.0402  0.9584
16481TIP3   OH270933   0.359   3.199   0.866 -0.1902  0.0077  0.3502
16481TIP3    H170934   0.424   3.130   0.849  0.4707  0.5136  0.7617
16481TIP3    H270935   0.280   3.169   0.820  0.2659 -0.7242  0.0133
16482TIP3   OH270936   5.259   0.314  17.161 -0.2470  0.2606 -0.1268
16482TIP3    H170937   5.274   0.265  17.242 -2.0982  2.5491  1.7417
16482TIP3    H270938   5.180   0.275  17.124 -2.6235  2.4871  2.1528
16483TIP3   OH270939   1.377   2.612  14.062  0.3493  0.2381  0.1095
16483TIP3    H170940   1.391   2.523  14.096 -1.5080  0.3201  1.2987
16483TIP3    H270941   1.322   2.599  13.985  1.4753  0.2890 -0.7271
16484TIP3   OH270942   3.305   2.673   3.045  0.3242 -0.9263  0.0933
16484TIP3    H170943   3.220   2.675   3.089 -0.0815  0.1308 -0.6897
16484TIP3    H270944   3.357   2.740   3.091 -0.0407  0.0530 -0.8749
16485TIP3   OH270945   1.647   2.923   6.132 -0.2119 -0.3289 -0.2854
16485TIP3    H170946   1.699   2.959   6.204 -0.5494 -0.4328  0.0114
16485TIP3    H270947   1.563   2.969   6.137 -0.3986 -0.6596 -0.3299
16486TIP3   OH270948   6.062   5.025  12.654  0.9337  0.1055  0.3301
16486TIP3    H170949   6.060   5.081  12.732 -0.4170 -1.4221  1.4404
16486TIP3    H270950   6.125   4.956  12.676 -0.1077 -0.8238  0.4557
16487TIP3   OH270951   5.551   5.763  11.187  0.0174 -0.5194  0.1172
16487TIP3    H170952   5.540   5.786  11.095  1.1616  0.3171  0.1710
16487TIP3    H270953   5.631   5.710  11.189  1.2827  1.3435  0.9002
16488TIP3   OH270954   3.899   1.203  13.742 -0.0055 -0.1288 -0.5149
16488TIP3    H170955   3.902   1.250  13.659 -1.3268 -0.0244 -0.5296
16488TIP3    H270956   3.832   1.136  13.729 -0.8099  0.3979  0.6996
16489TIP3   OH270957   5.636   0.594  12.819  0.0963 -0.5814 -0.2785
16489TIP3    H170958   5.728   0.565  12.820  0.0014 -0.9098 -0.7756
16489TIP3    H270959   5.593   0.539  12.884  0.6741  1.0433  1.5556
16490TIP3   OH270960   5.033   1.423   3.545 -0.1217 -0.0044 -0.0206
16490TIP3    H170961   5.071   1.508   3.569 -0.1294  0.5524 -1.8611
16490TIP3    H270962   4.977   1.401   3.619  1.9863  0.2325  1.7873
16491TIP3   OH270963   6.265   1.559  11.893  0.4926 -1.1756 -0.7016
16491TIP3    H170964   6.234   1.649  11.883  2.5486  0.2042  3.1690
16491TIP3    H270965   6.187   1.505  11.882 -1.1138  1.1816 -1.6427
16492TIP3   OH270966   5.260   3.766  12.441  0.3298 -0.5346  0.6709
16492TIP3    H170967   5.244   3.679  12.477 -1.2521 -1.1545 -1.3521
16492TIP3    H270968   5.240   3.758  12.348  3.0099  1.2932 -0.1894
16493TIP3   OH270969   2.861   5.658   2.970  0.0082 -0.1435 -0.3742
16493TIP3    H170970   2.915   5.593   2.925  2.8983  2.8709 -1.6912
16493TIP3    H270971   2.854   5.625   3.060  1.6161 -2.1133 -0.8902
16494TIP3   OH270972   2.626   1.848  14.053  0.5235  0.8252  0.0492
16494TIP3    H170973   2.705   1.902  14.053  0.3645  1.0861 -1.5104
16494TIP3    H270974   2.554   1.910  14.057  0.3034  0.8722 -2.8028
16495TIP3   OH270975   3.792   2.493   0.383  0.2960 -0.2522 -0.2886
16495TIP3    H170976   3.804   2.489   0.478  2.4990 -1.4384 -0.5419
16495TIP3    H270977   3.726   2.426   0.364 -1.6911  1.3699  0.5317
16496TIP3   OH270978   3.801   4.308   3.607  0.9226  0.1710 -0.3564
16496TIP3    H170979   3.723   4.271   3.566  0.0176  0.6089  0.9041
16496TIP3    H270980   3.799   4.401   3.582  1.3720  0.0709 -0.7900
16497TIP3   OH270981   0.108   0.890   5.220 -0.0083 -0.7660  0.2964
16497TIP3    H170982   0.046   0.821   5.199 -0.1716 -0.5271 -0.0230
16497TIP3    H270983   0.111   0.892   5.316 -0.6918 -0.6087  0.3228
16498TIP3   OH270984   5.504   0.762   6.401  0.5479 -0.6136 -1.2139
16498TIP3    H170985   5.425   0.743   6.352 -0.3014  0.6072 -0.3761
16498TIP3    H270986   5.509   0.857   6.404  1.0894 -0.6547  0.2273
16499TIP3   OH270987   2.332   1.405  14.565 -0.0745 -0.7901  0.1819
16499TIP3    H170988   2.407   1.348  14.552 -0.7893 -1.4865 -1.0396
16499TIP3    H270989   2.365   1.493  14.548  0.3886 -1.1279 -0.6816
16500TIP3   OH270990   0.195   6.373  13.794 -0.0658 -0.3556 -0.0368
16500TIP3    H170991   0.265   6.410  13.740  1.3715 -1.4826  0.9817
16500TIP3    H270992   0.158   6.303  13.740  1.4516 -1.5642  0.4513
16501TIP3   OH270993   0.819   4.544  14.996 -0.5594 -0.7837 -0.0806
16501TIP3    H170994   0.810   4.513  14.906 -0.7215  1.5180 -0.9141
16501TIP3    H270995   0.743   4.600  15.010  1.0485  1.4288  0.3513
16502TIP3   OH270996   6.702   3.915  11.649  0.0304  0.2140 -0.3170
16502TIP3    H170997   6.782   3.880  11.609 -0.2296  0.5858 -1.1888
16502TIP3    H270998   6.657   3.838  11.683  0.3830 -0.0909 -0.5307
16503TIP3   OH270999   1.726   6.711   5.040  0.7406  0.0304 -0.0649
16503TIP3    H171000   1.696   6.792   5.080  0.9616 -0.2181  0.6205
16503TIP3    H271001   1.795   6.679   5.099 -0.6081 -1.6175  0.6915
16504TIP3   OH271002   1.075   0.378   1.244  0.6567  0.2096  0.6425
16504TIP3    H171003   1.078   0.472   1.226 -1.4958  0.1009 -0.5904
16504TIP3    H271004   1.041   0.340   1.163  0.2337 -1.4906  1.5939
16505TIP3   OH271005   3.529   1.617  10.790 -0.0670  0.4039  0.2607
16505TIP3    H171006   3.442   1.652  10.771  0.4384  1.4287 -0.2548
16505TIP3    H271007   3.581   1.640  10.713  0.3218 -1.4404 -0.0643
16506TIP3   OH271008   2.682   3.531  14.236  0.7479 -0.2977  0.2543
16506TIP3    H171009   2.647   3.600  14.179  0.6913 -1.9566 -1.8308
16506TIP3    H271010   2.674   3.567  14.325 -1.1447  1.5577 -0.5836
16507TIP3   OH271011   6.385   4.020  11.612 -0.8039 -0.5899 -0.6264
16507TIP3    H171012   6.388   3.942  11.556 -0.5663 -1.5577  0.6781
16507TIP3    H271013   6.316   4.000  11.676  0.1433 -0.3104  0.5125
16508TIP3   OH271014   0.892   0.425   2.067 -0.2683 -0.0318  0.2379
16508TIP3    H171015   0.872   0.363   1.997  2.9062 -1.2914  0.2871
16508TIP3    H271016   0.935   0.498   2.022 -1.2908  0.7585  0.5244
16509TIP3   OH271017   5.019   0.899   0.481  0.3377 -0.0070 -0.3901
16509TIP3    H171018   5.011   0.876   0.388  1.9487 -0.3436 -0.4717
16509TIP3    H271019   5.058   0.987   0.481  0.4337 -0.0473 -0.0320
16510TIP3   OH271020   3.783   0.715   0.885 -0.0557 -0.0040 -0.3496
16510TIP3    H171021   3.717   0.660   0.842 -0.7398  1.2845 -1.0064
16510TIP3    H271022   3.766   0.803   0.851 -0.2617  0.9948  2.1652
16511TIP3   OH271023   2.365   3.014  13.928 -0.1889 -0.6586  0.5848
16511TIP3    H171024   2.371   3.019  14.024 -1.7509  2.0647  0.6390
16511TIP3    H271025   2.330   2.926  13.911  3.2365 -2.5451  2.1938
16512TIP3   OH271026   5.957   2.297  11.833  0.5431  0.3929  0.6080
16512TIP3    H171027   6.044   2.321  11.866  1.0278 -0.3214 -0.1185
16512TIP3    H271028   5.974   2.233  11.764 -0.6277 -1.0707  1.6004
16513TIP3   OH271029   6.342   0.466  16.739  0.3272  0.2622  0.7128
16513TIP3    H171030   6.312   0.423  16.659 -1.6782 -2.3093  2.6647
16513TIP3    H271031   6.272   0.527  16.762  1.8522  2.5948 -0.4880
16514TIP3   OH271032   2.951   3.995   5.638 -0.2814 -0.3215  0.0829
16514TIP3    H171033   2.934   4.014   5.730 -1.3605 -0.6958 -0.0326
16514TIP3    H271034   2.908   4.065   5.590 -2.3195 -1.7241 -0.2464
16515TIP3   OH271035   2.768   0.961   0.751 -0.1899 -0.0339  0.2176
16515TIP3    H171036   2.705   0.978   0.680  1.7369  0.2184 -1.5486
16515TIP3    H271037   2.748   1.027   0.817 -0.6238  1.2496 -1.1326
16516TIP3   OH271038   3.648   6.363   3.515  0.6121  0.9864 -0.4035
16516TIP3    H171039   3.670   6.455   3.530 -0.2042  0.7667  3.0828
16516TIP3    H271040   3.624   6.359   3.423  2.4266  3.8475 -1.1411
16517TIP3   OH271041   5.100   2.538   2.863  0.1912  0.1355  0.2503
16517TIP3    H171042   5.067   2.527   2.952  0.2772 -1.2442  0.1397
16517TIP3    H271043   5.165   2.608   2.869  1.3283 -0.9870  1.5871
16518TIP3   OH271044   6.469   6.771  14.985  0.2512  0.2937 -0.1213
16518TIP3    H171045   6.491   6.840  14.922 -0.7768 -0.0621 -0.9022
16518TIP3    H271046   6.459   6.817  15.069 -0.4133  1.1034 -0.6289
16519TIP3   OH271047   0.319   1.581   1.166 -0.1117  0.1006  0.0708
16519TIP3    H171048   0.314   1.528   1.246  1.2417 -1.3030 -0.7108
16519TIP3    H271049   0.364   1.524   1.103 -1.7209  0.9320 -1.9094
16520TIP3   OH271050   6.057   3.248   4.102 -0.0594  0.0818  0.1587
16520TIP3    H171051   5.975   3.291   4.076  0.2755  0.3405 -0.4958
16520TIP3    H271052   6.053   3.162   4.060  0.6907  0.6747 -1.1538
16521TIP3   OH271053   0.999   1.749  11.238 -0.2229 -0.1669 -0.5357
16521TIP3    H171054   0.927   1.694  11.268 -0.4849  1.0846  1.2534
16521TIP3    H271055   0.958   1.810  11.176 -0.6659  0.3221  0.2209
16522TIP3   OH271056   1.498   4.684   2.351 -0.2597  0.7136  0.4638
16522TIP3    H171057   1.493   4.632   2.432  1.6032  0.0435  0.1951
16522TIP3    H271058   1.457   4.629   2.285  0.9792 -0.1403  0.3518
16523TIP3   OH271059   0.484   4.480   4.602  0.1405  0.5582 -0.2400
16523TIP3    H171060   0.464   4.482   4.695 -1.2196 -1.8367 -0.3902
16523TIP3    H271061   0.408   4.519   4.559 -0.0592 -0.0012 -0.4064
16524TIP3   OH271062   2.042   4.756  16.444  0.6682  0.4216  0.1845
16524TIP3    H171063   2.120   4.790  16.402 -0.0203  0.1993 -1.3326
16524TIP3    H271064   1.969   4.795  16.395 -0.2238  1.5749  2.2992
16525TIP3   OH271065   0.381   2.657   4.107  0.3111  0.1028  0.1736
16525TIP3    H171066   0.320   2.716   4.063  0.8197  0.1175 -0.5171
16525TIP3    H271067   0.396   2.698   4.193 -1.2468 -0.3061  0.6795
16526TIP3   OH271068   2.577   2.718  11.823 -0.4983  0.1051  0.5805
16526TIP3    H171069   2.523   2.762  11.889 -1.1438  0.8410 -0.4091
16526TIP3    H271070   2.588   2.629  11.856 -1.2963  0.2987  1.3920
16527TIP3   OH271071   4.006   6.610  16.967  0.0537 -0.0081 -0.4873
16527TIP3    H171072   4.002   6.692  17.016  0.2888 -0.3400  0.0887
16527TIP3    H271073   4.100   6.597  16.950  0.2751 -1.3205  1.4238
16528TIP3   OH271074   0.170   5.862  13.119 -0.2588 -0.7929 -0.0518
16528TIP3    H171075   0.083   5.901  13.131 -0.3153 -0.7110 -0.6786
16528TIP3    H271076   0.165   5.778  13.166 -0.7201 -0.8429 -0.1768
16529TIP3   OH271077   5.603   3.471   2.372  0.0654  0.0816  0.1947
16529TIP3    H171078   5.693   3.437   2.367  0.8403  2.0110 -0.1657
16529TIP3    H271079   5.587   3.482   2.466  1.1688  1.9129  0.2329
16530TIP3   OH271080   6.618   2.522  12.632 -0.0684  0.0357 -0.5177
16530TIP3    H171081   6.675   2.595  12.657 -0.1393 -0.0223 -0.1763
16530TIP3    H271082   6.533   2.563  12.616  0.0616  0.1185 -0.9986
16531TIP3   OH271083   6.268   2.715  11.730 -0.1577 -0.1697 -0.0491
16531TIP3    H171084   6.243   2.793  11.681  1.3521  0.6828  0.4951
16531TIP3    H271085   6.338   2.675  11.677  0.4537 -0.0503  0.6509
16532TIP3   OH271086   4.008   4.022  13.261 -0.1011  0.0698  0.3663
16532TIP3    H171087   4.086   4.059  13.218 -0.6400  0.5987 -0.1751
16532TIP3    H271088   3.942   4.020  13.192 -0.5778 -0.3559  0.8321
16533TIP3   OH271089   2.341   2.065  11.432  0.1506 -0.3094 -0.0137
16533TIP3    H171090   2.267   2.056  11.492  0.2239  0.9217  0.2848
16533TIP3    H271091   2.396   1.990  11.451 -0.3545 -0.5097  0.7193
16534TIP3   OH271092   1.033   1.319   4.522 -0.4322 -0.3300  0.1032
16534TIP3    H171093   1.034   1.233   4.481 -1.2572 -1.3678  2.1301
16534TIP3    H271094   1.003   1.378   4.453  0.8325 -1.5098 -1.5308
16535TIP3   OH271095   5.296   6.134  14.001  0.5590 -0.0558  0.2680
16535TIP3    H171096   5.266   6.142  14.091  0.8606 -0.7996  0.4424
16535TIP3    H271097   5.382   6.175  14.000  0.3576  0.3679  0.2090
16536TIP3   OH271098   4.487   3.054   5.367  0.2467 -0.8007  0.2943
16536TIP3    H171099   4.500   3.109   5.444 -0.7578  1.1962 -0.8671
16536TIP3    H271100   4.539   3.097   5.298 -2.0282 -0.1571 -1.1194
16537TIP3   OH271101   6.332   4.665   1.470 -0.0822 -0.6665 -0.0857
16537TIP3    H171102   6.293   4.671   1.383 -2.2644 -0.5804  0.8459
16537TIP3    H271103   6.343   4.756   1.497 -1.1003 -0.6817  0.4211
16538TIP3   OH271104   5.640   3.469   0.400  0.4574 -0.2928 -0.1728
16538TIP3    H171105   5.645   3.384   0.445 -0.6429  0.2211  0.9702
16538TIP3    H271106   5.707   3.522   0.443  0.7839 -0.4044 -0.5328
16539TIP3   OH271107   3.115   0.584   4.774  0.0095 -0.3534  0.2767
16539TIP3    H171108   3.101   0.631   4.692  0.4550 -0.9028 -0.1195
16539TIP3    H271109   3.210   0.581   4.785  0.0724 -2.4544 -0.4849
16540TIP3   OH271110   3.444   4.889  11.741 -0.6128 -0.3990 -0.1284
16540TIP3    H171111   3.369   4.858  11.793 -0.4087 -1.1390 -0.2645
16540TIP3    H271112   3.410   4.965  11.694 -1.2894 -0.7358 -0.2043
16541TIP3   OH271113   2.984   6.097  12.924  0.1444 -0.1250  0.6310
16541TIP3    H171114   2.979   6.011  12.966 -0.7269 -0.5114 -0.2064
16541TIP3    H271115   2.896   6.110  12.887  0.6594  0.5230 -0.4095
16542TIP3   OH271116   4.312   5.577  15.857  1.0488 -0.3393 -0.2182
16542TIP3    H171117   4.304   5.498  15.911 -0.9264  0.1025  0.2273
16542TIP3    H271118   4.392   5.619  15.887  0.6201 -0.7160  1.5870
16543TIP3   OH271119   0.995   3.258  16.344 -0.2821  0.5532  0.4240
16543TIP3    H171120   0.930   3.189  16.331  0.8656 -0.5798  0.5469
16543TIP3    H271121   0.992   3.275  16.438  0.8430 -0.7934  0.7319
16544TIP3   OH271122   2.258   2.405  14.719 -0.6679 -0.0649  0.2941
16544TIP3    H171123   2.232   2.488  14.680 -1.3846 -0.9076 -1.1105
16544TIP3    H271124   2.183   2.347  14.704 -1.1084 -0.4106  3.1993
16545TIP3   OH271125   4.412   3.939   4.620 -0.2723 -0.1128  0.7665
16545TIP3    H171126   4.485   3.949   4.559 -0.0320  1.0554  1.2151
16545TIP3    H271127   4.447   3.966   4.705 -0.5116 -1.9886  1.5154
16546TIP3   OH271128   6.632   4.702   4.200  0.3473  0.0243 -0.3916
16546TIP3    H171129   6.680   4.768   4.149  3.5144  1.6314  4.0003
16546TIP3    H271130   6.547   4.742   4.215  1.4541  2.2874  0.3661
16547TIP3   OH271131   4.059   6.490  11.767 -0.3511 -0.4703  0.7580
16547TIP3    H171132   4.066   6.424  11.698  1.0861 -0.6150  1.0112
16547TIP3    H271133   4.107   6.452  11.841 -1.0831  0.0811  1.5349
16548TIP3   OH271134   4.688   2.912  14.038 -0.1237 -0.0920 -0.5356
16548TIP3    H171135   4.750   2.870  13.978  0.5067 -0.9212  0.6539
16548TIP3    H271136   4.642   2.977  13.984  3.0630  1.9147 -1.0773
16549TIP3   OH271137   3.476   4.875  11.327  0.1624 -0.2311  0.0120
16549TIP3    H171138   3.514   4.788  11.340  0.4676 -0.0585  0.2690
16549TIP3    H271139   3.382   4.860  11.332  0.2131 -0.1504  2.7528
16550TIP3   OH271140   1.824   6.526   0.187 -0.0826  0.1455 -0.1521
16550TIP3    H171141   1.846   6.433   0.184  0.4145  0.2761 -1.2498
16550TIP3    H271142   1.767   6.539   0.112 -0.2409  0.7021  0.0620
16551TIP3   OH271143   5.803   1.432   0.287 -0.7953  0.1120 -0.3404
16551TIP3    H171144   5.803   1.337   0.278 -1.6150  0.0713 -0.0630
16551TIP3    H271145   5.798   1.447   0.381 -0.6456  0.4240 -0.3821
16552TIP3   OH271146   2.258   2.823   5.139 -0.1647  0.3665 -0.7717
16552TIP3    H171147   2.290   2.757   5.199  0.8838  1.5408  0.0097
16552TIP3    H271148   2.187   2.780   5.091  1.0478 -1.5794 -0.9142
16553TIP3   OH271149   2.654   3.954  13.067 -0.1690  0.0051  0.4368
16553TIP3    H171150   2.669   4.047  13.083 -0.3716 -0.1566  1.6206
16553TIP3    H271151   2.699   3.937  12.984  0.1613  1.0765  0.3781
16554TIP3   OH271152   4.772   0.545  12.167 -0.1590  0.5929 -0.1001
16554TIP3    H171153   4.731   0.629  12.186  2.4209  2.2505 -1.2677
16554TIP3    H271154   4.829   0.528  12.242 -0.1418  0.2388 -0.1904
16555TIP3   OH271155   0.286   4.960  13.616  0.0650  0.4561 -0.1225
16555TIP3    H171156   0.303   4.866  13.607 -0.0930  0.5343 -1.5666
16555TIP3    H271157   0.314   4.981  13.705 -2.1322 -1.4133  1.1209
16556TIP3   OH271158   3.947   0.611  12.174 -0.4978 -0.5282 -0.0584
16556TIP3    H171159   3.894   0.673  12.124  0.4377  0.3020 -0.0495
16556TIP3    H271160   3.972   0.659  12.252 -0.3557 -1.1743  0.2965
16557TIP3   OH271161   4.955   6.484   2.662  0.5755 -0.2108  0.1471
16557TIP3    H171162   4.882   6.465   2.721  0.2407 -1.7277 -0.7185
16557TIP3    H271163   4.934   6.569   2.624  0.1430  0.1754  1.2069
16558TIP3   OH271164   4.191   4.583  17.180  0.1449  0.1823  0.7766
16558TIP3    H171165   4.118   4.626  17.225 -0.9180 -0.0647 -0.6177
16558TIP3    H271166   4.259   4.649  17.175 -1.1365  1.5001 -0.5569
16559TIP3   OH271167   6.111   4.401  12.476 -0.3884  0.1728  0.1178
16559TIP3    H171168   6.188   4.432  12.524 -0.3957 -1.5484  1.3237
16559TIP3    H271169   6.047   4.379  12.544 -1.0613 -0.6815 -0.7564
16560TIP3   OH271170   4.344   3.095  12.360 -0.3516 -0.2316  0.6783
16560TIP3    H171171   4.259   3.137  12.369 -0.3362  0.2545 -1.0771
16560TIP3    H271172   4.407   3.166  12.371 -0.2827 -0.0376 -0.7884
16561TIP3   OH271173   3.616   5.871   4.667 -0.0965  0.0428  0.2231
16561TIP3    H171174   3.641   5.932   4.597  1.5717  1.0687  1.6066
16561TIP3    H271175   3.574   5.798   4.622  0.1706  1.0339 -1.7503
16562TIP3   OH271176   2.518   2.081  14.254 -0.3042  0.0372  0.5242
16562TIP3    H171177   2.440   2.130  14.282 -0.7863 -0.2260 -0.3368
16562TIP3    H271178   2.575   2.148  14.216 -0.5498  0.0770  0.2225
16563TIP3   OH271179   5.854   4.830   1.299 -0.3203  0.2407 -0.5081
16563TIP3    H171180   5.835   4.890   1.227 -0.1920 -0.0199 -0.7581
16563TIP3    H271181   5.832   4.744   1.265 -1.3951  0.2293  0.1550
16564TIP3   OH271182   3.414   4.701   6.680  0.2902 -0.0942  0.8349
16564TIP3    H171183   3.447   4.726   6.593 -1.6318 -0.1578  0.0332
16564TIP3    H271184   3.337   4.756   6.693  0.4976 -0.1513  2.4863
16565TIP3   OH271185   1.084   2.122   5.052  0.6307  0.2875  0.1968
16565TIP3    H171186   1.133   2.201   5.075  0.6266  0.3987 -0.1659
16565TIP3    H271187   1.043   2.094   5.133 -0.3906  1.3668  0.0712
16566TIP3   OH271188   3.135   6.137  13.545  0.1109 -0.1155 -0.0410
16566TIP3    H171189   3.150   6.208  13.608  0.2873  0.1937 -0.4249
16566TIP3    H271190   3.188   6.065  13.577  0.4651  0.1510 -0.0177
16567TIP3   OH271191   4.555   5.682  15.070  0.0262  0.4920  0.6022
16567TIP3    H171192   4.461   5.699  15.067 -0.0543 -0.0866 -0.5306
16567TIP3    H271193   4.582   5.679  14.978  0.9221 -0.6044  0.8813
16568TIP3   OH271194   0.284   4.865  11.372 -0.3070 -0.1763  0.2663
16568TIP3    H171195   0.319   4.777  11.361  1.2001  0.3041  0.9814
16568TIP3    H271196   0.196   4.860  11.334  0.1081 -1.7154 -0.6048
16569TIP3   OH271197   6.658   3.015  11.708  0.1001 -0.4055 -0.2300
16569TIP3    H171198   6.736   3.002  11.762  0.4808  1.3024 -0.3342
16569TIP3    H271199   6.618   2.927  11.702  2.2080 -1.3967 -0.5174
16570TIP3   OH271200   3.552   2.420   1.583 -0.1731 -0.2574 -0.5440
16570TIP3    H171201   3.535   2.382   1.497 -3.5956  2.7134 -1.4519
16570TIP3    H271202   3.606   2.497   1.565  2.1488 -1.5225  0.5547
16571TIP3   OH271203   2.718   4.515   2.688  0.4947 -0.0979  0.6420
16571TIP3    H171204   2.774   4.531   2.612  0.6230  1.7768  1.0881
16571TIP3    H271205   2.773   4.464   2.747  0.8180 -0.5080  0.0041
16572TIP3   OH271206   4.799   2.854   0.523 -0.0888  0.4195 -0.2086
16572TIP3    H171207   4.886   2.816   0.534  0.1917  1.1773  0.2880
16572TIP3    H271208   4.802   2.898   0.438 -0.3126 -0.3761 -0.6391
16573TIP3   OH271209   4.087   6.215  17.064  0.1529 -0.2335  0.2078
16573TIP3    H171210   4.008   6.218  17.009 -0.7869 -0.5782  1.4836
16573TIP3    H271211   4.056   6.239  17.151  0.9633 -2.7699  1.2711
16574TIP3   OH271212   0.753   5.650  14.430 -0.0583  0.0077 -0.0095
16574TIP3    H171213   0.798   5.571  14.401 -1.3292 -1.5565  2.0284
16574TIP3    H271214   0.660   5.630  14.421 -0.4373  2.1031 -1.4292
16575TIP3   OH271215   0.399   3.277  11.660 -0.0548 -0.4536 -0.3153
16575TIP3    H171216   0.331   3.266  11.726 -0.5944 -0.9812 -0.9476
16575TIP3    H271217   0.435   3.364  11.677  0.8338 -1.1332  1.6159
16576TIP3   OH271218   5.280   3.045   5.733  0.4797  0.0418  0.5044
16576TIP3    H171219   5.281   2.953   5.708 -1.7843  0.2311 -0.5269
16576TIP3    H271220   5.332   3.089   5.666 -0.1445 -0.2560 -0.1874
16577TIP3   OH271221   1.337   3.881   3.057 -0.1124 -0.6028  0.1460
16577TIP3    H171222   1.278   3.837   3.119  0.3376 -0.1441  0.9090
16577TIP3    H271223   1.357   3.965   3.098 -1.3912  0.6061 -1.5418
16578TIP3   OH271224   1.079   5.480   0.787 -0.7723  0.2762 -0.3843
16578TIP3    H171225   0.984   5.483   0.787 -0.7706  0.5066 -1.2174
16578TIP3    H271226   1.102   5.430   0.865 -1.6580 -2.2196 -1.6232
16579TIP3   OH271227   5.151   0.956   1.633  0.2055  0.3060 -0.2769
16579TIP3    H171228   5.098   1.031   1.604 -3.2171 -2.1338 -0.9961
16579TIP3    H271229   5.090   0.903   1.685  2.1432 -2.4681 -0.6123
16580TIP3   OH271230   3.550   0.001   3.584  0.2831  0.4393 -0.3258
16580TIP3    H171231   3.478  -0.035   3.635  1.0165 -1.8685 -0.8273
16580TIP3    H271232   3.560  -0.058   3.510  0.6201  2.5333 -2.0635
16581TIP3   OH271233   1.964   5.823  16.914 -0.6318  0.1886  0.8846
16581TIP3    H171234   1.928   5.901  16.873  1.0342  0.7857  0.4981
16581TIP3    H271235   1.976   5.847  17.006 -2.2961 -0.4317  1.3189
16582TIP3   OH271236   6.064   0.242  15.720  0.2377  0.9572  0.6425
16582TIP3    H171237   5.998   0.188  15.763  0.3707 -0.3038 -0.6370
16582TIP3    H271238   6.054   0.222  15.627  2.2743  0.8780  0.3973
16583TIP3   OH271239   5.698   3.527  13.416 -0.1987 -0.1440 -0.3001
16583TIP3    H171240   5.708   3.621  13.425 -2.4283  0.0339  0.8370
16583TIP3    H271241   5.613   3.507  13.456  0.5437 -2.7296  0.1984
16584TIP3   OH271242   5.212   3.660  16.386  0.4166 -0.0363 -0.0163
16584TIP3    H171243   5.204   3.566  16.405  0.5817  0.2802  1.7706
16584TIP3    H271244   5.173   3.670  16.299  0.2056 -1.7180 -0.1565
16585TIP3   OH271245   5.770   0.966   5.640  0.1654  0.0912 -0.0292
16585TIP3    H171246   5.742   1.043   5.689  1.0742  0.5876 -0.2508
16585TIP3    H271247   5.742   0.983   5.550 -0.5519 -0.3241  0.1099
16586TIP3   OH271248   0.905   1.116  10.794 -0.3129  0.2894  0.3241
16586TIP3    H171249   0.911   1.152  10.882 -0.1102 -0.2505  0.5328
16586TIP3    H271250   0.895   1.193  10.737  1.3904  0.7894  0.6368
16587TIP3   OH271251   5.610   0.575  15.191 -0.4588 -0.3198  0.3575
16587TIP3    H171252   5.683   0.513  15.188  0.9396  1.1863  1.5957
16587TIP3    H271253   5.587   0.581  15.284 -2.4531 -1.0343 -0.0435
16588TIP3   OH271254   0.082   4.667  16.730  0.0310 -0.5408 -0.3349
16588TIP3    H171255   0.087   4.579  16.767  1.0106 -0.7675 -0.9890
16588TIP3    H271256   0.162   4.677  16.679  0.4792  1.1495  0.6274
16589TIP3   OH271257   2.956   1.552  11.284  0.3611 -0.1519  0.0149
16589TIP3    H171258   2.862   1.538  11.272  0.1429  0.5906  0.8153
16589TIP3    H271259   2.963   1.635  11.331  1.4011 -0.3993  0.3296
16590TIP3   OH271260   2.879   4.491  11.422  0.3335 -0.0542 -0.0330
16590TIP3    H171261   2.858   4.458  11.510 -0.0387  0.2187 -0.0153
16590TIP3    H271262   2.794   4.496  11.378  0.3724  0.9501 -0.0139
16591TIP3   OH271263   0.322   2.553   5.805 -0.2119  0.1007  0.5036
16591TIP3    H171264   0.363   2.595   5.881 -2.4415 -0.0195  1.8526
16591TIP3    H271265   0.241   2.602   5.791  0.1267  0.0985 -1.8310
16592TIP3   OH271266   4.550   5.069   4.263 -0.3427  0.3135 -0.6977
16592TIP3    H171267   4.569   5.111   4.347  0.1912 -2.9561  1.0086
16592TIP3    H271268   4.589   5.127   4.198  1.8497  1.5841  1.5450
16593TIP3   OH271269   6.729   0.933   0.963 -0.2037 -0.4214 -0.3047
16593TIP3    H171270   6.742   1.018   1.004 -0.3142 -0.0495 -1.0349
16593TIP3    H271271   6.738   0.870   1.035 -0.1001  0.2007  0.2316
16594TIP3   OH271272   2.565   6.805  10.919  0.2342 -0.0750 -0.5672
16594TIP3    H171273   2.640   6.862  10.931  1.6961 -1.7553 -1.2856
16594TIP3    H271274   2.543   6.814  10.826  1.1395 -1.3847 -0.9421
16595TIP3   OH271275   4.307   5.709   4.070  0.0327  0.3025  0.1646
16595TIP3    H171276   4.234   5.654   4.041 -0.9105  0.6226  1.8139
16595TIP3    H271277   4.376   5.647   4.094 -0.1243 -0.0557 -0.2978
16596TIP3   OH271278   1.125   2.013   4.259  0.1882  0.6905 -0.4258
16596TIP3    H171279   1.184   2.049   4.325  0.0285 -2.7108  1.8156
16596TIP3    H271280   1.039   2.013   4.300 -0.5042  1.1417 -1.8016
16597TIP3   OH271281   1.471   1.851  16.577  0.1739  0.0469 -0.0876
16597TIP3    H171282   1.409   1.924  16.581  1.1337  1.0523 -2.0713
16597TIP3    H271283   1.453   1.808  16.494  0.1284 -1.5478  0.7127
16598TIP3   OH271284   1.181   0.225  15.868  0.3786 -0.0215 -0.0056
16598TIP3    H171285   1.149   0.136  15.877 -0.9775  0.4943  0.5055
16598TIP3    H271286   1.228   0.242  15.950 -0.5444  0.1756  0.4999
16599TIP3   OH271287   2.733   0.678  12.145 -0.1747  0.2667  0.0416
16599TIP3    H171288   2.744   0.760  12.098 -0.0625  0.8769  1.0972
16599TIP3    H271289   2.713   0.614  12.077 -1.3503  1.3651 -0.6978
16600TIP3   OH271290   6.709   4.689  17.076 -0.1315  0.1963  0.1113
16600TIP3    H171291   6.778   4.630  17.044 -0.6207 -0.3510  0.0456
16600TIP3    H271292   6.753   4.745  17.140  0.8074  1.1429 -1.3017
16601TIP3   OH271293   5.842   6.485   6.060  0.5229 -0.4274  0.0230
16601TIP3    H171294   5.915   6.542   6.085  1.0717 -1.9881  2.2697
16601TIP3    H271295   5.880   6.397   6.059 -0.7341 -0.9816 -1.4969
16602TIP3   OH271296   2.784   5.500   3.766  0.0003  0.0605  0.0148
16602TIP3    H171297   2.695   5.474   3.744  0.2707  0.1155 -1.1886
16602TIP3    H271298   2.773   5.570   3.831 -0.7991 -0.5439  0.5558
16603TIP3   OH271299   5.654   5.226  15.754  0.3069  0.3277 -0.1580
16603TIP3    H171300   5.562   5.247  15.735  0.0110 -1.2904 -0.6859
16603TIP3    H271301   5.704   5.278  15.692 -0.2354  1.3182  0.2123
16604TIP3   OH271302   1.838   6.092   3.447  0.4596 -0.2006 -0.2095
16604TIP3    H171303   1.878   6.133   3.371  1.0856 -1.3516 -0.5385
16604TIP3    H271304   1.905   6.032   3.480 -0.2996 -0.7374  0.4124
16605TIP3   OH271305   1.939   6.769   0.530  0.4121 -0.0886 -0.2916
16605TIP3    H171306   1.967   6.838   0.590 -1.2816  0.9160 -0.5833
16605TIP3    H271307   1.945   6.810   0.443  0.2251 -0.5968 -0.5465
16606TIP3   OH271308   1.479   4.597   0.781 -0.6233 -0.3199 -0.1559
16606TIP3    H171309   1.454   4.606   0.873 -0.3737 -0.6296 -0.0589
16606TIP3    H271310   1.415   4.652   0.734 -1.1403 -0.6569  0.1431
16607TIP3   OH271311   3.726   5.173  15.438 -0.1066 -0.3426 -0.1108
16607TIP3    H171312   3.638   5.136  15.430  0.0373 -0.5504 -0.7473
16607TIP3    H271313   3.711   5.265  15.461 -0.5107 -0.1554 -1.0882
16608TIP3   OH271314   1.931   2.045  15.436 -0.0766 -0.1462 -0.2986
16608TIP3    H171315   1.922   1.950  15.442  2.9414 -0.5184 -0.0843
16608TIP3    H271316   1.970   2.060  15.350 -0.9836  0.9745 -0.5372
16609TIP3   OH271317   6.343   4.478  12.649 -0.1438  0.0458  0.0217
16609TIP3    H171318   6.432   4.475  12.684  0.0419  1.0120 -0.3193
16609TIP3    H271319   6.341   4.560  12.598 -1.3738  0.2840  0.4303
16610TIP3   OH271320   5.419   2.125   4.430  0.3218 -0.0609 -0.1504
16610TIP3    H171321   5.493   2.070   4.406  0.4386 -0.3008  0.7267
16610TIP3    H271322   5.369   2.072   4.492  0.8853  1.1182  1.3710
16611TIP3   OH271323   2.099   4.676   5.938 -0.0921 -0.8464  0.2031
16611TIP3    H171324   2.152   4.704   6.013 -2.3148 -0.6256  1.7922
16611TIP3    H271325   2.041   4.750   5.920  0.0576 -1.0950 -1.4465
16612TIP3   OH271326   4.715   1.396  12.045 -0.2827 -0.4200  0.0289
16612TIP3    H171327   4.652   1.329  12.073 -3.7738  2.5939  0.2232
16612TIP3    H271328   4.731   1.448  12.124  0.0457  0.5926 -0.6781
16613TIP3   OH271329   6.720   5.877   4.623 -0.5374  0.0419 -0.2730
16613TIP3    H171330   6.761   5.925   4.551  0.2777  1.2900  0.9616
16613TIP3    H271331   6.631   5.859   4.592 -0.6058  1.6257 -1.1311
16614TIP3   OH271332   4.912   2.081  14.032 -0.5345  0.2383 -0.0620
16614TIP3    H171333   4.864   2.157  14.065 -0.3054 -0.2570  1.5369
16614TIP3    H271334   5.002   2.113  14.019 -0.0249 -0.0596  2.1771
16615TIP3   OH271335   3.551   0.676  12.259 -0.3422 -0.4466 -0.1856
16615TIP3    H171336   3.566   0.603  12.198 -3.3444 -2.0257  0.7409
16615TIP3    H271337   3.589   0.752  12.216  2.3308 -2.3856 -1.5434
16616TIP3   OH271338   6.453   3.708  15.574  0.0986  0.7603  0.1482
16616TIP3    H171339   6.438   3.761  15.496 -0.1547  1.9476  0.9665
16616TIP3    H271340   6.546   3.687  15.570 -0.1143 -0.0536 -0.9757
16617TIP3   OH271341   6.271   3.597  13.981  0.0363  0.0892  0.0940
16617TIP3    H171342   6.212   3.665  13.948  0.2708  0.0560 -0.3958
16617TIP3    H271343   6.217   3.547  14.042  0.1813  1.4602  1.4366
16618TIP3   OH271344   1.050   6.320   2.834 -0.1697 -1.1651  0.6377
16618TIP3    H171345   1.083   6.349   2.919  1.9466  0.9990 -0.7687
16618TIP3    H271346   1.085   6.384   2.772 -2.5096 -2.0268 -1.7743
16619TIP3   OH271347   1.309   1.322   0.665  0.3244 -0.4706 -0.4950
16619TIP3    H171348   1.237   1.287   0.719 -0.8356 -1.6299 -2.6623
16619TIP3    H271349   1.388   1.285   0.705 -0.3721 -0.3193  1.1109
16620TIP3   OH271350   1.637   3.189   4.565  0.0423  0.3663 -0.1291
16620TIP3    H171351   1.718   3.152   4.530  0.8326  1.8289  0.0602
16620TIP3    H271352   1.666   3.248   4.634 -1.2924 -0.0919  0.8574
16621TIP3   OH271353   2.829   1.044  11.859 -0.0624  0.1955  0.0609
16621TIP3    H171354   2.878   1.119  11.824  1.0567 -0.7515 -0.4970
16621TIP3    H271355   2.744   1.080  11.884  0.1901  1.5028 -0.8577
16622TIP3   OH271356   5.230   0.092   2.614  0.1114  0.0539 -0.1659
16622TIP3    H171357   5.278   0.011   2.600 -0.0665 -0.4374  1.7126
16622TIP3    H271358   5.186   0.079   2.698 -4.1031  0.1297 -2.1382
16623TIP3   OH271359   2.604   1.195  16.179 -0.1174  0.1503  0.4060
16623TIP3    H171360   2.638   1.154  16.258  0.5890  1.2742  0.7039
16623TIP3    H271361   2.515   1.159  16.170  1.0224 -2.7703 -0.3360
16624TIP3   OH271362   4.940   0.727  12.754  0.2208  0.2689 -0.0857
16624TIP3    H171363   4.878   0.687  12.693 -1.5350  0.1785  1.6755
16624TIP3    H271364   4.908   0.702  12.841  2.0984  1.1697  0.9267
16625TIP3   OH271365   3.938   0.610   3.827  0.8340  0.7723  0.0098
16625TIP3    H171366   3.852   0.644   3.799  1.3317  1.0231 -1.2769
16625TIP3    H271367   4.000   0.650   3.766  1.8578  0.4590  0.8295
16626TIP3   OH271368   1.660   2.138   3.210  0.2322  0.1114  0.1356
16626TIP3    H171369   1.706   2.054   3.212  0.7365  0.3896  0.4695
16626TIP3    H271370   1.728   2.203   3.227 -0.5147  0.4202  2.2771
16627TIP3   OH271371   4.671   1.376  16.771 -0.1488  0.5270 -0.3026
16627TIP3    H171372   4.592   1.387  16.718  0.8697  1.0117 -1.7876
16627TIP3    H271373   4.652   1.421  16.853 -2.0294 -0.8301  0.0616
16628TIP3   OH271374   5.650   5.567   3.321  0.1547 -0.3683  0.3498
16628TIP3    H171375   5.675   5.627   3.391  0.4473  0.7222 -0.6465
16628TIP3    H271376   5.563   5.536   3.345 -0.2940  0.9860  0.5804
16629TIP3   OH271377   4.209   5.834  12.333 -0.1689 -0.3191 -0.3575
16629TIP3    H171378   4.291   5.828  12.284 -0.5164  0.0664 -1.0009
16629TIP3    H271379   4.227   5.788  12.415  0.7367 -0.1029 -0.4222
16630TIP3   OH271380   4.636   4.830   1.104 -0.9693  0.3127 -0.4706
16630TIP3    H171381   4.688   4.808   1.181 -0.8692  0.7117 -0.4237
16630TIP3    H271382   4.600   4.746   1.074  1.0381 -0.2532 -1.4789
16631TIP3   OH271383   6.170   4.898   0.703  0.2853  0.1629 -0.1305
16631TIP3    H171384   6.121   4.823   0.669  0.1000  0.2590 -0.0774
16631TIP3    H271385   6.255   4.893   0.659  0.2567 -0.0488 -0.1664
16632TIP3   OH271386   6.546   0.254   4.428 -0.4620 -0.0854  0.1200
16632TIP3    H171387   6.610   0.266   4.358 -0.2451 -1.6137  0.0195
16632TIP3    H271388   6.597   0.219   4.501 -1.1472 -1.1386  0.1029
16633TIP3   OH271389   3.520   3.296  16.958  0.2854  0.6012  0.2076
16633TIP3    H171390   3.473   3.230  16.906  0.1854  1.9118 -1.4543
16633TIP3    H271391   3.465   3.309  17.035 -0.0248 -0.7660  0.2471
16634TIP3   OH271392   1.316   6.273  12.007  0.1439 -0.3609  0.6223
16634TIP3    H171393   1.307   6.368  11.999 -2.5710 -0.7184 -1.8932
16634TIP3    H271394   1.243   6.247  12.064  0.0458 -1.0691  0.1770
16635TIP3   OH271395   2.858   2.600  15.902  0.1418  0.4179  0.4367
16635TIP3    H171396   2.932   2.549  15.933 -0.2317  1.5355  3.4636
16635TIP3    H271397   2.781   2.549  15.928 -0.2134  0.4111 -0.5660
16636TIP3   OH271398   5.031   6.782  16.155  0.7666  0.2084  0.1367
16636TIP3    H171399   4.967   6.780  16.226  1.5239 -1.7167  0.8413
16636TIP3    H271400   4.993   6.841  16.090 -0.2311  1.5613  1.8566
16637TIP3   OH271401   5.877   3.107  11.360 -0.4951 -0.3681  0.1366
16637TIP3    H171402   5.853   3.185  11.311 -0.1663  0.0583  0.6372
16637TIP3    H271403   5.950   3.069  11.311 -0.7531 -0.4507 -0.1893
16638TIP3   OH271404   2.420   2.662  12.644 -0.0404  0.0004 -0.2552
16638TIP3    H171405   2.403   2.746  12.601  1.4471  0.0740 -0.7668
16638TIP3    H271406   2.357   2.602  12.606  0.5111  0.3327 -1.7579
16639TIP3   OH271407   1.473   2.175  12.478  0.0892  0.2231  0.2570
16639TIP3    H171408   1.492   2.146  12.389  3.0364 -0.7275  1.1041
16639TIP3    H271409   1.398   2.234  12.468  0.7368  0.6800 -2.9236
16640TIP3   OH271410   3.933   4.962  14.651  0.1377 -0.1439 -0.0123
16640TIP3    H171411   3.937   5.025  14.723 -0.5128  0.2059 -0.2736
16640TIP3    H271412   3.974   4.883  14.687  0.7530  0.3479  0.3929
16641TIP3   OH271413   4.097   0.774  12.809 -0.1581  0.5101  0.4818
16641TIP3    H171414   4.133   0.715  12.875  1.0118  1.6037  0.8584
16641TIP3    H271415   4.009   0.741  12.794  1.0201 -2.4195 -0.6657
16642TIP3   OH271416   1.520   3.898  16.165 -0.0371 -0.2639  0.3580
16642TIP3    H171417   1.575   3.901  16.086 -0.0066 -1.4546  0.3223
16642TIP3    H271418   1.465   3.976  16.158  0.7171  0.2319 -0.2834
16643TIP3   OH271419   4.853   5.230  16.668 -0.3821 -0.4341  0.2598
16643TIP3    H171420   4.821   5.311  16.628 -3.2960 -2.0918 -1.1358
16643TIP3    H271421   4.896   5.183  16.597  0.9036 -0.3465  0.9532
16644TIP3   OH271422   0.489   4.791   1.467 -0.3749 -0.1981 -0.5690
16644TIP3    H171423   0.565   4.767   1.414  0.0720  1.4525 -0.7310
16644TIP3    H271424   0.527   4.827   1.548 -0.9395  1.4897 -1.0290
16645TIP3   OH271425   3.265   2.497   3.417 -0.5267 -0.4720  0.5891
16645TIP3    H171426   3.278   2.463   3.506  0.7754  1.4136  1.1620
16645TIP3    H271427   3.280   2.591   3.424 -0.5565 -0.2510 -1.6065
16646TIP3   OH271428   0.596   5.238  14.057  0.0855 -0.1964  0.2591
16646TIP3    H171429   0.555   5.252  13.972 -2.2967 -2.0203  1.0147
16646TIP3    H271430   0.657   5.165  14.043 -0.3977 -0.5784  0.1577
16647TIP3   OH271431   0.616   4.699  15.100 -0.1942 -0.2409 -0.2383
16647TIP3    H171432   0.531   4.719  15.060 -0.7640 -0.6947  0.7129
16647TIP3    H271433   0.601   4.705  15.194  1.4119  1.9652 -0.0322
16648TIP3   OH271434   2.276   1.509  12.593  0.3137 -0.1372 -0.1041
16648TIP3    H171435   2.278   1.427  12.543 -0.4951 -0.3411  0.1865
16648TIP3    H271436   2.281   1.578  12.527 -0.9291 -0.3995 -0.5071
16649TIP3   OH271437   6.747   0.767   1.175 -0.7315 -0.1347  0.2608
16649TIP3    H171438   6.820   0.735   1.229  2.0253  3.6848 -0.7831
16649TIP3    H271439   6.681   0.794   1.238  0.4010 -0.1667  1.5127
16650TIP3   OH271440   3.384   1.449  16.431  0.2155 -0.4902 -0.5966
16650TIP3    H171441   3.414   1.465  16.521  1.6776  1.3208 -1.3405
16650TIP3    H271442   3.302   1.400  16.442  0.2694 -0.2018  1.7110
16651TIP3   OH271443   2.760   6.694  16.223 -0.2364 -0.2555  0.2730
16651TIP3    H171444   2.854   6.689  16.207 -0.3814  1.1541 -1.4023
16651TIP3    H271445   2.724   6.616  16.180  0.1928 -1.0498  1.3344
16652TIP3   OH271446   2.039   5.113  16.623  0.2702 -0.2415  0.3008
16652TIP3    H171447   2.104   5.046  16.644 -0.9013 -1.3482  0.5319
16652TIP3    H271448   1.996   5.133  16.707  0.6995  0.9250  0.2615
16653TIP3   OH271449   5.251   1.469  15.765 -0.3223 -0.1188 -0.2738
16653TIP3    H171450   5.260   1.557  15.802  0.2978 -0.0836 -0.4914
16653TIP3    H271451   5.334   1.455  15.719 -1.0334 -0.1938 -1.5599
16654TIP3   OH271452   1.945   1.782  12.011 -0.1674 -0.3568 -0.4076
16654TIP3    H171453   2.005   1.707  12.005 -1.7375 -1.5884 -1.4273
16654TIP3    H271454   1.977   1.843  11.944  1.2854  0.0705  0.6149
16655TIP3   OH271455   3.686   2.548   3.399 -0.1497  0.1871  0.3311
16655TIP3    H171456   3.657   2.472   3.348 -0.3876  0.3867  0.1674
16655TIP3    H271457   3.723   2.608   3.333 -2.8825  1.6530 -0.0546
16656TIP3   OH271458   3.637   6.121  11.343  0.0198 -0.4202  0.0376
16656TIP3    H171459   3.609   6.110  11.252  0.8291  2.1349 -0.5906
16656TIP3    H271460   3.602   6.206  11.369  3.5766  1.0309  0.5639
16657TIP3   OH271461   3.345   6.762   0.617  0.6430  0.1563  0.5262
16657TIP3    H171462   3.326   6.682   0.568  0.2973  0.6594 -0.1783
16657TIP3    H271463   3.280   6.825   0.585  1.1287  0.8147  0.8265
16658TIP3   OH271464   3.432   4.560  15.769  0.4977  0.4169 -0.3937
16658TIP3    H171465   3.418   4.476  15.725  2.0866 -0.6923  1.0929
16658TIP3    H271466   3.357   4.614  15.742  0.4105 -0.7949 -2.9048
16659TIP3   OH271467   1.232   6.444   5.273  0.1886 -0.1810 -0.9723
16659TIP3    H171468   1.250   6.501   5.199  0.0356  0.4042 -0.5629
16659TIP3    H271469   1.160   6.486   5.319  0.2455 -0.5680 -0.5186
16660TIP3   OH271470   0.579   5.983  14.870 -0.5292 -0.0007  0.2400
16660TIP3    H171471   0.558   5.994  14.777  0.8108 -0.3106 -0.1298
16660TIP3    H271472   0.669   5.949  14.870  0.0265  1.3699  1.6986
16661TIP3   OH271473   0.509   6.500  16.719 -0.1482 -0.0034  0.3610
16661TIP3    H171474   0.599   6.533  16.725 -0.9926  2.4953  0.1664
16661TIP3    H271475   0.477   6.501  16.809  0.0098 -0.9564  0.4390
16662TIP3   OH271476   1.631   6.204  11.165 -0.1854  0.4559  0.0543
16662TIP3    H171477   1.555   6.146  11.171  0.1022 -0.1163 -1.5012
16662TIP3    H271478   1.635   6.229  11.072  1.2772  0.8192  0.1976
16663TIP3   OH271479   6.371   4.647  15.196 -0.4849  0.2510 -0.0224
16663TIP3    H171480   6.400   4.730  15.234  1.1153 -0.2705 -0.0005
16663TIP3    H271481   6.291   4.669  15.149  0.5646  2.1097 -1.1128
16664TIP3   OH271482   5.601   0.316  16.435  0.0667 -0.0793 -0.2576
16664TIP3    H171483   5.583   0.287  16.346 -0.1382  0.4929 -0.4055
16664TIP3    H271484   5.656   0.393  16.425 -0.9621  0.7233  0.0635
16665TIP3   OH271485   6.779   4.791  14.705 -0.1477  0.0448  0.5284
16665TIP3    H171486   6.825   4.873  14.723  1.2128 -0.6288  0.2995
16665TIP3    H271487   6.765   4.791  14.611 -2.4539  1.1338  0.8001
16666TIP3   OH271488   2.501   5.469  15.128  0.3058 -0.4395  0.0622
16666TIP3    H171489   2.419   5.459  15.177 -0.4113 -0.3337 -1.0673
16666TIP3    H271490   2.563   5.413  15.173 -0.8094 -1.7468  0.0453
16667TIP3   OH271491   2.517   2.544  15.793 -0.9610  0.0430  0.0190
16667TIP3    H171492   2.493   2.547  15.885 -1.7672  1.7118 -0.2026
16667TIP3    H271493   2.505   2.634  15.762  0.1718 -0.2840 -1.5015
16668TIP3   OH271494   2.341   2.199   4.412 -0.2829  0.0095  0.4543
16668TIP3    H171495   2.362   2.109   4.385  0.4389  0.5103 -0.7659
16668TIP3    H271496   2.270   2.189   4.475 -0.7412 -1.3746 -0.2287
16669TIP3   OH271497   0.312   2.231  12.861 -0.1728  0.1893  0.7388
16669TIP3    H171498   0.400   2.270  12.869 -0.7409  2.0288 -0.9071
16669TIP3    H271499   0.291   2.200  12.949  2.1375 -0.3807  1.1694
16670TIP3   OH271500   4.788   4.899   1.324 -0.3634  0.2389 -0.1265
16670TIP3    H171501   4.719   4.941   1.375  0.5378  0.6320  0.7996
16670TIP3    H271502   4.816   4.966   1.261  0.2507  0.6384  0.5562
16671TIP3   OH271503   6.697   3.365   5.969  0.0138  0.6570 -0.1736
16671TIP3    H171504   6.674   3.457   5.975 -2.4440  0.1580 -0.8232
16671TIP3    H271505   6.684   3.343   5.877 -0.8197 -0.6502  0.2315
16672TIP3   OH271506   1.817   2.874  11.609 -0.3042 -0.2121  0.4062
16672TIP3    H171507   1.795   2.901  11.698  0.2474  1.1915  0.1456
16672TIP3    H271508   1.737   2.890  11.558 -0.6594 -1.1327  0.6550
16673TIP3   OH271509   3.218   2.900   1.454 -0.0453 -0.3998  0.3666
16673TIP3    H171510   3.159   2.895   1.379 -0.1829  3.2375  0.0732
16673TIP3    H271511   3.159   2.897   1.530 -0.2220 -0.5518  0.2264
16674TIP3   OH271512   3.588   1.274  12.052 -0.5668  0.2221 -0.1013
16674TIP3    H171513   3.556   1.261  12.141  4.0808  2.3354  2.2395
16674TIP3    H271514   3.609   1.368  12.047 -0.0909  0.0680 -3.2412
16675TIP3   OH271515   3.132   1.965   0.541  0.2305 -0.6608  0.1618
16675TIP3    H171516   3.167   1.886   0.581  1.0287 -0.5228 -0.2391
16675TIP3    H271517   3.038   1.962   0.559  0.1414 -2.0625 -0.4695
16676TIP3   OH271518   0.910   1.737  16.359 -0.0827  0.6700 -0.5180
16676TIP3    H171519   0.917   1.660  16.416 -0.7882  1.1067  0.1797
16676TIP3    H271520   0.994   1.741  16.314 -0.0541 -0.5270 -0.5860
16677TIP3   OH271521   4.399   6.658   3.454 -0.1516 -0.2091  0.1714
16677TIP3    H171522   4.398   6.726   3.522 -0.1919 -0.1113  0.0731
16677TIP3    H271523   4.309   6.624   3.453 -0.4271  0.5123 -0.5564
16678TIP3   OH271524   0.785   1.972   5.109 -0.1388 -0.5872  0.0150
16678TIP3    H171525   0.804   2.063   5.133 -0.2508 -0.5114 -0.1827
16678TIP3    H271526   0.853   1.921   5.154 -0.8976 -0.5352  1.2776
16679TIP3   OH271527   4.166   0.949   4.423 -0.0977 -0.1121 -0.0982
16679TIP3    H171528   4.105   0.941   4.350 -0.9813 -1.1785  0.7108
16679TIP3    H271529   4.187   1.042   4.428 -0.7845  0.1050 -1.0930
16680TIP3   OH271530   5.892   1.996   1.121  0.1674 -0.2631 -0.3881
16680TIP3    H171531   5.797   1.989   1.129 -0.1877 -0.8137 -3.8202
16680TIP3    H271532   5.906   2.057   1.049  2.4600  0.1129  0.3004
16681TIP3   OH271533   5.248   2.777   2.842 -0.3856  0.6312  0.3855
16681TIP3    H171534   5.223   2.775   2.749  0.6728  1.2195  0.0689
16681TIP3    H271535   5.237   2.869   2.867 -1.8240  0.2727  1.2055
16682TIP3   OH271536   3.930   2.177   3.423 -0.4259  0.9317 -0.0383
16682TIP3    H171537   3.911   2.241   3.355  0.8413  1.7807  0.3712
16682TIP3    H271538   4.008   2.211   3.468  0.4047 -0.9685  0.0853
16683TIP3   OH271539   4.540   1.456   4.668 -0.0348  0.0141  0.1973
16683TIP3    H171540   4.557   1.550   4.673 -2.0338  0.5117 -1.0973
16683TIP3    H271541   4.531   1.428   4.759  1.0421  0.9446  0.6223
16684TIP3   OH271542   2.557   4.134  16.883  0.0467 -0.3779 -0.8702
16684TIP3    H171543   2.633   4.185  16.856  0.6672  0.5438  2.1664
16684TIP3    H271544   2.492   4.200  16.910 -0.9977 -1.1852 -1.3188
16685TIP3   OH271545   2.149   1.259   2.544 -0.0777 -0.7033  0.3153
16685TIP3    H171546   2.122   1.276   2.454  0.0505  0.4128  0.4720
16685TIP3    H271547   2.237   1.222   2.537  0.2648  0.1527  0.0066
16686TIP3   OH271548   4.617   1.730   3.324 -0.2372  0.4016  0.9099
16686TIP3    H171549   4.589   1.790   3.255 -2.1781 -0.5689  0.7834
16686TIP3    H271550   4.542   1.726   3.384 -0.5170 -2.4322  0.4962
16687TIP3   OH271551   2.994   2.244   4.534  0.2168 -0.6913  0.7281
16687TIP3    H171552   2.920   2.303   4.517 -0.5081 -1.9383 -0.6267
16687TIP3    H271553   3.061   2.272   4.472  0.6288 -0.0639  1.4299
16688TIP3   OH271554   4.851   0.035   0.910  0.1455  0.4520 -0.4135
16688TIP3    H171555   4.935   0.075   0.934  1.6691 -1.4048 -2.2964
16688TIP3    H271556   4.874  -0.042   0.859 -2.7494  0.4942 -2.0141
16689TIP3   OH271557   3.451   5.471   0.022 -0.1182 -0.2755 -0.2553
16689TIP3    H171558   3.367   5.430   0.004  1.3174 -2.7989 -1.8169
16689TIP3    H271559   3.494   5.412   0.085  1.3277 -0.2821 -1.1945
16690TIP3   OH271560   1.270   5.493   3.967 -0.4211  0.1065 -0.5964
16690TIP3    H171561   1.210   5.424   3.994  1.4949 -1.8727 -1.1390
16690TIP3    H271562   1.349   5.479   4.020  0.7305  0.6285 -2.0911
16691TIP3   OH271563   1.091   0.270  11.980  0.3459 -0.4410 -0.8205
16691TIP3    H171564   1.154   0.282  11.909  0.5551 -0.5021 -0.6452
16691TIP3    H271565   1.024   0.336  11.964  1.3850  0.8548  0.0238
16692TIP3   OH271566   6.759   3.302  11.721 -0.1291  0.2045 -0.1952
16692TIP3    H171567   6.792   3.297  11.811 -2.0253 -1.0814  0.4921
16692TIP3    H271568   6.729   3.213  11.702 -0.2322  0.5795 -1.9357
16693TIP3   OH271569   5.798   1.640  16.084  0.8249 -0.2493 -0.2743
16693TIP3    H171570   5.749   1.557  16.093 -0.2015  0.3831  0.1718
16693TIP3    H271571   5.751   1.701  16.140  1.0773  0.8680 -1.2443
16694TIP3   OH271572   2.505   4.828   2.094  0.2220  0.0857 -0.1621
16694TIP3    H171573   2.544   4.856   2.011 -0.5770  1.8335  0.0080
16694TIP3    H271574   2.577   4.786   2.141  1.2064  0.8471 -0.9384
16695TIP3   OH271575   4.067   3.891  12.487  0.4538 -0.1150 -0.2437
16695TIP3    H171576   4.142   3.913  12.432 -0.0425  0.4708 -0.6954
16695TIP3    H271577   4.071   3.951  12.561 -0.1404  0.6094 -0.7899
16696TIP3   OH271578   4.718   2.749   0.769 -0.1322  0.4451  0.3479
16696TIP3    H171579   4.624   2.757   0.785 -0.4347  0.2558 -1.1497
16696TIP3    H271580   4.734   2.804   0.693  1.1724  1.2665  1.1811
16697TIP3   OH271581   0.886   4.099  11.256  0.3693  0.1124 -0.7196
16697TIP3    H171582   0.808   4.110  11.309  0.7884  1.1398 -0.2905
16697TIP3    H271583   0.904   4.005  11.259 -0.2667  0.0056 -0.0005
16698TIP3   OH271584   4.283   1.920   4.700  0.5284 -0.3077  0.0375
16698TIP3    H171585   4.335   1.996   4.673  0.1929  0.6551  1.9626
16698TIP3    H271586   4.227   1.902   4.624 -0.0735  1.9862 -0.1484
16699TIP3   OH271587   6.464   4.996  13.214  0.2001  0.4924 -0.9181
16699TIP3    H171588   6.483   5.080  13.257  2.4085  0.1104 -1.0375
16699TIP3    H271589   6.494   5.008  13.124 -3.3641  0.9081 -2.2424
16700TIP3   OH271590   3.277   2.760   5.289  0.0113 -0.3318 -0.1841
16700TIP3    H171591   3.192   2.793   5.258 -0.0447  1.5132  1.7699
16700TIP3    H271592   3.254   2.686   5.346 -0.2678  0.0545  0.2060
16701TIP3   OH271593   1.434   5.469  13.263 -0.2811 -0.3214 -0.1724
16701TIP3    H171594   1.468   5.385  13.294 -0.6460 -0.5186 -0.3002
16701TIP3    H271595   1.490   5.491  13.188  0.0838 -0.2403  0.1202
16702TIP3   OH271596   2.151   0.034   4.754 -0.4663  0.3478  0.1388
16702TIP3    H171597   2.233   0.078   4.778  0.3985 -1.8676  1.6089
16702TIP3    H271598   2.086   0.072   4.813  0.1982 -0.1011  1.1922
16703TIP3   OH271599   2.008   4.426  15.990  0.1133  0.0472  0.2133
16703TIP3    H171600   2.074   4.455  16.053  0.1545  0.3551  0.0332
16703TIP3    H271601   1.947   4.499  15.983 -0.8848 -0.6653  1.2242
16704TIP3   OH271602   2.602   3.913   3.543 -0.0492  0.6867 -0.5713
16704TIP3    H171603   2.549   3.963   3.606 -0.6503 -0.3457 -0.2361
16704TIP3    H271604   2.692   3.929   3.570 -0.1412  2.5664 -1.2222
16705TIP3   OH271605   0.043   2.719  14.585 -0.1102  0.0521 -0.2676
16705TIP3    H171606   0.100   2.795  14.576  0.1979 -0.1997 -0.4496
16705TIP3    H271607   0.020   2.695  14.495 -0.2299 -0.0538 -0.2105
16706TIP3   OH271608   2.967   2.560  16.826  0.6504 -0.1089  0.0968
16706TIP3    H171609   2.887   2.512  16.806  0.0259  0.9449  0.0110
16706TIP3    H271610   3.036   2.512  16.779  0.0524 -0.9314  0.0411
16707TIP3   OH271611   0.931   1.358  10.663  0.6859 -0.3122  0.1688
16707TIP3    H171612   0.919   1.426  10.597 -1.8212  0.6829  1.5197
16707TIP3    H271613   0.941   1.406  10.746 -0.8074 -1.5206  1.1080
16708TIP3   OH271614   4.847   0.188   5.929 -0.1947  0.1365  0.4272
16708TIP3    H171615   4.767   0.142   5.905  1.0229 -1.5364 -0.5819
16708TIP3    H271616   4.884   0.218   5.846  1.1891 -0.7940  0.6666
16709TIP3   OH271617   4.017   0.462  12.801 -0.0203 -0.1150  0.1098
16709TIP3    H171618   4.007   0.369  12.817  0.8587 -0.2362  0.0233
16709TIP3    H271619   4.066   0.494  12.876  1.4047 -0.1066 -0.7763
16710TIP3   OH271620   5.112   0.898   3.255  0.1008  0.2432 -0.2640
16710TIP3    H171621   5.115   0.892   3.350 -0.9869 -0.4721 -0.2597
16710TIP3    H271622   5.034   0.951   3.237  0.1624  0.1665 -0.7669
16711TIP3   OH271623   4.115   6.410  16.714 -0.0692  0.0400 -0.1817
16711TIP3    H171624   4.030   6.451  16.699 -0.3141 -0.7709 -1.2006
16711TIP3    H271625   4.132   6.360  16.633  0.4401 -1.4250  0.7826
16712TIP3   OH271626   1.720   3.198   2.047  0.1299  0.3184 -0.2063
16712TIP3    H171627   1.792   3.140   2.067  0.0249  0.3190  0.1741
16712TIP3    H271628   1.746   3.241   1.965  0.4070  0.0741 -0.2475
16713TIP3   OH271629   2.634   6.518   3.604  1.0609 -0.1901  0.8910
16713TIP3    H171630   2.618   6.423   3.603  0.0667 -0.0311  0.0664
16713TIP3    H271631   2.688   6.533   3.527  0.0638  0.0809  0.2242
16714TIP3   OH271632   2.911   0.155  16.441  0.1507  0.5280 -0.5706
16714TIP3    H171633   2.912   0.251  16.437  2.4712  0.6317  0.5502
16714TIP3    H271634   2.823   0.133  16.473  0.5050  2.5094  2.1807
16715TIP3   OH271635   3.595   3.344  13.877  0.1905  0.0652  0.0066
16715TIP3    H171636   3.539   3.335  13.954  0.8786 -1.8252  0.3456
16715TIP3    H271637   3.537   3.325  13.803  0.2080 -1.3246  0.3173
16716TIP3   OH271638   0.002   3.766  16.537  0.5284 -0.5991 -0.0428
16716TIP3    H171639   0.098   3.765  16.531  0.5100 -2.6124 -0.4475
16716TIP3    H271640  -0.028   3.733  16.453 -0.4928 -0.8777  0.4192
16717TIP3   OH271641   3.976   4.658   3.440 -0.3944  0.0411  0.1168
16717TIP3    H171642   3.975   4.750   3.466 -0.2294  0.6274 -1.8106
16717TIP3    H271643   3.911   4.617   3.498 -1.0794  1.5188  0.4615
16718TIP3   OH271644   3.268   5.431  16.171 -0.5120 -0.8713 -0.2528
16718TIP3    H171645   3.320   5.496  16.125 -1.6831  0.0247 -0.3854
16718TIP3    H271646   3.284   5.449  16.264 -1.4030  0.1377 -0.2728
16719TIP3   OH271647   0.585   6.762  13.103  0.1024  0.3132  0.4628
16719TIP3    H171648   0.539   6.756  13.187  1.1100  0.5514  1.0481
16719TIP3    H271649   0.622   6.675  13.089  2.4158  1.0044  1.7561
16720TIP3   OH271650   0.376   2.546   0.099  0.1140 -0.2366 -0.3943
16720TIP3    H171651   0.340   2.624   0.142  0.7381  0.3608 -0.9434
16720TIP3    H271652   0.310   2.478   0.115  0.1654  0.0427  1.2206
16721TIP3   OH271653   6.321   3.153  13.311  0.4281  0.2012  0.2254
16721TIP3    H171654   6.367   3.117  13.387 -0.8066  0.7330  1.2780
16721TIP3    H271655   6.335   3.248  13.319  0.9648  0.2092 -0.6915
16722TIP3   OH271656   1.024   5.754  15.576  0.3277 -0.4333  0.3415
16722TIP3    H171657   0.984   5.756  15.489 -2.0704  0.6368  1.3724
16722TIP3    H271658   1.073   5.672  15.578 -1.0612 -1.3795 -1.3924
16723TIP3   OH271659   4.840   3.781  16.224 -0.2578  0.0559  0.0156
16723TIP3    H171660   4.862   3.778  16.131  1.0711 -0.0842  0.3231
16723TIP3    H271661   4.777   3.853  16.231 -1.0132 -0.4686 -1.1056
16724TIP3   OH271662   5.870   1.063   1.295  0.1921  0.1261 -0.4534
16724TIP3    H171663   5.936   1.028   1.236  0.0218  1.6779 -1.6418
16724TIP3    H271664   5.920   1.098   1.368  0.4745 -0.9794 -0.0972
16725TIP3   OH271665   4.275   3.663  12.942  0.5547 -0.3788  0.3297
16725TIP3    H171666   4.366   3.646  12.968  0.0799 -0.6964  1.9088
16725TIP3    H271667   4.227   3.586  12.973 -0.3240 -0.0043 -0.0786
16726TIP3   OH271668   0.087   5.469   3.110 -0.6091  0.2447  0.4614
16726TIP3    H171669   0.004   5.503   3.076  0.2570  0.6633 -1.3571
16726TIP3    H271670   0.137   5.444   3.032  0.6414 -0.8480  1.5497
16727TIP3   OH271671   3.088   3.815   0.798 -0.1636  0.2737 -0.2280
16727TIP3    H171672   3.150   3.874   0.754 -0.0074  0.2612 -0.0263
16727TIP3    H271673   3.112   3.820   0.890 -0.3726  0.1569 -0.1676
16728TIP3   OH271674   4.531   2.937  17.119  0.7799 -0.1335  0.2127
16728TIP3    H171675   4.603   2.873  17.117  1.5041  0.6170 -2.5474
16728TIP3    H271676   4.468   2.904  17.055 -1.0721 -0.3918  2.0693
16729TIP3   OH271677   1.180   4.510   5.130  0.1972 -0.8826 -0.1907
16729TIP3    H171678   1.178   4.534   5.222 -0.5394  1.4270 -0.7383
16729TIP3    H271679   1.267   4.535   5.100  0.6934 -2.2903 -0.0103
16730TIP3   OH271680   0.503   2.131   0.490 -0.2549  0.2718 -0.0708
16730TIP3    H171681   0.590   2.155   0.458 -0.3551 -0.6984 -1.1559
16730TIP3    H271682   0.506   2.149   0.584  1.6428 -1.1511  0.2157
16731TIP3   OH271683   6.771   0.951  13.307  0.4071  0.0700 -0.1103
16731TIP3    H171684   6.760   0.912  13.220  0.3251 -0.4212  0.1173
16731TIP3    H271685   6.830   0.890  13.352 -0.1352 -0.0628  0.4233
16732TIP3   OH271686   1.809   0.814  17.001 -0.1498 -0.2428  0.8468
16732TIP3    H171687   1.858   0.856  17.072 -1.3094  2.9470 -0.0343
16732TIP3    H271688   1.718   0.841  17.017 -0.9158 -2.0893 -0.1305
16733TIP3   OH271689   2.369   1.162   5.077 -0.2946  0.4701  0.7891
16733TIP3    H171690   2.330   1.082   5.042  0.8500  0.1790  0.1388
16733TIP3    H271691   2.314   1.184   5.152 -0.3401 -1.2040  1.2930
16734TIP3   OH271692   5.508   3.026  13.767 -0.8989  0.1286  0.3750
16734TIP3    H171693   5.417   3.010  13.744 -0.9884  1.5149 -0.3173
16734TIP3    H271694   5.558   2.992  13.693 -0.9057  0.2703  0.3058
16735TIP3   OH271695   5.869   2.704  13.286 -0.6268  1.5181 -0.3335
16735TIP3    H171696   5.783   2.674  13.316 -0.6169  1.3211 -0.4946
16735TIP3    H271697   5.851   2.759  13.210 -0.6360  1.8201 -0.1150
16736TIP3   OH271698   3.344   5.131  13.748  0.1473  0.3728  0.9089
16736TIP3    H171699   3.292   5.075  13.806  0.7230  1.1563  2.2087
16736TIP3    H271700   3.377   5.200  13.804  0.4183  1.3794 -0.4439
16737TIP3   OH271701   6.541   2.968  13.420 -0.4528 -0.3018  0.2144
16737TIP3    H171702   6.484   2.964  13.496 -0.6052 -1.0296  0.0717
16737TIP3    H271703   6.518   2.891  13.368  0.8617 -0.7737  0.2990
16738TIP3   OH271704   0.787   5.258  11.908 -0.7434 -0.0653  0.2098
16738TIP3    H171705   0.759   5.220  11.825 -0.7042 -0.2502  0.2822
16738TIP3    H271706   0.821   5.185  11.959  0.0357  0.1847  0.0585
16739TIP3   OH271707   6.512   5.727   0.796 -0.5091  0.1616  0.0480
16739TIP3    H171708   6.566   5.728   0.717 -0.1415 -0.1777  0.2875
16739TIP3    H271709   6.461   5.647   0.789 -0.0604 -0.1651  0.4203
16740TIP3   OH271710   2.144   2.944  12.639  0.7048  0.0550 -0.3459
16740TIP3    H171711   2.123   2.854  12.664 -1.0738 -0.3321 -2.9062
16740TIP3    H271712   2.067   2.994  12.664  1.1519  0.6427 -0.1282
16741TIP3   OH271713   0.999   6.579  11.791  0.1760 -0.2352  0.2591
16741TIP3    H171714   1.040   6.569  11.877 -0.5613  2.4660  0.9995
16741TIP3    H271715   1.058   6.637  11.742 -0.3335 -0.2638 -0.4066
16742TIP3   OH271716   5.393   2.222   0.883  0.2131 -0.2037  0.1759
16742TIP3    H171717   5.401   2.158   0.955 -0.7725 -1.6337 -0.9053
16742TIP3    H271718   5.301   2.250   0.888 -0.0010 -0.7009 -0.8075
16743TIP3   OH271719   2.968   4.326  12.435  0.0812  0.0262 -0.4136
16743TIP3    H171720   2.935   4.326  12.526 -2.5623 -0.2659 -1.2691
16743TIP3    H271721   2.993   4.235  12.419  1.7926  0.3283  0.3859
16744TIP3   OH271722   2.150   1.697   2.903 -0.0930  0.0673  0.2362
16744TIP3    H171723   2.121   1.786   2.881 -1.1840 -0.3573 -0.0808
16744TIP3    H271724   2.092   1.640   2.854 -0.5558 -0.8643  1.8185
16745TIP3   OH271725   6.487   3.828   1.285 -0.8975 -0.4513  0.9811
16745TIP3    H171726   6.428   3.885   1.334 -0.3206 -1.0421  2.4213
16745TIP3    H271727   6.547   3.794   1.351  1.7180  0.8816 -0.5253
16746TIP3   OH271728   3.097   2.436   1.700 -0.3797  0.3504 -0.8013
16746TIP3    H171729   3.162   2.481   1.647  1.6457  0.4775  1.6513
16746TIP3    H271730   3.112   2.343   1.682  1.3771  0.3093  0.6284
16747TIP3   OH271731   5.843   2.365  16.790 -0.2421 -0.6713 -0.2257
16747TIP3    H171732   5.790   2.293  16.825 -1.0415  0.1313  0.2645
16747TIP3    H271733   5.821   2.439  16.846  3.1523 -0.8124  1.5022
16748TIP3   OH271734   4.698   0.258   0.515  0.7300  0.1274  0.2337
16748TIP3    H171735   4.792   0.250   0.501  0.8282 -0.1935  1.0467
16748TIP3    H271736   4.688   0.337   0.568  0.4674  0.5991 -0.4956
16749TIP3   OH271737   2.216   1.057  11.596 -0.1787  0.1866 -0.0775
16749TIP3    H171738   2.212   1.063  11.691 -1.0995  1.8128 -0.1833
16749TIP3    H271739   2.178   0.972  11.576  3.0876 -1.7477  1.1204
16750TIP3   OH271740   3.141   1.695  13.415  0.6337  0.7636 -0.4096
16750TIP3    H171741   3.142   1.624  13.479  0.2142  0.4804 -0.7067
16750TIP3    H271742   3.095   1.767  13.460  0.4551  0.6113 -0.3454
16751TIP3   OH271743   3.308   2.862  15.876  0.4696 -0.2227 -0.5703
16751TIP3    H171744   3.273   2.779  15.841 -0.8908  0.2469 -0.3666
16751TIP3    H271745   3.370   2.834  15.944  0.6295 -1.0817 -1.0412
16752TIP3   OH271746   3.997   6.380  13.756 -0.1488  0.3489 -0.4513
16752TIP3    H171747   3.995   6.474  13.742 -1.9847  0.3781 -0.2806
16752TIP3    H271748   3.972   6.342  13.672 -1.3438  0.1144 -0.0083
16753TIP3   OH271749   0.246   2.494   0.458 -0.4162  0.1142  0.7411
16753TIP3    H171750   0.222   2.534   0.541  1.0849  0.0341  1.2559
16753TIP3    H271751   0.342   2.499   0.456 -0.4193  0.1287 -0.9981
16754TIP3   OH271752   0.376   2.243  16.665  0.0810  0.5322  0.2310
16754TIP3    H171753   0.318   2.244  16.741 -0.8772 -3.0283 -0.2966
16754TIP3    H271754   0.452   2.295  16.692  0.3810 -1.5761  4.1860
16755TIP3   OH271755   0.918   1.993  14.482 -0.4999 -0.2454 -0.1295
16755TIP3    H171756   0.968   2.062  14.438 -1.8898  1.2897  0.5352
16755TIP3    H271757   0.901   1.928  14.413  0.7313  0.1327 -0.8235
16756TIP3   OH271758   5.284   6.080  13.015  0.4265  0.2557  0.4876
16756TIP3    H171759   5.205   6.032  12.992 -0.2042  1.2350  0.5359
16756TIP3    H271760   5.350   6.053  12.951  0.3121 -1.2179  0.9712
16757TIP3   OH271761   3.032   2.181  15.996 -0.5750  0.1893 -0.0364
16757TIP3    H171762   2.996   2.187  15.908  0.1259 -0.7143 -0.3974
16757TIP3    H271763   2.996   2.257  16.042 -2.5608 -0.4066 -0.5025
16758TIP3   OH271764   3.055   2.968   5.605 -0.3774  0.7954  0.7945
16758TIP3    H171765   2.984   3.030   5.615 -0.6674  0.6757 -0.3041
16758TIP3    H271766   3.132   3.022   5.587 -0.7008  0.8550 -0.5350
16759TIP3   OH271767   5.611   2.241  11.616  0.4072 -0.1690  0.2376
16759TIP3    H171768   5.703   2.218  11.604  0.8136  1.2302  0.4827
16759TIP3    H271769   5.603   2.261  11.709 -0.6607 -2.2916  0.6598
16760TIP3   OH271770   4.147   0.571   5.926  0.2506 -0.3517  0.3203
16760TIP3    H171771   4.242   0.576   5.937  0.0642  1.1824  1.5672
16760TIP3    H271772   4.112   0.602   6.009 -1.3581 -0.5427 -0.2546
16761TIP3   OH271773   5.751   6.412   5.019  0.3006 -0.0921 -0.4739
16761TIP3    H171774   5.720   6.328   4.986 -0.7137 -0.1634  0.5887
16761TIP3    H271775   5.683   6.440   5.081  1.6711  0.4656  0.8401
16762TIP3   OH271776   2.793   2.132  16.873 -0.4082  0.5691 -0.0045
16762TIP3    H171777   2.717   2.188  16.858 -0.4851  0.0092 -1.8920
16762TIP3    H271778   2.767   2.046  16.839  0.3189 -0.2052  1.2971
16763TIP3   OH271779   6.076   4.099   0.581  0.0921  0.6048 -0.5015
16763TIP3    H171780   6.133   4.176   0.591 -0.4235  0.8596  0.6368
16763TIP3    H271781   6.113   4.034   0.641 -0.2527  0.4423 -0.4608
16764TIP3   OH271782   2.883   2.254   1.502  0.7517 -0.1511  0.3683
16764TIP3    H171783   2.884   2.348   1.521 -0.8184 -0.2515  1.1546
16764TIP3    H271784   2.833   2.216   1.575 -0.9668 -1.2497 -1.3000
16765TIP3   OH271785   1.797   4.651   5.626  0.1667 -0.2975 -0.1979
16765TIP3    H171786   1.768   4.574   5.576  0.7132 -0.5748 -0.0919
16765TIP3    H271787   1.803   4.620   5.716  0.4375 -0.1441 -0.1630
16766TIP3   OH271788   6.451   6.606  15.509  0.2433 -0.1142  0.3020
16766TIP3    H171789   6.505   6.548  15.562 -0.5214 -1.1298  0.0067
16766TIP3    H271790   6.453   6.568  15.421 -1.8739 -0.8982  0.5327
16767TIP3   OH271791   1.975   5.180  15.925  0.0186 -0.0307  0.4536
16767TIP3    H171792   1.979   5.236  16.003  1.2757  1.4456 -0.6213
16767TIP3    H271793   2.018   5.099  15.952 -2.8712 -1.0714  2.4088
16768TIP3   OH271794   5.569   2.915  16.134 -0.0110  0.3938  0.5044
16768TIP3    H171795   5.572   2.878  16.046  0.9592  2.1185 -0.2380
16768TIP3    H271796   5.659   2.912  16.164 -0.4773 -1.1461  1.9214
16769TIP3   OH271797   0.576   4.713   5.832 -0.3919  0.1279 -0.1819
16769TIP3    H171798   0.529   4.672   5.904 -0.4862 -0.0397 -0.3385
16769TIP3    H271799   0.643   4.767   5.874 -0.5473  0.1512  0.0333
16770TIP3   OH271800   3.037   4.373   5.373  0.1217 -0.3238  0.0641
16770TIP3    H171801   3.009   4.377   5.282 -0.7905  1.7962  0.3763
16770TIP3    H271802   3.121   4.418   5.374  0.4005 -0.8393  0.1970
16771TIP3   OH271803   6.646   6.175  10.676 -0.5067 -0.0242 -0.1810
16771TIP3    H171804   6.622   6.265  10.653 -0.6095 -0.1615 -0.6332
16771TIP3    H271805   6.574   6.122  10.643 -1.3391 -0.1351  1.6962
16772TIP3   OH271806   6.777   0.588  14.735  0.1172  0.4382 -0.2823
16772TIP3    H171807   6.757   0.611  14.645  2.0680  0.3974 -0.7748
16772TIP3    H271808   6.843   0.652  14.763  1.3570 -0.9855  0.2468
16773TIP3   OH271809   6.110   3.733  10.575  0.1404 -0.4893 -0.2647
16773TIP3    H171810   6.116   3.753  10.668 -0.0035 -2.1171  0.1182
16773TIP3    H271811   6.106   3.819  10.532 -0.0242  0.2778  1.2313
16774TIP3   OH271812   4.318   2.573  10.984  1.2117  0.1773  0.6882
16774TIP3    H171813   4.260   2.614  10.920 -0.3543 -0.4467  1.6393
16774TIP3    H271814   4.329   2.484  10.953 -0.6374 -0.5417  1.8669
16775TIP3   OH271815   1.271   6.113   0.208  0.2938 -0.2345  0.0548
16775TIP3    H171816   1.340   6.047   0.208  1.7820  1.2582  0.8458
16775TIP3    H271817   1.287   6.166   0.130 -0.3503 -0.2423 -0.0939
16776TIP3   OH271818   0.681   6.372   2.132 -0.1800 -0.0725 -0.4517
16776TIP3    H171819   0.684   6.344   2.040 -0.6322  2.3430 -1.2833
16776TIP3    H271820   0.650   6.463   2.128  0.1924  0.2356  2.0785
16777TIP3   OH271821   4.669   0.162  15.224 -0.5931  0.4093  0.6485
16777TIP3    H171822   4.581   0.131  15.204 -0.1822  0.7876 -2.1642
16777TIP3    H271823   4.679   0.240  15.170  1.3812  0.5158  1.1122
16778TIP3   OH271824   0.275   6.201  14.161  0.0479  0.1856 -0.2578
16778TIP3    H171825   0.261   6.240  14.247  0.8201 -0.0080 -0.0355
16778TIP3    H271826   0.304   6.112  14.180 -0.4407 -0.0849 -0.7392
16779TIP3   OH271827   3.756   2.522   3.041  0.2700  0.3434 -0.0178
16779TIP3    H171828   3.743   2.573   3.121  1.7091  0.3747  0.2126
16779TIP3    H271829   3.819   2.455   3.065 -0.3307 -0.5156 -0.7765
16780TIP3   OH271830   0.189   3.777  15.998  0.1197  0.0567 -0.5481
16780TIP3    H171831   0.205   3.738  15.912  1.1328 -1.0314  0.0932
16780TIP3    H271832   0.097   3.802  15.997  0.1576  0.2146 -1.9957
16781TIP3   OH271833   5.261   4.804  14.232  0.0859  0.2676  0.2887
16781TIP3    H171834   5.208   4.842  14.162  1.2576 -1.3317 -1.5819
16781TIP3    H271835   5.345   4.850  14.226 -0.5009  1.7728  2.2887
16782TIP3   OH271836   4.952   6.755  14.825 -0.3664 -0.4037  0.6599
16782TIP3    H171837   4.986   6.666  14.819  1.6570  0.0505  3.1686
16782TIP3    H271838   5.012   6.807  14.771 -1.9389 -0.5793 -1.3426
16783TIP3   OH271839   6.354   2.180   1.228  0.3042 -0.0319 -0.0060
16783TIP3    H171840   6.349   2.250   1.294  1.2492  0.2774 -0.2619
16783TIP3    H271841   6.335   2.223   1.145 -1.8696 -0.5944  0.1302
16784TIP3   OH271842   3.390   3.677   6.660 -0.3009  0.2765 -0.3180
16784TIP3    H171843   3.466   3.705   6.609 -0.8244  1.0783 -0.6773
16784TIP3    H271844   3.427   3.642   6.741  0.3859  2.0846  0.1793
16785TIP3   OH271845   1.492   1.564  11.896  0.0627  0.1111 -0.2875
16785TIP3    H171846   1.419   1.624  11.914  1.2845  1.5216  0.1554
16785TIP3    H271847   1.564   1.596  11.951  1.1892 -0.9211 -1.1017
16786TIP3   OH271848   3.907   6.000  10.423  0.3435  0.0879 -0.3084
16786TIP3    H171849   3.943   6.048  10.497  1.8177 -1.5385  0.0801
16786TIP3    H271850   3.820   6.037  10.411  0.6354  1.4025  1.2757
16787TIP3   OH271851   4.941   3.480  15.006 -0.7149 -0.0911  0.2495
16787TIP3    H171852   4.881   3.553  14.990 -0.9104  0.2196  2.1460
16787TIP3    H271853   4.941   3.431  14.924  1.5430  3.4441 -2.1654
16788TIP3   OH271854   0.917   0.753   0.817  0.0478 -0.0497  0.8198
16788TIP3    H171855   0.967   0.752   0.735 -1.1690 -0.3931  0.0728
16788TIP3    H271856   0.887   0.844   0.825 -0.4539 -0.1887  0.5063
16789TIP3   OH271857   3.532   6.306   4.354 -0.7203 -0.8544  0.5628
16789TIP3    H171858   3.626   6.288   4.360 -0.9973 -2.0818  1.6267
16789TIP3    H271859   3.504   6.258   4.276 -0.6080 -1.1782  0.7197
16790TIP3   OH271860   4.024   4.251  14.973 -0.4017 -0.6066  0.1547
16790TIP3    H171861   4.034   4.228  14.880 -2.7224 -0.7988 -0.0920
16790TIP3    H271862   4.058   4.174  15.020 -0.7625 -1.2316 -0.5729
16791TIP3   OH271863   4.612   4.999   0.459 -0.3113  0.6278 -0.1498
16791TIP3    H171864   4.682   5.012   0.523 -2.3137 -0.4576  2.4608
16791TIP3    H271865   4.557   5.077   0.467 -0.1170  0.9034 -1.2678
16792TIP3   OH271866   1.555   6.183   0.929 -0.1621 -0.0137 -0.3180
16792TIP3    H171867   1.596   6.200   1.013  0.5160 -0.4161 -0.5663
16792TIP3    H271868   1.513   6.097   0.939  0.6019 -0.4337 -0.6388
16793TIP3   OH271869   2.905   0.637  16.550  0.3877  0.1331 -0.4124
16793TIP3    H171870   2.812   0.650  16.570  0.1808 -0.3479 -1.0458
16793TIP3    H271871   2.924   0.700  16.481  0.5370  0.2247 -0.2893
16794TIP3   OH271872   1.920   0.354   4.752 -0.4278  0.6313 -0.1495
16794TIP3    H171873   1.850   0.338   4.689  1.8341 -0.6549 -2.5069
16794TIP3    H271874   1.930   0.272   4.799 -0.6125  0.8746  0.3223
16795TIP3   OH271875   2.129   4.969   5.340 -0.2738 -0.0185  0.2132
16795TIP3    H171876   2.163   5.058   5.344  0.1457 -0.0921 -1.2602
16795TIP3    H271877   2.132   4.946   5.247  1.1766 -2.1424  0.7119
16796TIP3   OH271878   0.436   0.959   1.942  0.4153 -0.3314  0.0422
16796TIP3    H171879   0.529   0.976   1.955  0.2172 -0.4823  2.0705
16796TIP3    H271880   0.426   0.866   1.965 -0.1307 -0.4964 -0.8293
16797TIP3   OH271881   4.864   1.538   4.810  0.4366  0.2304 -0.7928
16797TIP3    H171882   4.947   1.569   4.845  1.0343  0.4014 -2.2735
16797TIP3    H271883   4.797   1.580   4.864  1.3014 -0.1889  0.6483
16798TIP3   OH271884   4.858   6.334   1.901 -0.0092 -0.1432  0.2618
16798TIP3    H171885   4.798   6.377   1.840  0.9711  3.4657  1.6189
16798TIP3    H271886   4.802   6.274   1.950 -2.4044  2.3431  0.8031
16799TIP3   OH271887   0.532   5.671   0.117 -0.1383  0.4992  0.3954
16799TIP3    H171888   0.606   5.724   0.146  0.7091  0.1389 -0.9850
16799TIP3    H271889   0.477   5.731   0.066  1.6314 -0.1524 -2.5330
16800TIP3   OH271890   0.001   4.696  13.203 -0.6271 -0.7257 -0.6628
16800TIP3    H171891  -0.065   4.628  13.214 -3.3653  1.7212 -0.6637
16800TIP3    H271892   0.027   4.718  13.292  0.7097 -2.0847 -0.6814
16801TIP3   OH271893   3.771   5.050  16.312  0.4364  0.1236  0.3965
16801TIP3    H171894   3.862   5.022  16.306  0.9478  1.8180 -0.2518
16801TIP3    H271895   3.774   5.145  16.301 -1.3879  0.2447  0.6213
16802TIP3   OH271896   2.905   5.288   5.497 -0.0672 -0.5119  0.0364
16802TIP3    H171897   2.923   5.254   5.409  0.2001 -0.9035  0.2383
16802TIP3    H271898   2.917   5.212   5.554 -1.8175 -0.6798  0.2434
16803TIP3   OH271899   1.540   4.480  11.626 -0.2130 -0.2126  0.1927
16803TIP3    H171900   1.537   4.435  11.710 -1.5517  1.0195  0.8609
16803TIP3    H271901   1.585   4.562  11.644 -0.1178 -0.1302 -0.3927
16804TIP3   OH271902   2.125   3.608   2.841 -0.3891  0.4797  0.3147
16804TIP3    H171903   2.056   3.578   2.783 -0.7692  0.8401  0.5702
16804TIP3    H271904   2.165   3.683   2.796 -0.1345  0.2444  0.1476
16805TIP3   OH271905   6.639   0.459   1.361  0.2445 -0.3841  0.1262
16805TIP3    H171906   6.613   0.550   1.379  1.2089  0.3717 -1.9080
16805TIP3    H271907   6.734   0.460   1.368  0.2865 -1.1343 -0.3096
16806TIP3   OH271908   4.133   1.546   6.266  0.0708  0.3586 -0.2805
16806TIP3    H171909   4.126   1.534   6.361  1.5761  2.1391  0.1078
16806TIP3    H271910   4.196   1.479   6.239 -1.0882 -0.8015 -0.2284
16807TIP3   OH271911   3.662   6.231  17.049 -0.0879 -0.4832 -0.1524
16807TIP3    H171912   3.599   6.281  16.998 -0.0379 -1.5261 -1.3012
16807TIP3    H271913   3.747   6.271  17.030 -0.4152  1.3986  1.9823
16808TIP3   OH271914   1.726   0.156   9.988 -0.5382  0.5435  0.0078
16808TIP3    H171915   1.675   0.146  10.069  1.7867 -1.4422  1.3481
16808TIP3    H271916   1.782   0.232  10.004  1.0921 -0.8032  1.0409
16809TIP3   OH271917   1.955   0.144   3.118 -0.3782  0.2800  0.0269
16809TIP3    H171918   1.988   0.194   3.193 -1.9712 -1.8884  2.3568
16809TIP3    H271919   1.878   0.193   3.088  2.0640  2.9409 -2.5368
16810TIP3   OH271920   0.702   5.903   0.527  0.3128  0.0919  0.0242
16810TIP3    H171921   0.679   5.810   0.525  1.0336 -0.1028  0.2815
16810TIP3    H271922   0.694   5.927   0.620  0.9455  0.0645  0.0910
16811TIP3   OH271923   6.178   4.595   5.547  0.1056 -0.0356  0.2107
16811TIP3    H171924   6.268   4.609   5.517  0.9833 -2.0010  1.6994
16811TIP3    H271925   6.163   4.664   5.611  1.1743 -0.6019  1.1087
16812TIP3   OH271926   0.492   2.051  14.799 -0.0066  0.0673  0.3167
16812TIP3    H171927   0.464   2.078  14.887  0.6374  2.9396 -0.2650
16812TIP3    H271928   0.537   1.968  14.813 -0.8612 -0.1045  2.5285
16813TIP3   OH271929   3.020   5.917  11.841 -0.1281 -0.4603 -0.0308
16813TIP3    H171930   3.089   5.920  11.774 -0.6255 -0.7739 -0.5574
16813TIP3    H271931   3.040   5.992  11.897  0.4464 -0.3415 -0.3769
16814TIP3   OH271932   3.492   3.881  12.280 -0.5278 -0.2980 -0.4658
16814TIP3    H171933   3.403   3.864  12.309 -0.3593 -0.9679 -0.3170
16814TIP3    H271934   3.524   3.949  12.340 -0.7214 -0.5249 -0.1010
16815TIP3   OH271935   6.740   2.238   1.440  0.0113  0.2457 -0.0370
16815TIP3    H171936   6.827   2.218   1.474 -0.1580 -0.5696 -0.0519
16815TIP3    H271937   6.738   2.333   1.431  0.0573  0.5218  2.2430
16816TIP3   OH271938   4.037   0.403   3.493  0.6511 -0.1787  0.1658
16816TIP3    H171939   4.014   0.452   3.414  0.6303  0.1651  0.3845
16816TIP3    H271940   3.970   0.427   3.557  0.3907 -0.8231  0.1459
16817TIP3   OH271941   6.276   2.404   2.387 -0.2337 -0.3161 -0.7372
16817TIP3    H171942   6.282   2.499   2.375 -0.0926 -0.0048  1.4131
16817TIP3    H271943   6.206   2.392   2.450 -1.9533 -1.8724 -2.7778
16818TIP3   OH271944   2.635   4.615  16.224 -0.6693  0.8176 -0.2852
16818TIP3    H171945   2.621   4.578  16.311  0.5469  0.8946 -0.0386
16818TIP3    H271946   2.728   4.635  16.222 -0.9073  1.8920 -1.1940
16819TIP3   OH271947   0.393   0.170   2.262  0.0610 -0.3148  0.3505
16819TIP3    H171948   0.470   0.192   2.210  0.0410 -1.8509 -0.3694
16819TIP3    H271949   0.427   0.117   2.335 -0.2634 -0.6754  0.2422
16820TIP3   OH271950   6.025   4.867   2.567 -0.3773 -0.7249  0.3178
16820TIP3    H171951   6.025   4.859   2.472 -0.0175 -2.6635  0.4417
16820TIP3    H271952   5.983   4.951   2.584 -1.4810 -0.8451 -1.5182
16821TIP3   OH271953   1.966   0.549   3.565  0.0578 -0.0589  0.2151
16821TIP3    H171954   1.903   0.556   3.494  0.5542 -0.7764 -0.3200
16821TIP3    H271955   1.962   0.457   3.591  0.2749  0.0806  0.7402
16822TIP3   OH271956   3.105   1.232   4.681  0.0450 -0.1175  0.3746
16822TIP3    H171957   3.185   1.272   4.715 -0.0439 -0.5275  1.0768
16822TIP3    H271958   3.085   1.283   4.602 -0.1661  1.3259  1.3273
16823TIP3   OH271959   4.399   5.465  17.200  0.4048  0.3095  0.3170
16823TIP3    H171960   4.370   5.376  17.223 -0.6703  0.4188 -0.5231
16823TIP3    H271961   4.466   5.486  17.265  1.0140 -1.2939  0.2713
16824TIP3   OH271962   6.438   5.352  15.275  0.7369 -0.8184 -0.5291
16824TIP3    H171963   6.490   5.284  15.232  0.6503  0.0724 -2.1177
16824TIP3    H271964   6.348   5.336  15.246  0.9302  0.9240 -2.3635
16825TIP3   OH271965   3.772   2.967   1.152 -0.3958  0.4204  0.2333
16825TIP3    H171966   3.697   2.953   1.095 -0.0650 -0.5064 -0.0017
16825TIP3    H271967   3.841   2.911   1.114 -0.3731 -0.7682  1.9186
16826TIP3   OH271968   2.784   4.726   4.974 -0.1203  0.1993 -0.2626
16826TIP3    H171969   2.772   4.816   5.003 -3.7263 -0.5798  1.2212
16826TIP3    H271970   2.786   4.675   5.056 -0.1064 -1.2138 -1.1038
16827TIP3   OH271971   2.661   6.172   3.094 -0.0677  0.0807  0.1932
16827TIP3    H171972   2.624   6.093   3.054  0.5420 -0.9827  1.6632
16827TIP3    H271973   2.594   6.239   3.079  0.1799 -0.2108 -2.6607
16828TIP3   OH271974   2.040   1.495   5.683  0.0278  0.0235  0.6696
16828TIP3    H171975   1.971   1.539   5.733 -0.1093  0.7954 -0.1731
16828TIP3    H271976   1.999   1.471   5.600  0.6250  0.0142  0.3691
16829TIP3   OH271977   2.503   6.829  15.437  0.3647  0.1864 -0.8812
16829TIP3    H171978   2.471   6.741  15.418  2.3773 -1.4122  2.2263
16829TIP3    H271979   2.441   6.864  15.500 -0.2029  0.8659 -1.7996
16830TIP3   OH271980   5.233   4.631  14.444  0.1483  0.3460  0.2607
16830TIP3    H171981   5.225   4.540  14.417  0.0193  0.1162  1.0493
16830TIP3    H271982   5.266   4.677  14.367  1.4971 -0.5937  0.2549
16831TIP3   OH271983   5.873   6.259  13.008  0.6608  0.2572 -0.2045
16831TIP3    H171984   5.878   6.211  12.925  3.8603 -1.3665  0.7720
16831TIP3    H271985   5.870   6.191  13.075 -4.3071  1.4553  1.1912
16832TIP3   OH271986   0.906   4.315   5.704 -0.4519  0.2709 -0.3240
16832TIP3    H171987   0.868   4.397   5.672 -0.7674  0.0642 -0.5000
16832TIP3    H271988   0.858   4.296   5.785 -0.1037  0.4643 -0.0753
16833TIP3   OH271989   0.266   3.437   3.168  0.2931  0.6800 -0.5557
16833TIP3    H171990   0.256   3.345   3.194  1.7979  1.0220  1.4363
16833TIP3    H271991   0.355   3.441   3.132  1.7415  1.9740  2.7534
16834TIP3   OH271992   6.016   1.844   5.703 -0.2676  0.2189  0.0689
16834TIP3    H171993   6.006   1.821   5.611  0.2740 -2.9510  0.6887
16834TIP3    H271994   5.934   1.886   5.727 -0.8155  0.1454 -1.5790
16835TIP3   OH271995   5.109   3.661  16.121  0.2569  0.9746 -0.4523
16835TIP3    H171996   5.155   3.593  16.072 -0.7563 -2.0874  2.4044
16835TIP3    H271997   5.020   3.658  16.088  0.0965  0.4885 -0.0018
16836TIP3   OH271998   5.598   1.592  11.593 -0.4655 -0.2894 -0.4090
16836TIP3    H171999   5.589   1.557  11.504  1.6850  0.4503 -0.9743
16836TIP3    H272000   5.580   1.517  11.650 -3.6905 -0.3701 -1.3209
16837TIP3   OH272001   5.463   3.974   3.946 -0.4859  0.1499 -1.0110
16837TIP3    H172002   5.473   3.987   3.852  0.4710 -0.1415 -0.9636
16837TIP3    H272003   5.540   4.017   3.985 -1.6458  1.5825 -0.2328
16838TIP3   OH272004   3.282   5.141  16.835  0.1372 -0.1054 -0.3596
16838TIP3    H172005   3.314   5.091  16.760  0.3122 -0.9031  0.2258
16838TIP3    H272006   3.296   5.232  16.811 -0.1149 -0.3261 -1.4298
16839TIP3   OH272007   6.425   4.798  16.767  0.0547 -0.9562 -0.0734
16839TIP3    H172008   6.430   4.850  16.687 -0.0488 -2.0135 -0.7899
16839TIP3    H272009   6.514   4.802  16.803  0.4947 -1.6748 -1.0331
16840TIP3   OH272010   0.022   3.482   2.193  0.3621 -0.8930 -0.7294
16840TIP3    H172011   0.082   3.465   2.120 -0.1827  0.1444 -1.4553
16840TIP3    H272012   0.016   3.399   2.239  0.2981 -1.7491 -2.1957
16841TIP3   OH272013   3.948   1.985  13.053  0.3780 -0.0033 -0.1611
16841TIP3    H172014   4.040   2.011  13.043  0.3447  0.3335  0.3317
16841TIP3    H272015   3.914   2.044  13.120  0.5409 -1.8841  1.6874
16842TIP3   OH272016   4.527   5.303  10.822 -0.0891  0.6848 -0.2012
16842TIP3    H172017   4.590   5.334  10.887  0.8247  0.5984 -1.0318
16842TIP3    H272018   4.442   5.317  10.863  0.4295  1.6144  0.5881
16843TIP3   OH272019   4.888   3.011  11.088  0.3535  0.4188  0.1162
16843TIP3    H172020   4.899   2.919  11.113 -0.2615  0.6278  1.2370
16843TIP3    H272021   4.799   3.017  11.054 -0.1343  0.8440  1.3771
16844TIP3   OH272022   0.249   4.311  12.229  0.3512  0.4261 -0.0982
16844TIP3    H172023   0.217   4.383  12.176  0.5491  0.9886  0.5341
16844TIP3    H272024   0.213   4.232  12.187  1.3439  0.7654 -1.6708
16845TIP3   OH272025   6.702   4.634  12.118  0.1345 -0.2281  0.1649
16845TIP3    H172026   6.646   4.685  12.059  1.3910 -0.3255 -1.1520
16845TIP3    H272027   6.668   4.654  12.205 -2.5432 -0.9728 -0.5971
16846TIP3   OH272028   2.037   3.495  13.050  0.5367 -0.2656 -0.0321
16846TIP3    H172029   1.975   3.423  13.061  0.3818 -0.5108 -2.0800
16846TIP3    H272030   2.116   3.452  13.015  1.1963  0.2914  0.7476
16847TIP3   OH272031   0.328   1.610  16.472  0.0744  0.3099  0.1953
16847TIP3    H172032   0.402   1.614  16.411 -0.0629  0.9791  0.0636
16847TIP3    H272033   0.253   1.586  16.418  0.2082 -0.5246  0.3549
16848TIP3   OH272034   3.730   4.988   1.711  0.2914  0.5179  0.1820
16848TIP3    H172035   3.680   5.063   1.678 -2.2388 -0.5186  1.3974
16848TIP3    H272036   3.717   4.920   1.645  3.4637  1.3164 -1.4666
16849TIP3   OH272037   1.382   3.953  11.835  0.3658  0.0817  0.1449
16849TIP3    H172038   1.346   3.876  11.879 -0.8842 -0.5413 -1.8383
16849TIP3    H272039   1.413   3.920  11.751  1.0400  1.5189 -0.2028
16850TIP3   OH272040   0.815   0.620   1.278 -0.2186 -0.1618 -0.5659
16850TIP3    H172041   0.793   0.543   1.331 -0.2640 -0.1925 -0.6291
16850TIP3    H272042   0.800   0.592   1.188  0.8332 -0.4391 -0.6699
16851TIP3   OH272043   0.654   4.230  16.111 -0.7594  0.4075  0.4579
16851TIP3    H172044   0.620   4.142  16.127 -0.9680 -0.1708 -2.5438
16851TIP3    H272045   0.589   4.270  16.052  0.1997  1.9362  0.3801
16852TIP3   OH272046   6.782   1.313  15.714  0.6890  0.2418  0.3769
16852TIP3    H172047   6.836   1.392  15.720 -0.9780  1.3071  2.7148
16852TIP3    H272048   6.737   1.321  15.630  2.1583  0.6185 -0.4162
16853TIP3   OH272049   6.053   3.179  15.228  0.5581 -0.1435 -0.0898
16853TIP3    H172050   6.041   3.101  15.175  1.4708  1.4414 -2.8178
16853TIP3    H272051   5.967   3.222  15.227  0.4964 -0.2651 -0.0187
16854TIP3   OH272052   5.531   5.667   5.426  0.3211  0.1115  0.0816
16854TIP3    H172053   5.598   5.734   5.411 -0.0951  0.9470  1.7204
16854TIP3    H272054   5.541   5.607   5.353  0.7644  1.9116 -1.4139
16855TIP3   OH272055   4.251   4.105  15.153 -0.0608  0.4953 -0.0559
16855TIP3    H172056   4.266   4.111  15.059  0.3727  0.6310  0.0231
16855TIP3    H272057   4.167   4.058  15.160  0.0831  0.1623 -0.4974
16856TIP3   OH272058   4.370   3.547   6.039 -0.7247  0.1442  0.5167
16856TIP3    H172059   4.293   3.602   6.023  2.2069  3.8027 -3.2909
16856TIP3    H272060   4.418   3.591   6.108 -0.0843  0.3326 -0.0365
16857TIP3   OH272061   3.623   1.562  12.052  0.1071  0.0741  0.2693
16857TIP3    H172062   3.552   1.622  12.076  1.3955  1.3337  1.1019
16857TIP3    H272063   3.675   1.611  11.989  1.3155 -0.0612  1.1392
16858TIP3   OH272064   4.713   1.993  16.586 -0.3194 -0.5048 -0.2174
16858TIP3    H172065   4.641   2.012  16.645  1.6154  1.8580  1.6070
16858TIP3    H272066   4.776   1.945  16.640 -0.0527 -1.6788 -1.4968
16859TIP3   OH272067   4.716   5.621   1.953  0.0031 -0.1182 -0.5912
16859TIP3    H172068   4.696   5.580   1.869  2.5887 -1.2023 -0.7959
16859TIP3    H272069   4.777   5.691   1.931  0.7192 -0.4217  0.3583
16860TIP3   OH272070   1.129   3.327   4.022  0.9009  0.7343 -0.2587
16860TIP3    H172071   1.110   3.241   4.060 -0.8234  2.0281  2.1055
16860TIP3    H272072   1.049   3.352   3.977  0.7269  1.7863  0.5767
16861TIP3   OH272073   1.426   2.721  16.048 -0.0149 -0.0290  0.1495
16861TIP3    H172074   1.514   2.722  16.010  1.0159  0.3549  2.3447
16861TIP3    H272075   1.428   2.647  16.109 -0.8638  0.6016  0.9785
16862TIP3   OH272076   4.690   1.395  16.160 -0.2279 -0.0545  0.1857
16862TIP3    H172077   4.596   1.380  16.162 -0.0478 -1.1806  0.7738
16862TIP3    H272078   4.715   1.378  16.070 -0.5236 -0.1246  0.1168
16863TIP3   OH272079   5.045   2.839  12.970 -0.3870 -0.0995 -0.5840
16863TIP3    H172080   4.969   2.888  12.939 -0.3830 -0.1120 -0.6129
16863TIP3    H272081   5.117   2.869  12.915 -0.4858 -0.5132 -0.9386
16864TIP3   OH272082   5.242   1.731  14.503  0.2774 -0.5009 -0.2014
16864TIP3    H172083   5.263   1.787  14.578  1.1704 -1.7384  0.5037
16864TIP3    H272084   5.241   1.642  14.539 -0.8744 -0.9839 -1.3393
16865TIP3   OH272085   0.344   1.169  14.402  0.0206 -0.7820  0.4924
16865TIP3    H172086   0.321   1.128  14.319  0.9844  1.0959 -0.7755
16865TIP3    H272087   0.337   1.098  14.466 -1.0736 -2.2133 -1.1006
16866TIP3   OH272088   3.545   5.157  14.861 -0.2327 -0.1599  0.0030
16866TIP3    H172089   3.504   5.134  14.777  0.6959 -0.8589 -0.2689
16866TIP3    H272090   3.638   5.144  14.847  0.2293  2.1917  0.3533
16867TIP3   OH272091   0.825   6.614  13.291  0.2431  0.1392 -0.3033
16867TIP3    H172092   0.912   6.608  13.330 -0.2274 -0.3877  0.6854
16867TIP3    H272093   0.811   6.707  13.276  0.1721  0.4199  1.3960
16868TIP3   OH272094   5.954   4.027   1.646  0.0271  0.1847 -0.4315
16868TIP3    H172095   5.894   3.956   1.668  1.2216 -1.7062 -2.7698
16868TIP3    H272096   5.915   4.068   1.569  1.2452 -0.5818 -1.5135
16869TIP3   OH272097   4.701   4.120  15.941  0.5267  0.4123 -0.7945
16869TIP3    H172098   4.787   4.077  15.948  0.0942 -0.1381  3.6542
16869TIP3    H272099   4.640   4.048  15.929  0.0322 -0.4798  4.5836
16870TIP3   OH272100   1.925   2.870  13.507  0.5229 -0.4617  0.1277
16870TIP3    H172101   1.839   2.881  13.549 -0.0050  0.7587 -1.1953
16870TIP3    H272102   1.948   2.958  13.477  1.6066 -1.0245 -0.7511
16871TIP3   OH272103   6.538   1.636   4.435  0.0715  0.4397  0.4402
16871TIP3    H172104   6.466   1.646   4.372 -0.4878  0.3902  1.0579
16871TIP3    H272105   6.587   1.561   4.404  0.3040  0.9269 -0.4134
16872TIP3   OH272106   0.158   2.864  14.011 -0.5289 -0.2054 -0.0371
16872TIP3    H172107   0.068   2.853  14.043 -0.8802 -2.0440 -1.4636
16872TIP3    H272108   0.197   2.776  14.020  0.7104  0.2643 -0.6194
16873TIP3   OH272109   5.657   5.251   4.195  0.1511 -0.0563  0.4434
16873TIP3    H172110   5.604   5.331   4.195 -3.5379 -2.1780 -2.0163
16873TIP3    H272111   5.691   5.245   4.106  0.6603 -1.0532  0.6949
16874TIP3   OH272112   4.284   1.802   0.137 -0.3543 -0.2051 -0.0507
16874TIP3    H172113   4.370   1.779   0.171 -0.0337  2.2706  1.0582
16874TIP3    H272114   4.227   1.803   0.214 -0.3872  2.1611 -0.0189
16875TIP3   OH272115   0.355   2.969  11.727  0.2539 -0.0205 -0.3990
16875TIP3    H172116   0.330   2.946  11.638 -0.8074 -0.2227 -0.0619
16875TIP3    H272117   0.319   3.057  11.741 -0.0096 -0.1855 -0.0128
16876TIP3   OH272118   2.143   3.683  16.604 -0.1444 -0.0764 -0.2272
16876TIP3    H172119   2.173   3.656  16.517  1.1046  0.9853 -0.1603
16876TIP3    H272120   2.167   3.776  16.609 -1.5006  0.2545  0.7109
16877TIP3   OH272121   0.363   4.568  13.918  0.3446  0.5436 -0.5753
16877TIP3    H172122   0.447   4.552  13.962  0.4907 -0.7418 -1.2873
16877TIP3    H272123   0.387   4.585  13.827 -0.1954 -0.4700 -0.9226
16878TIP3   OH272124   6.256   3.314   1.001 -0.1322 -0.9739 -0.6329
16878TIP3    H172125   6.176   3.335   1.049 -0.4600  0.6466 -1.7964
16878TIP3    H272126   6.327   3.346   1.057 -0.3823 -1.0865 -0.2531
16879TIP3   OH272127   3.592   5.001   5.020  0.1382 -0.1531 -0.0052
16879TIP3    H172128   3.677   5.034   4.993 -0.8481  1.6853 -1.0731
16879TIP3    H272129   3.560   5.064   5.084 -0.1501 -1.1830  0.8960
16880TIP3   OH272130   2.621   5.045   5.457  0.1574  0.5630  0.2452
16880TIP3    H172131   2.617   4.956   5.423 -1.4737  0.6964  0.0025
16880TIP3    H272132   2.699   5.046   5.512 -0.0042 -1.1307  0.5697
16881TIP3   OH272133   0.549   6.543   1.850 -0.4707 -0.3527 -0.0934
16881TIP3    H172134   0.566   6.596   1.928 -3.2208  1.8833 -0.8498
16881TIP3    H272135   0.620   6.564   1.790 -1.3979  2.5046 -0.3130
16882TIP3   OH272136   4.604   1.948  13.954 -0.1842  0.6210  0.2629
16882TIP3    H172137   4.668   2.017  13.972 -0.8804  0.7515  2.4623
16882TIP3    H272138   4.638   1.871  14.000 -0.1399 -0.1566 -1.0147
16883TIP3   OH272139   0.083   1.144   2.590  0.1032  0.4731 -0.0698
16883TIP3    H172140   0.034   1.161   2.510  0.1051 -0.8012 -0.3591
16883TIP3    H272141   0.175   1.150   2.565  0.1303 -1.5410 -0.5670
16884TIP3   OH272142   6.028   2.803  10.923  0.4022 -0.3619 -0.0883
16884TIP3    H172143   6.064   2.866  10.861  0.8562  0.3249  0.8419
16884TIP3    H272144   6.105   2.758  10.959  0.2843  0.2903  1.0463
16885TIP3   OH272145   3.807   0.179  11.988 -0.0595 -0.7136 -0.4378
16885TIP3    H172146   3.869   0.243  11.955 -0.5977  0.4841  0.7581
16885TIP3    H272147   3.725   0.198  11.942 -0.4193 -0.0067  0.4586
16886TIP3   OH272148   1.504   3.963  12.646 -0.2491  0.5840 -0.0715
16886TIP3    H172149   1.515   4.021  12.722  0.5466 -0.2442  0.4679
16886TIP3    H272150   1.478   4.021  12.575 -0.4898  1.4565  0.7076
16887TIP3   OH272151   5.281   5.696   3.744  0.2495  0.1198  0.0840
16887TIP3    H172152   5.293   5.775   3.691  0.1637  0.0091 -0.1036
16887TIP3    H272153   5.262   5.627   3.680  1.0912 -0.2125  0.1873
16888TIP3   OH272154   2.584   3.591  12.018 -0.6251 -0.1712  0.3603
16888TIP3    H172155   2.519   3.656  11.990 -0.5880 -0.4736 -0.4679
16888TIP3    H272156   2.562   3.573  12.110  1.1173  3.0730  1.5443
16889TIP3   OH272157   5.663   5.807  15.020 -0.0464  0.0776 -0.4080
16889TIP3    H172158   5.664   5.783  14.927  2.3175  1.3608 -0.7986
16889TIP3    H272159   5.579   5.850  15.033 -1.9859 -3.1894 -1.0052
16890TIP3   OH272160   0.402   6.517   3.501  0.3897 -0.7193 -0.0497
16890TIP3    H172161   0.364   6.477   3.422 -1.6423 -0.8097  0.9076
16890TIP3    H272162   0.467   6.453   3.531  0.4301 -1.1754 -1.0480
16891TIP3   OH272163   6.091   4.419   3.472 -0.1103  0.0279 -0.1562
16891TIP3    H172164   6.085   4.470   3.552  2.7594 -0.9808  0.8436
16891TIP3    H272165   6.182   4.429   3.444 -0.8016 -0.4002 -2.8088
16892TIP3   OH272166   0.660   0.200   2.163 -0.0650  0.8041  0.4902
16892TIP3    H172167   0.670   0.106   2.155 -1.2569  0.7881 -1.8816
16892TIP3    H272168   0.711   0.236   2.090  0.4844  2.0186  1.4355
16893TIP3   OH272169   2.042   0.583   3.840  0.1543 -0.8413  0.0037
16893TIP3    H172170   2.014   0.512   3.899 -2.0442 -0.4791 -0.5445
16893TIP3    H272171   2.030   0.547   3.752 -0.9935  0.1843 -0.2809
16894TIP3   OH272172   5.349   3.162  11.995  0.3366 -0.0055 -0.5523
16894TIP3    H172173   5.430   3.110  11.990  0.8315  0.7181 -0.2687
16894TIP3    H272174   5.280   3.102  11.968  0.7202 -1.2218  1.0013
16895TIP3   OH272175   1.334   5.948  14.532  0.1245 -0.5691  0.4165
16895TIP3    H172176   1.378   5.964  14.615 -2.5673  1.0989  1.6844
16895TIP3    H272177   1.269   6.018  14.526 -1.4506 -2.0796 -1.8882
16896TIP3   OH272178   4.200   6.402  11.996 -0.2342  0.0246  0.1380
16896TIP3    H172179   4.116   6.409  12.040  0.7333  1.9059  1.8020
16896TIP3    H272180   4.226   6.311  12.009 -1.1612 -0.1033  1.2074
16897TIP3   OH272181   6.526   0.114  15.806  0.0442  0.5273 -0.0417
16897TIP3    H172182   6.576   0.069  15.738  0.6261 -0.3103  0.9187
16897TIP3    H272183   6.453   0.054  15.825 -0.2562  0.8725 -0.0932
16898TIP3   OH272184   5.616   2.542   4.718  0.0686 -0.0216 -0.1409
16898TIP3    H172185   5.606   2.462   4.666 -2.0601  0.5278 -0.7038
16898TIP3    H272186   5.691   2.587   4.680  0.3656 -1.0446 -0.7952
16899TIP3   OH272187   0.026   5.109  15.145 -0.1414  0.0555  0.5272
16899TIP3    H172188  -0.066   5.130  15.131 -0.1317 -0.4091 -0.3768
16899TIP3    H272189   0.028   5.065  15.230 -0.4180  1.9698  1.5677
16900TIP3   OH272190   4.634   1.416   3.553 -0.4073 -0.3140 -1.0968
16900TIP3    H172191   4.651   1.378   3.639 -1.4116 -0.8020 -1.0979
16900TIP3    H272192   4.690   1.493   3.549 -0.5223 -0.1474  0.0933
16901TIP3   OH272193   1.339   1.116  15.653 -0.1205 -0.0811 -0.3223
16901TIP3    H172194   1.315   1.169  15.577  1.2742 -0.4841 -1.0615
16901TIP3    H272195   1.330   1.026  15.624  1.0751 -0.2413 -0.2357
16902TIP3   OH272196   4.865   4.925   1.939 -0.2211 -0.3793  0.1626
16902TIP3    H172197   4.783   4.884   1.912 -0.1806  0.0610 -0.6873
16902TIP3    H272198   4.872   5.002   1.882  0.7331 -0.3613  0.2903
16903TIP3   OH272199   3.584   1.613  17.076 -0.4707 -0.1025  0.0545
16903TIP3    H172200   3.618   1.671  17.144 -2.9017  0.5446  0.8203
16903TIP3    H272201   3.579   1.527  17.117 -0.8073  0.0384  0.3116
16904TIP3   OH272202   2.950   2.179  13.501  0.6793 -0.1082 -0.0693
16904TIP3    H172203   2.927   2.209  13.413  3.0962 -0.6691 -0.9630
16904TIP3    H272204   3.035   2.220  13.519  0.1303  0.1740  2.1280
16905TIP3   OH272205   6.461   5.665  13.707 -0.5393 -0.4347  0.2339
16905TIP3    H172206   6.375   5.637  13.676 -1.5187 -0.1399  2.4976
16905TIP3    H272207   6.457   5.760  13.707 -0.6127 -0.4221  1.2819
16906TIP3   OH272208   2.829   6.468  14.232 -0.1792  0.1235 -0.7394
16906TIP3    H172209   2.779   6.439  14.156  0.1790 -2.3657 -0.1119
16906TIP3    H272210   2.769   6.524  14.281 -1.5062 -0.7870 -1.2623
16907TIP3   OH272211   4.236   3.896  16.569 -0.2130 -0.0735  0.0368
16907TIP3    H172212   4.165   3.841  16.602 -0.3140  0.7768  1.3045
16907TIP3    H272213   4.243   3.967  16.632 -0.3861  1.6570 -1.7941
16908TIP3   OH272214   2.021   0.221  15.204 -0.0744 -0.0932 -0.4940
16908TIP3    H172215   2.085   0.203  15.273  0.1696 -2.1242 -1.1780
16908TIP3    H272216   2.022   0.316  15.194  1.8929  0.0294  0.4032
16909TIP3   OH272217   3.639   0.185   1.798  0.7579  0.5400  0.2219
16909TIP3    H172218   3.636   0.187   1.703 -3.4177  1.8443  0.2180
16909TIP3    H272219   3.637   0.091   1.820 -2.2871  0.2155 -1.0793
16910TIP3   OH272220   2.986   6.195  11.918  0.4208 -0.0580  0.1511
16910TIP3    H172221   3.029   6.255  11.979  1.4632 -0.7079  0.0778
16910TIP3    H272222   2.957   6.251  11.845 -1.9031  0.9237  1.7098
16911TIP3   OH272223   2.386   4.689  13.569  0.3799  0.3101  0.7713
16911TIP3    H172224   2.346   4.773  13.594  0.5936  0.1311  1.7427
16911TIP3    H272225   2.376   4.686  13.474  1.0378  1.7767  0.6314
16912TIP3   OH272226   2.231   6.784  16.451 -0.3109  0.1467 -0.1379
16912TIP3    H172227   2.170   6.780  16.377  0.2761 -0.4865 -0.6028
16912TIP3    H272228   2.179   6.754  16.526 -1.1443  1.5558 -0.1075
16913TIP3   OH272229   5.382   0.254  14.526 -0.4756 -0.0947  0.7036
16913TIP3    H172230   5.316   0.322  14.513  2.7035  2.9006 -1.9881
16913TIP3    H272231   5.394   0.251  14.621 -3.0832  0.5806  1.1427
16914TIP3   OH272232   1.801   1.292  16.708 -0.0193  0.0644  0.5423
16914TIP3    H172233   1.781   1.280  16.801 -0.3598  1.5206  0.6734
16914TIP3    H272234   1.723   1.261  16.662 -0.7998  1.4674  0.8648
16915TIP3   OH272235   3.103   6.608  10.716 -0.2867  0.1430 -0.1238
16915TIP3    H172236   3.095   6.703  10.707 -3.0251  0.5168  3.8507
16915TIP3    H272237   3.196   6.592  10.729  0.5696  1.8459 -3.1562
16916TIP3   OH272238   2.115   2.084  14.164 -0.0678 -0.2068 -0.1326
16916TIP3    H172239   2.191   2.028  14.182  0.1651  0.3683  0.7531
16916TIP3    H272240   2.092   2.120  14.250 -0.3046  0.9393 -0.6656
16917TIP3   OH272241   5.799   6.086  15.351  0.6555 -0.0633 -0.4273
16917TIP3    H172242   5.725   6.040  15.391 -1.3275  2.9608 -0.2944
16917TIP3    H272243   5.842   6.132  15.423  1.2237  0.0757 -0.8379
16918TIP3   OH272244   1.935   5.029   4.502  0.0251 -0.1302  0.6470
16918TIP3    H172245   1.963   5.081   4.578  0.7442  0.4979 -0.0259
16918TIP3    H272246   2.016   4.997   4.463 -0.3429 -0.5632  0.2208
16919TIP3   OH272247   3.295   5.915   1.976 -0.1376 -0.7396 -0.1133
16919TIP3    H172248   3.289   5.953   2.064 -0.3476 -1.4074  0.1608
16919TIP3    H272249   3.204   5.907   1.948 -0.0712 -0.5615 -0.3825
16920TIP3   OH272250   5.907   2.718  11.315  0.4223 -0.3880 -0.0386
16920TIP3    H172251   5.898   2.704  11.410 -0.5694 -0.3636 -0.1181
16920TIP3    H272252   5.824   2.758  11.289  1.0695  0.5155 -0.7595
16921TIP3   OH272253   3.844   6.490  16.670  0.3648 -0.3859  0.1026
16921TIP3    H172254   3.822   6.514  16.580 -2.3109 -2.2621  0.1489
16921TIP3    H272255   3.840   6.573  16.718  0.0741  0.3831 -1.1906
16922TIP3   OH272256   6.302   2.804   2.085 -0.0681  0.0868 -0.6086
16922TIP3    H172257   6.208   2.817   2.070  0.3016  2.8682 -0.9463
16922TIP3    H272258   6.343   2.882   2.048  2.2629 -0.4261  0.7401
16923TIP3   OH272259   0.223   5.091  16.380  0.3985  0.2208 -0.2832
16923TIP3    H172260   0.146   5.058  16.334 -0.4705  1.2718  0.3800
16923TIP3    H272261   0.284   5.113  16.310  0.3090 -1.0667 -0.8025
16924TIP3   OH272262   1.039   1.984   2.930 -0.0082 -0.1064 -0.3035
16924TIP3    H172263   1.092   1.987   2.851 -0.9456 -0.8693 -0.9911
16924TIP3    H272264   1.039   1.891   2.955 -0.4244 -0.0015  0.1017
16925TIP3   OH272265   3.988   1.076  15.060  0.1471  0.3922  0.0612
16925TIP3    H172266   3.939   1.096  15.140  1.1120 -0.1868  0.8250
16925TIP3    H272267   4.013   0.984  15.070  0.2529  0.3034 -0.9307
16926TIP3   OH272268   5.896   1.296   0.882 -0.5110  0.0934 -0.0618
16926TIP3    H172269   5.815   1.343   0.861  0.3179  0.5120 -2.7700
16926TIP3    H272270   5.965   1.352   0.848  0.8407 -0.9313  0.9044
16927TIP3   OH272271   4.657   3.117  16.744  0.2068 -0.3262  0.0368
16927TIP3    H172272   4.585   3.179  16.735  0.6246 -0.0676 -2.1743
16927TIP3    H272273   4.614   3.031  16.741 -0.2332 -0.2004  1.6554
16928TIP3   OH272274   1.149   1.893  14.817  0.0893  0.8398  0.1436
16928TIP3    H172275   1.226   1.895  14.760 -0.7475  0.2311 -1.0708
16928TIP3    H272276   1.176   1.839  14.891  0.7628  0.4053 -0.3956
16929TIP3   OH272277   4.843   2.493   0.563 -0.7134 -0.0098  0.0268
16929TIP3    H172278   4.842   2.412   0.613  0.5312  0.9040  1.6399
16929TIP3    H272279   4.764   2.539   0.590 -0.0744  0.4544  1.1625
16930TIP3   OH272280   4.067   2.058   4.859 -0.2175  0.3823  0.0259
16930TIP3    H172281   4.144   2.083   4.910  0.4573 -1.8420  0.1742
16930TIP3    H272282   4.090   2.077   4.768 -0.5150  2.1138  0.2804
16931TIP3   OH272283   2.551   1.142  11.077 -0.2745 -0.2486  0.6844
16931TIP3    H172284   2.628   1.105  11.033 -0.3316  0.2473  0.1630
16931TIP3    H272285   2.482   1.141  11.011 -0.2803  0.7766  0.6592
16932TIP3   OH272286   4.728   5.379   0.535  0.2939 -0.0225 -0.5656
16932TIP3    H172287   4.807   5.376   0.482  2.1410 -0.8401  1.9850
16932TIP3    H272288   4.751   5.435   0.609 -1.9474  0.6590 -0.3173
16933TIP3   OH272289   0.694   5.279  13.567  0.4635 -0.2525  0.6533
16933TIP3    H172290   0.702   5.196  13.520  0.1167 -0.4758  0.9850
16933TIP3    H272291   0.680   5.345  13.498 -1.3003 -0.7392  0.4959
16934TIP3   OH272292   5.452   5.396  13.824 -0.2283 -0.4154 -0.6425
16934TIP3    H172293   5.427   5.304  13.824  1.3091 -0.8794 -1.2052
16934TIP3    H272294   5.437   5.425  13.734 -2.6435  0.5089 -0.0145
16935TIP3   OH272295   2.027   5.978  16.399  0.0579 -0.1207  0.0756
16935TIP3    H172296   1.944   6.025  16.411  0.2869  0.3436 -0.0978
16935TIP3    H272297   2.003   5.898  16.353 -0.2920  0.0205  0.0073
16936TIP3   OH272298   3.862   5.076   0.143 -0.6390 -0.1066 -0.0773
16936TIP3    H172299   3.943   5.055   0.190  0.0399  1.4514 -0.4719
16936TIP3    H272300   3.795   5.020   0.182  0.3622 -0.4690  1.1661
16937TIP3   OH272301   6.310   2.723  15.698  0.1771  0.7381  0.0983
16937TIP3    H172302   6.389   2.718  15.752 -0.4118 -0.7716  0.8987
16937TIP3    H272303   6.314   2.809  15.656  1.7659  1.0584  0.8464
16938TIP3   OH272304   0.570   5.273   5.152 -1.2248 -0.4573  0.1093
16938TIP3    H172305   0.527   5.214   5.091 -0.4711 -0.7363 -0.1632
16938TIP3    H272306   0.595   5.349   5.098  0.2639 -1.1003 -0.1646
16939TIP3   OH272307   2.796   6.572  14.981  0.0336 -0.5583  0.0684
16939TIP3    H172308   2.767   6.609  15.065  2.5824  0.1307  0.7575
16939TIP3    H272309   2.727   6.512  14.956 -2.5890  1.9183  0.7871
16940TIP3   OH272310   6.022   5.050  16.815 -0.3125 -0.2831  0.1284
16940TIP3    H172311   6.039   4.964  16.855  2.9935 -0.2153 -0.7999
16940TIP3    H272312   6.094   5.105  16.845 -1.1866  1.5561 -1.0000
16941TIP3   OH272313   5.551   6.327  15.609  0.3659  0.0598 -0.1477
16941TIP3    H172314   5.646   6.330  15.620  0.3516  0.7772 -0.1238
16941TIP3    H272315   5.521   6.257  15.666  0.7921  0.4476  0.5607
16942TIP3   OH272316   6.573   0.284  16.167  0.1179  0.5967 -0.1510
16942TIP3    H172317   6.643   0.238  16.121  0.1331  0.9189 -0.4587
16942TIP3    H272318   6.513   0.312  16.098 -0.1658  0.5731  0.0822
16943TIP3   OH272319   3.131   4.367   0.113  0.0170  0.6268 -0.0218
16943TIP3    H172320   3.116   4.273   0.110 -0.5589  0.7280 -0.4441
16943TIP3    H272321   3.082   4.397   0.190 -0.5345  0.7012 -0.3923
16944TIP3   OH272322   3.868   4.072   4.225 -0.7988  0.2356 -0.2299
16944TIP3    H172323   3.802   4.003   4.223  0.6307 -1.1905 -1.1112
16944TIP3    H272324   3.915   4.059   4.307 -0.7058  0.3522 -0.2637
16945TIP3   OH272325   1.498   1.303  13.467 -0.0704  0.3291  0.0293
16945TIP3    H172326   1.570   1.247  13.495 -0.5690 -1.0589 -1.2953
16945TIP3    H272327   1.422   1.245  13.466 -0.5245  0.8809 -1.8095
16946TIP3   OH272328   4.196   4.053  12.683 -0.2645  0.0032 -0.1900
16946TIP3    H172329   4.255   4.004  12.740  1.7529 -0.7844 -2.7227
16946TIP3    H272330   4.230   4.037  12.595 -3.8955  0.0982 -1.7979
16947TIP3   OH272331   2.603   2.019  17.069 -0.1377 -0.2680 -0.0768
16947TIP3    H172332   2.591   2.040  16.976  0.7168 -0.3487 -0.2123
16947TIP3    H272333   2.662   2.087  17.101 -0.6068 -0.1112  0.4700
16948TIP3   OH272334   3.960   4.416  15.303  0.2617  0.6408 -0.1912
16948TIP3    H172335   4.050   4.447  15.291 -0.0013  1.8134  0.6671
16948TIP3    H272336   3.968   4.345  15.366  0.6256  0.5142 -0.3784
16949TIP3   OH272337   1.721   0.210  13.324  0.3219 -0.1038 -0.1684
16949TIP3    H172338   1.762   0.262  13.255  2.5824 -0.7832  0.5811
16949TIP3    H272339   1.647   0.167  13.281  1.2833 -0.0087 -2.0205
16950TIP3   OH272340   3.846   3.035  14.353  0.0425  0.0719  0.3007
16950TIP3    H172341   3.894   3.071  14.428  0.1269  0.0083  0.2768
16950TIP3    H272342   3.787   3.106  14.327  0.4569  0.3314  0.0364
16951TIP3   OH272343   1.935   3.349  12.312 -0.0147 -0.5981  0.3784
16951TIP3    H172344   1.858   3.315  12.357  0.3689 -1.7915  0.1792
16951TIP3    H272345   2.009   3.323  12.367  0.3423 -0.6920 -0.1400
16952TIP3   OH272346   0.094   4.294   6.688  0.0937  0.7051 -0.2039
16952TIP3    H172347   0.176   4.332   6.718  0.5197 -1.1869  1.1783
16952TIP3    H272348   0.030   4.318   6.755  0.3660 -0.9011  0.6840
16953TIP3   OH272349   1.050   5.446  11.292  0.1470 -0.4216  0.4087
16953TIP3    H172350   1.048   5.360  11.251  0.6007 -0.0752 -0.3587
16953TIP3    H272351   1.130   5.487  11.259 -0.6017  0.6951 -0.0819
16954TIP3   OH272352   5.051   2.800  13.246  0.2614 -0.5261  0.2058
16954TIP3    H172353   4.957   2.816  13.241  0.0324 -2.1133 -3.0347
16954TIP3    H272354   5.083   2.819  13.158  3.7090  3.3822  1.9590
16955TIP3   OH272355   2.141   6.603   3.677 -0.0998  0.0124 -0.1022
16955TIP3    H172356   2.142   6.570   3.767  1.9426  0.8509  0.2302
16955TIP3    H272357   2.234   6.607   3.652 -0.5617  1.0037 -1.8018
16956TIP3   OH272358   2.048   0.491  13.500 -0.1835 -0.3165 -0.5173
16956TIP3    H172359   2.116   0.446  13.550 -0.2323  0.5651  0.3783
16956TIP3    H272360   1.967   0.449  13.528 -0.1349 -0.3776 -0.4668
16957TIP3   OH272361   1.137   3.768   6.407  0.5631  0.2643 -0.5520
16957TIP3    H172362   1.093   3.683   6.404  2.4555 -0.7637 -3.1301
16957TIP3    H272363   1.121   3.800   6.496 -1.1468 -2.2468  0.1646
16958TIP3   OH272364   3.328   5.249   5.106 -0.0304  0.0209 -0.6599
16958TIP3    H172365   3.398   5.278   5.165 -0.3638  1.1004 -0.7611
16958TIP3    H272366   3.315   5.324   5.047 -0.1140 -0.8009 -1.7188
16959TIP3   OH272367   2.826   0.958  15.103 -0.0201 -0.3100  0.8560
16959TIP3    H172368   2.887   0.907  15.050  0.2016  2.0031 -1.2880
16959TIP3    H272369   2.743   0.911  15.097  0.3300 -0.7807 -0.5163
16960TIP3   OH272370   4.026   1.104   2.987 -0.0586 -0.1338  0.2902
16960TIP3    H172371   4.052   1.012   2.988 -0.0846 -0.1465  1.6282
16960TIP3    H272372   3.987   1.119   3.073  1.0019  1.4176  0.5473
16961TIP3   OH272373   0.103   6.817   0.059  0.2162  0.0260  0.2124
16961TIP3    H172374   0.188   6.826   0.102  0.5961  0.5614 -0.6060
16961TIP3    H272375   0.086   6.723   0.057  0.2188 -0.0130  1.4384
16962TIP3   OH272376   1.280   3.519  12.710  0.3526  0.7664  0.0657
16962TIP3    H172377   1.206   3.558  12.663  1.1353  1.9111 -0.2823
16962TIP3    H272378   1.298   3.581  12.781  0.0648 -0.2469  1.0550
16963TIP3   OH272379   0.991   0.837  16.440  0.0503 -0.7223 -0.2622
16963TIP3    H172380   0.983   0.900  16.511  2.0830  0.2059 -0.7705
16963TIP3    H272381   1.086   0.829  16.427 -0.2575 -0.8650 -2.8497
16964TIP3   OH272382   4.079   5.549  10.369 -0.1094 -0.0472  0.2780
16964TIP3    H172383   4.135   5.476  10.396  0.3812 -0.2459 -1.1989
16964TIP3    H272384   3.990   5.520  10.387  0.0046 -1.4353 -1.1861
16965TIP3   OH272385   6.673   2.208  10.317  0.0297  0.1694  0.7537
16965TIP3    H172386   6.581   2.221  10.339  0.1332  0.4771  1.0041
16965TIP3    H272387   6.702   2.292  10.284  0.2557  0.1105  0.8009
16966TIP3   OH272388   3.623   0.601  16.014  0.0360  0.4087 -0.4643
16966TIP3    H172389   3.640   0.507  16.017 -2.3913 -0.1265  3.3687
16966TIP3    H272390   3.529   0.608  15.995 -0.5257  1.7713  2.3777
16967TIP3   OH272391   5.961   4.955   1.521  0.1271 -0.4069  0.5411
16967TIP3    H172392   5.934   4.920   1.436 -1.8180 -0.9729  1.3206
16967TIP3    H272393   5.879   4.988   1.560  1.2370  1.3786  1.5057
16968TIP3   OH272394   6.360   2.484  10.554  0.1577  0.0713  0.2553
16968TIP3    H172395   6.323   2.508  10.639  0.8062  0.8508  0.3273
16968TIP3    H272396   6.339   2.558  10.497  1.8587  0.6814  0.3792
16969TIP3   OH272397   1.881   5.625   0.921  0.3279 -0.1156 -0.5595
16969TIP3    H172398   1.960   5.601   0.872  0.5502 -0.1133 -0.2035
16969TIP3    H272399   1.810   5.582   0.874  0.4074  0.7164 -1.4990
16970TIP3   OH272400   6.284   4.989   5.697 -0.4352  0.5245  0.6016
16970TIP3    H172401   6.293   5.082   5.717  0.8826  0.3421  0.9740
16970TIP3    H272402   6.369   4.964   5.661 -0.7699 -0.5391  0.5170
16971TIP3   OH272403   2.697   4.729  14.276 -0.0594  0.5410  0.2072
16971TIP3    H172404   2.749   4.710  14.197 -1.2284 -2.2042  0.0089
16971TIP3    H272405   2.719   4.659  14.337 -1.4622  0.8954  1.1650
16972TIP3   OH272406   4.746   2.198  11.285  0.0445 -0.4158  0.1779
16972TIP3    H172407   4.711   2.287  11.300  0.9454  0.2736 -1.5658
16972TIP3    H272408   4.832   2.212  11.246  0.2758 -2.0730  0.0244
16973TIP3   OH272409   3.755   1.647  15.546 -0.2287  0.7465  0.6994
16973TIP3    H172410   3.712   1.676  15.465 -1.6196  0.9093  1.4650
16973TIP3    H272411   3.779   1.729  15.591  3.2921  0.7406 -0.8510
16974TIP3   OH272412   3.132   3.914  12.917 -0.2887 -0.0239 -0.0098
16974TIP3    H172413   3.219   3.873  12.915 -0.7127 -0.9191 -0.7483
16974TIP3    H272414   3.120   3.948  12.828  0.0832  1.8109  0.5983
16975TIP3   OH272415   2.632   5.239   4.316  0.3192  0.4792 -0.0426
16975TIP3    H172416   2.582   5.308   4.274 -1.0933 -0.8082 -0.5688
16975TIP3    H272417   2.721   5.252   4.284 -0.4125  0.4741 -2.2721
16976TIP3   OH272418   3.319   1.159  16.430  0.3085  0.0221  0.3200
16976TIP3    H172419   3.399   1.212  16.426  1.1548 -1.1506  0.9162
16976TIP3    H272420   3.349   1.069  16.416 -1.1644 -0.2788 -1.2710
16977TIP3   OH272421   2.241   0.517   5.951 -0.1878 -0.5520  0.0943
16977TIP3    H172422   2.149   0.492   5.941 -1.4731  2.7245  2.1135
16977TIP3    H272423   2.264   0.494   6.041 -0.2850  1.7789  0.8019
16978TIP3   OH272424   3.464   6.216   5.836  0.4156  0.2925  0.3006
16978TIP3    H172425   3.499   6.305   5.839 -0.2357  0.5422  0.6655
16978TIP3    H272426   3.529   6.167   5.787  0.6544  1.0306 -0.1430
16979TIP3   OH272427   3.156   1.248   4.240  0.1651  0.2628 -0.3811
16979TIP3    H172428   3.191   1.207   4.319 -0.1328 -0.4745 -0.6192
16979TIP3    H272429   3.062   1.229   4.243  0.5863 -3.2599 -2.8103
16980TIP3   OH272430   3.374   6.268   1.506  0.2642 -0.2627  0.1137
16980TIP3    H172431   3.302   6.206   1.516 -0.7729  0.5115 -1.9562
16980TIP3    H272432   3.451   6.221   1.539 -0.9574 -1.5503  1.2620
16981TIP3   OH272433   6.414   1.459  16.382  0.2216  0.4926 -0.2752
16981TIP3    H172434   6.406   1.519  16.456 -1.7101  0.3573 -0.3184
16981TIP3    H272435   6.475   1.502  16.322 -0.1263  1.8103  0.2857
16982TIP3   OH272436   0.467   3.026   6.422 -0.2685  0.6012  0.2557
16982TIP3    H172437   0.508   2.966   6.484 -0.5005  0.6325  0.4424
16982TIP3    H272438   0.443   3.102   6.475 -0.6253  0.5555  0.1654
16983TIP3   OH272439   1.663   2.234   3.536 -0.1217  0.0217 -0.0885
16983TIP3    H172440   1.661   2.263   3.445 -0.8977  1.8685  0.4658
16983TIP3    H272441   1.746   2.268   3.570 -0.0575 -0.2398  0.0135
16984TIP3   OH272442   4.898   4.319   3.945 -0.0051 -0.6894  0.0222
16984TIP3    H172443   4.879   4.319   4.038 -0.2747 -1.4936 -0.0248
16984TIP3    H272444   4.821   4.359   3.904 -0.5292 -1.6614  0.0347
16985TIP3   OH272445   4.549   3.623   5.306  0.0632  0.5413 -0.0029
16985TIP3    H172446   4.538   3.718   5.316  0.4410  0.5206  0.6800
16985TIP3    H272447   4.526   3.606   5.215 -2.1381  0.9754  0.4087
16986TIP3   OH272448   5.786   3.127  12.915 -0.1959 -0.2301  0.1700
16986TIP3    H172449   5.726   3.150  12.987 -1.7841 -0.2133 -1.0940
16986TIP3    H272450   5.796   3.208  12.866  0.9863 -0.2112  0.4206
16987TIP3   OH272451   6.288   1.692   5.543  0.2656  0.2222 -0.0853
16987TIP3    H172452   6.345   1.633   5.493  0.4668 -1.0363  1.5445
16987TIP3    H272453   6.323   1.689   5.632 -2.0963 -0.3235  0.8918
16988TIP3   OH272454   3.067   4.306  11.876  0.8110  0.4433  0.3071
16988TIP3    H172455   3.068   4.210  11.883 -0.2290  0.4480  0.7278
16988TIP3    H272456   3.058   4.336  11.967 -0.9120  0.8723  0.0287
16989TIP3   OH272457   5.827   5.929  11.322  0.3184 -0.5193 -0.4958
16989TIP3    H172458   5.909   5.969  11.292  0.9056  0.2056  1.8391
16989TIP3    H272459   5.763   5.950  11.253  2.0122 -0.9596 -2.2900
16990TIP3   OH272460   3.611   6.410   5.534  0.2625 -0.0145 -0.1942
16990TIP3    H172461   3.595   6.370   5.620 -1.7914  0.0896 -0.4694
16990TIP3    H272462   3.642   6.499   5.555  1.0527 -0.4215  0.4185
16991TIP3   OH272463   1.010   4.770   5.214  0.2081  0.1183  0.0456
16991TIP3    H172464   0.963   4.698   5.255 -2.0044  0.9686 -0.7883
16991TIP3    H272465   0.974   4.773   5.125  1.9068  0.8348 -0.6441
16992TIP3   OH272466   6.156   5.882  12.909 -0.0876 -0.1099  0.4121
16992TIP3    H172467   6.181   5.880  12.816  2.1197 -0.8519  0.9416
16992TIP3    H272468   6.161   5.790  12.937 -0.9712  0.0728  1.2114
16993TIP3   OH272469   0.959   6.634   2.497 -0.5131  1.0077  0.1493
16993TIP3    H172470   0.935   6.725   2.481  0.1796  0.9773 -1.2916
16993TIP3    H272471   0.952   6.592   2.410 -0.1922 -0.1494  0.6602
16994TIP3   OH272472   1.127   4.558   0.693 -0.3181  0.5188  0.4003
16994TIP3    H172473   1.065   4.619   0.654 -0.9268  0.8158  1.7458
16994TIP3    H272474   1.152   4.500   0.622  0.0212  2.1167 -0.8344
16995TIP3   OH272475   1.411   1.921   4.880  0.3267  0.0804  0.3598
16995TIP3    H172476   1.407   2.012   4.908 -0.4886  0.5363 -1.1290
16995TIP3    H272477   1.320   1.892   4.879  0.5665 -0.6908  0.6492
16996TIP3   OH272478   3.948   6.767   2.762 -0.7700 -0.4448 -0.1844
16996TIP3    H172479   3.948   6.751   2.856  1.4956 -1.6877 -0.3179
16996TIP3    H272480   3.864   6.808   2.744 -1.6430 -1.0401  2.2291
16997TIP3   OH272481   3.273   4.897   6.539  0.4268 -0.0106 -0.1569
16997TIP3    H172482   3.205   4.965   6.540 -0.2988 -0.7337  0.2881
16997TIP3    H272483   3.354   4.945   6.557 -0.1576  0.6570  0.8339
16998TIP3   OH272484   2.202   6.176  10.980  0.8030  0.3289  0.8248
16998TIP3    H172485   2.150   6.212  11.052 -1.4785  0.6289 -0.8531
16998TIP3    H272486   2.239   6.253  10.936  0.6046  0.2914  0.5837
16999TIP3   OH272487   0.392   3.477  16.968  0.2141  1.1113 -0.4379
16999TIP3    H172488   0.316   3.453  16.916  0.6226 -0.6215 -0.3106
16999TIP3    H272489   0.396   3.572  16.963 -1.1816  1.1433 -1.5255
17000TIP3   OH272490   6.500   5.021   0.670  0.0187 -0.2313  0.3411
17000TIP3    H172491   6.580   4.977   0.640  0.0414  0.1412 -0.1456
17000TIP3    H272492   6.493   5.099   0.615 -1.4031 -0.9565 -0.5625
17001TIP3   OH272493   6.489   3.122   0.857  0.1774 -0.2444 -0.0610
17001TIP3    H172494   6.524   3.098   0.772  0.1873 -0.0755 -0.1052
17001TIP3    H272495   6.411   3.174   0.837 -0.8289 -1.6457  0.0302
17002TIP3   OH272496   1.581   5.292   5.505 -0.9400  0.1881  0.5213
17002TIP3    H172497   1.556   5.345   5.429 -1.5620 -0.3422  0.3469
17002TIP3    H272498   1.512   5.309   5.569 -1.1154 -0.3551  0.4843
17003TIP3   OH272499   4.668   1.348  11.620 -0.6748 -0.5858  0.1431
17003TIP3    H172500   4.624   1.433  11.623 -0.7478 -0.6317  0.5415
17003TIP3    H272501   4.635   1.307  11.540  0.7623  0.4858 -1.0563
17004TIP3   OH272502   2.702   4.493  14.427  0.0301 -0.5450  0.4917
17004TIP3    H172503   2.634   4.514  14.491 -0.2068  0.4607 -0.0640
17004TIP3    H272504   2.785   4.511  14.472 -0.1097 -0.6394  0.7862
17005TIP3   OH272505   1.079   4.196  11.928 -0.3227 -0.8019 -0.0793
17005TIP3    H172506   1.077   4.270  11.988 -0.9335 -0.2603 -0.7461
17005TIP3    H272507   0.999   4.147  11.947 -0.4038 -0.7533 -0.2838
17006TIP3   OH272508   1.611   4.471   3.511 -0.7589 -0.1723 -0.3642
17006TIP3    H172509   1.683   4.527   3.483  0.4183 -1.3873  0.1147
17006TIP3    H272510   1.582   4.427   3.431 -0.3003 -0.4173 -0.3971
17007TIP3   OH272511   2.178   5.759   2.478 -0.1849 -0.3055  0.2522
17007TIP3    H172512   2.168   5.846   2.442  1.6321 -0.0959  0.1426
17007TIP3    H272513   2.194   5.773   2.572 -1.5618 -0.6546  0.5729
17008TIP3   OH272514   1.924   6.087   3.147 -0.9894  0.5487 -0.1188
17008TIP3    H172515   1.953   5.997   3.160 -1.5797  0.2304 -0.9099
17008TIP3    H272516   1.964   6.114   3.065 -1.6070  0.6558 -0.3960
17009TIP3   OH272517   3.029   4.320  17.046 -0.2870 -0.5738 -0.2613
17009TIP3    H172518   3.052   4.393  17.104 -1.2120 -0.3090 -0.2105
17009TIP3    H272519   2.977   4.262  17.101  0.2766 -1.1772 -0.3594
17010TIP3   OH272520   3.012   1.011   2.323 -0.0781  0.4251  0.5816
17010TIP3    H172521   3.056   0.973   2.399  1.5145 -3.2977 -1.9255
17010TIP3    H272522   3.083   1.032   2.262 -1.4050 -1.6041 -1.8581
17011TIP3   OH272523   1.517   4.136  13.206 -0.2240  0.5093 -0.1783
17011TIP3    H172524   1.447   4.079  13.174  1.1484 -0.5422 -1.4753
17011TIP3    H272525   1.588   4.125  13.142  1.2005  1.3762  1.1792
17012TIP3   OH272526   3.317   2.849  11.302  0.2382 -0.0898  0.1578
17012TIP3    H172527   3.241   2.792  11.288 -1.0333  2.0603 -2.8089
17012TIP3    H272528   3.279   2.936  11.316  2.1636  0.7505  0.4988
17013TIP3   OH272529   5.101   0.226  12.752 -0.7669 -1.0276  0.0442
17013TIP3    H172530   5.174   0.164  12.753  0.4773  0.2407 -2.1739
17013TIP3    H272531   5.023   0.173  12.771  0.5083 -2.7701  0.6197
17014TIP3   OH272532   5.443   0.988   2.265 -0.4236 -0.1317 -0.0419
17014TIP3    H172533   5.350   1.000   2.286 -0.6305 -0.6532 -0.6136
17014TIP3    H272534   5.489   1.003   2.348 -0.9177  1.2379  0.0072
17015TIP3   OH272535   6.073   3.031   3.892  0.3055 -0.0953  0.2171
17015TIP3    H172536   6.150   2.984   3.923  0.4532  1.1540  1.9306
17015TIP3    H272537   6.077   3.024   3.797  2.1561 -0.6514  0.2958
17016TIP3   OH272538   4.418   0.075   5.054  0.0770  0.4384  0.0228
17016TIP3    H172539   4.505   0.074   5.094  0.0150 -0.7354  0.1724
17016TIP3    H272540   4.373   0.148   5.095  0.9056  0.8985  0.1346
17017TIP3   OH272541   6.024   0.161   4.907 -0.4360  0.1369 -0.4965
17017TIP3    H172542   5.953   0.214   4.943 -0.2916 -0.0624  0.0892
17017TIP3    H272543   6.007   0.158   4.813 -1.3020 -0.0547 -0.3393
17018TIP3   OH272544   3.385   6.344   2.435  0.3643  0.2136 -0.2947
17018TIP3    H172545   3.411   6.430   2.466 -0.0270 -0.0503  0.8196
17018TIP3    H272546   3.314   6.361   2.372 -0.9988  0.6443  1.2953
17019TIP3   OH272547   3.801   4.252   1.527  0.4541  0.3626 -0.3479
17019TIP3    H172548   3.807   4.313   1.600  2.0644  0.8817 -0.8691
17019TIP3    H272549   3.891   4.228   1.508 -0.0123 -6.0914  2.9669
17020TIP3   OH272550   6.022   4.643  12.745 -0.2774 -0.2842 -0.1761
17020TIP3    H172551   5.981   4.705  12.806  1.5662  0.9823 -0.1371
17020TIP3    H272552   5.975   4.657  12.663 -0.5301  0.4739  0.0808
17021TIP3   OH272553   2.460   6.573  12.798 -0.1899 -0.0209 -0.4222
17021TIP3    H172554   2.368   6.594  12.785 -0.4368 -0.1087  1.0508
17021TIP3    H272555   2.505   6.658  12.793 -0.5548  0.2321  0.4125
17022TIP3   OH272556   2.284   3.307   5.266  1.0706 -0.3402 -0.2986
17022TIP3    H172557   2.318   3.219   5.248  2.2499  0.4022 -1.8753
17022TIP3    H272558   2.360   3.358   5.294  0.9610  0.8553 -2.0452
17023TIP3   OH272559   1.787   1.991  12.795  0.0860 -0.5784  0.1456
17023TIP3    H172560   1.828   2.058  12.850 -0.0780 -0.1454 -0.2520
17023TIP3    H272561   1.767   2.036  12.713  0.6915 -1.3163 -0.4274
17024TIP3   OH272562   4.067   4.692  12.532  0.1112  0.3676  0.2820
17024TIP3    H172563   4.041   4.630  12.465 -0.4493  0.8954 -0.0015
17024TIP3    H272564   4.020   4.664  12.611  1.5787 -0.8796  0.7583
17025TIP3   OH272565   4.633   2.825  14.545 -0.2444 -0.1608 -0.0714
17025TIP3    H172566   4.629   2.729  14.545 -1.4523 -0.1472  1.2155
17025TIP3    H272567   4.552   2.853  14.502  0.0433  0.2910 -0.3275
17026TIP3   OH272568   0.201   4.004   2.094  0.8120  0.6419  0.0379
17026TIP3    H172569   0.282   3.966   2.057  1.0628 -0.1396  1.3370
17026TIP3    H272570   0.158   3.931   2.138 -1.4807  0.6383 -1.9978
17027TIP3   OH272571   0.138   5.593  12.553 -0.0965 -0.4081  0.4614
17027TIP3    H172572   0.126   5.664  12.615  1.7844  0.4772 -0.1255
17027TIP3    H272573   0.109   5.629  12.469 -1.0482 -1.0399  0.4999
17028TIP3   OH272574   1.274   2.922  12.292  0.8938 -0.5240  0.2356
17028TIP3    H172575   1.241   2.980  12.360 -0.9020 -0.4618 -0.6196
17028TIP3    H272576   1.246   2.834  12.319  0.7314 -0.5774 -0.0999
17029TIP3   OH272577   3.636   6.003  13.529  0.5392  0.0141  0.2916
17029TIP3    H172578   3.729   6.012  13.508 -0.1372 -0.6963 -3.8168
17029TIP3    H272579   3.591   6.056  13.463 -2.0073 -0.0048  1.8875
17030TIP3   OH272580   2.077   6.734  10.571  0.2228 -0.1535 -0.4940
17030TIP3    H172581   2.082   6.824  10.538 -0.6080  0.0608 -0.0658
17030TIP3    H272582   2.003   6.696  10.524  0.3970 -0.5286 -0.4640
17031TIP3   OH272583   3.744   5.597   6.191 -0.1418 -0.5225  0.2539
17031TIP3    H172584   3.679   5.527   6.184 -0.5403  0.0600 -3.8395
17031TIP3    H272585   3.693   5.673   6.221 -0.8783 -0.6481 -0.6366
17032TIP3   OH272586   5.180   1.673  13.581  0.9311 -0.1555 -0.2863
17032TIP3    H172587   5.256   1.723  13.610  0.0465  0.0001  1.9637
17032TIP3    H272588   5.209   1.630  13.501  2.4183  2.2259 -1.1488
17033TIP3   OH272589   5.853   6.577  16.093  0.1816  0.5044 -0.4774
17033TIP3    H172590   5.813   6.502  16.048  0.5147 -0.0356  0.1089
17033TIP3    H272591   5.866   6.546  16.183  2.1811  0.5597 -0.7137
17034TIP3   OH272592   6.794   5.912  12.888  0.1252 -0.1099 -0.4350
17034TIP3    H172593   6.821   5.985  12.944  0.4870 -1.4557  1.2148
17034TIP3    H272594   6.766   5.844  12.949  2.0631 -2.2587 -1.7966
17035TIP3   OH272595   0.039   3.333  10.612  0.3560  0.1305  0.0922
17035TIP3    H172596  -0.038   3.277  10.605  1.0012 -0.7309 -0.2300
17035TIP3    H272597   0.011   3.404  10.671 -0.2966 -0.8242  0.9729
17036TIP3   OH272598   3.643   1.416   6.598 -0.5952  0.2670  0.1155
17036TIP3    H172599   3.626   1.497   6.552  1.7174  0.5780 -0.3167
17036TIP3    H272600   3.738   1.403   6.590 -0.5676 -1.3018  2.0909
17037TIP3   OH272601   0.602   4.447   6.636 -0.3820 -0.0390 -0.0581
17037TIP3    H172602   0.654   4.461   6.557  2.8955  1.3658  2.1480
17037TIP3    H272603   0.609   4.354   6.654  1.8123  0.1715  0.3769
17038TIP3   OH272604   4.904   3.987  16.984 -0.1151 -0.2689 -0.0835
17038TIP3    H172605   4.826   4.004  17.036  0.9023  0.1931  1.3599
17038TIP3    H272606   4.946   4.073  16.974 -0.2384 -0.3593 -1.6236
17039TIP3   OH272607   5.001   5.195  11.738 -0.4394 -0.2219  0.2474
17039TIP3    H172608   5.035   5.110  11.711  3.1587  0.9397  0.5224
17039TIP3    H272609   5.062   5.258  11.699 -3.9010  2.4497 -1.3533
17040TIP3   OH272610   5.473   0.834   0.412 -0.0528  0.3564  0.0622
17040TIP3    H172611   5.417   0.896   0.458 -0.0888  0.1154  0.3460
17040TIP3    H272612   5.451   0.749   0.448  0.5285  0.2620  0.2158
17041TIP3   OH272613   4.350   1.107   0.286  0.6597 -0.4584 -0.3547
17041TIP3    H172614   4.443   1.118   0.302  0.9601  2.3771 -3.1772
17041TIP3    H272615   4.309   1.182   0.329 -0.3972 -1.6610  0.8355
17042TIP3   OH272616   3.772   3.504  14.686 -0.5073 -0.1194 -0.2027
17042TIP3    H172617   3.810   3.453  14.615  0.3261  0.3389 -0.0989
17042TIP3    H272618   3.707   3.446  14.725  0.1355 -0.9570 -0.3438
17043TIP3   OH272619   0.098   4.211   0.617 -0.2443 -0.0190  0.1428
17043TIP3    H172620   0.045   4.159   0.557  0.0671  0.5499 -0.6368
17043TIP3    H272621   0.103   4.297   0.577  1.4891 -0.1173  0.0419
17044TIP3   OH272622   5.640   0.736   5.724  0.4720 -0.0004 -0.1964
17044TIP3    H172623   5.546   0.725   5.711  0.3614  0.0006  0.5790
17044TIP3    H272624   5.660   0.821   5.684 -0.3400  1.2572  1.9105
17045TIP3   OH272625   3.341   1.827  15.304 -0.3095  0.2853  0.3211
17045TIP3    H172626   3.363   1.735  15.291 -0.1342  0.3240  0.3405
17045TIP3    H272627   3.378   1.872  15.228  2.2320  0.7511  1.7115
17046TIP3   OH272628   1.208   1.104  11.764 -0.3802 -0.0012  0.0353
17046TIP3    H172629   1.199   1.166  11.835  1.8286 -1.1357  1.4127
17046TIP3    H272630   1.275   1.042  11.794 -0.5160 -1.4559 -2.3751
17047TIP3   OH272631   3.937   6.382   3.875 -0.4031 -0.4434  0.4235
17047TIP3    H172632   3.948   6.292   3.843 -1.5918 -0.6056  0.4089
17047TIP3    H272633   3.846   6.403   3.853  0.5911  1.7663 -2.0895
17048TIP3   OH272634   2.505   1.365   0.048  0.2593  0.1490 -0.1138
17048TIP3    H172635   2.504   1.399   0.138  0.3423 -2.4629  0.9565
17048TIP3    H272636   2.585   1.401   0.010 -0.5225  2.5133  0.2740
17049TIP3   OH272637   3.003   4.408   0.369 -0.0543 -0.1139 -0.8887
17049TIP3    H172638   2.961   4.324   0.388  0.6088 -0.4851 -1.0301
17049TIP3    H272639   2.931   4.469   0.361 -0.5256 -0.5722 -0.2982
17050TIP3   OH272640   2.172   3.051  14.997  0.6406 -0.4504 -0.1491
17050TIP3    H172641   2.248   2.993  15.000 -0.1444 -1.4662  1.3411
17050TIP3    H272642   2.118   3.016  14.926  1.8234  0.6898 -1.6828
17051TIP3   OH272643   6.577   3.710  11.795  0.5748 -1.1533  0.4948
17051TIP3    H172644   6.485   3.726  11.815  0.8691 -0.4426  1.3184
17051TIP3    H272645   6.620   3.706  11.881  1.8309  1.7074  0.0919
17052TIP3   OH272646   3.125   6.004  11.225 -0.0434  0.1890 -0.3993
17052TIP3    H172647   3.186   6.065  11.183  1.3325 -0.9559 -0.1348
17052TIP3    H272648   3.160   5.992  11.314 -1.3785  0.4640  0.1962
17053TIP3   OH272649   6.417   0.084   4.113 -0.6059  0.0030 -0.0265
17053TIP3    H172650   6.489   0.072   4.175 -1.4871 -1.0360  0.8308
17053TIP3    H272651   6.450   0.047   4.031 -0.3785 -1.0320  0.5205
17054TIP3   OH272652   6.516   6.388   2.518  0.1186  0.2803 -0.4007
17054TIP3    H172653   6.511   6.294   2.532 -0.3024  0.0267 -2.0509
17054TIP3    H272654   6.472   6.402   2.434 -1.0536  2.1256  0.4541
17055TIP3   OH272655   5.724   5.431  16.811  0.0706 -0.0253 -0.0068
17055TIP3    H172656   5.692   5.419  16.721  0.5530  6.2286 -1.4939
17055TIP3    H272657   5.646   5.454  16.861  0.1219 -1.2878  0.6919
17056TIP3   OH272658   3.484   0.704  11.721  0.0291  0.2001  0.2697
17056TIP3    H172659   3.486   0.787  11.769  0.2251  0.1404  0.3663
17056TIP3    H272660   3.438   0.644  11.780  2.1092 -0.4463  1.3175
17057TIP3   OH272661   0.306   1.134   0.437  0.0896  0.0263  0.1441
17057TIP3    H172662   0.326   1.054   0.486  0.2825  0.3444  0.6018
17057TIP3    H272663   0.385   1.187   0.447 -0.3623  0.6298  0.5862
17058TIP3   OH272664   3.905   2.515   2.094 -0.3282 -0.1817 -0.6727
17058TIP3    H172665   3.993   2.496   2.062 -0.2135  1.2097 -1.2411
17058TIP3    H272666   3.871   2.581   2.034 -0.7634  1.2522  1.0657
17059TIP3   OH272667   0.122   6.735   1.386 -0.1364 -0.3720  0.0033
17059TIP3    H172668   0.079   6.740   1.301 -1.8220 -0.9277  0.7681
17059TIP3    H272669   0.103   6.646   1.417  0.1152 -0.0576  1.1141
17060TIP3   OH272670   2.276   4.687  13.321 -0.2538 -0.0140 -0.1976
17060TIP3    H172671   2.314   4.774  13.311  0.4802 -0.4063 -0.9464
17060TIP3    H272672   2.187   4.696  13.288 -0.6944  0.8078  1.1498
17061TIP3   OH272673   5.792   0.365  14.135 -0.0506 -0.6466  0.2241
17061TIP3    H172674   5.774   0.341  14.044 -0.4532 -1.7327  0.5738
17061TIP3    H272675   5.706   0.374  14.176  0.1324 -0.7208  0.6386
17062TIP3   OH272676   2.337   3.027   3.005 -0.0649 -0.1788  0.3761
17062TIP3    H172677   2.374   3.051   3.090  0.7772 -0.4162  0.0793
17062TIP3    H272678   2.287   3.104   2.978  2.2660  1.1761 -0.3801
17063TIP3   OH272679   4.670   6.041   0.988 -0.3845 -0.5422  0.3575
17063TIP3    H172680   4.637   6.031   1.078 -1.9610  2.0607  0.1656
17063TIP3    H272681   4.753   6.087   0.999 -0.1574 -0.9730  0.4947
17064TIP3   OH272682   0.824   0.268   0.222  0.3853 -0.6805 -0.3885
17064TIP3    H172683   0.777   0.335   0.172 -1.9919 -3.5374 -2.3171
17064TIP3    H272684   0.796   0.284   0.313  1.0859  1.7616 -0.5259
17065TIP3   OH272685   1.755   4.148  13.032  0.0758 -0.3245 -0.0762
17065TIP3    H172686   1.783   4.103  13.112  2.3865 -0.6983 -1.0308
17065TIP3    H272687   1.766   4.083  12.963 -0.6240  0.4134 -0.8939
17066TIP3   OH272688   4.280   0.934   6.029 -0.2619 -0.2055 -0.1991
17066TIP3    H172689   4.330   0.858   6.058  1.7496  1.9077  2.3542
17066TIP3    H272690   4.314   0.953   5.942 -1.3990 -2.5828 -1.2720
17067TIP3   OH272691   1.018   3.883  17.208 -0.2589  0.2396  0.7390
17067TIP3    H172692   1.013   3.814  17.142  1.6573 -0.2847  1.0725
17067TIP3    H272693   0.979   3.960  17.165 -0.4881 -0.4952 -0.4144
17068TIP3   OH272694   0.851   4.636  13.952  0.0171  0.2024 -0.5372
17068TIP3    H172695   0.944   4.637  13.933 -0.0170  0.6696 -0.6855
17068TIP3    H272696   0.828   4.543  13.953  0.9650 -0.0892  1.8961
17069TIP3   OH272697   4.872   2.298  12.204 -0.2489  0.1402  0.0292
17069TIP3    H172698   4.827   2.237  12.262  0.1542 -0.2430 -0.0539
17069TIP3    H272699   4.962   2.266  12.202 -0.3824 -0.2158 -1.2692
17070TIP3   OH272700   5.567   3.593   3.442 -0.2017 -0.4723  0.3134
17070TIP3    H172701   5.564   3.688   3.450  2.2653 -0.2425 -0.5698
17070TIP3    H272702   5.526   3.560   3.521 -1.1095  1.3228  0.6259
17071TIP3   OH272703   4.739   2.284  10.550  0.5057 -0.6516  0.0711
17071TIP3    H172704   4.688   2.351  10.595  1.4642  0.2526 -0.1555
17071TIP3    H272705   4.828   2.320  10.546  0.2599 -0.0671 -3.6788
17072TIP3   OH272706   2.427   2.622  15.192 -0.0380 -0.2350 -0.2809
17072TIP3    H172707   2.439   2.559  15.122 -1.9757  1.0605 -1.8746
17072TIP3    H272708   2.505   2.678  15.188  0.8317 -1.3978 -0.0076
17073TIP3   OH272709   4.003   3.568   4.977 -0.0462 -0.5420  0.2007
17073TIP3    H172710   3.979   3.660   4.969  2.1047 -0.1128 -2.9999
17073TIP3    H272711   3.930   3.520   4.937 -1.0873 -0.2876  1.7171
17074TIP3   OH272712   6.231   6.234   4.306 -0.0550 -0.1852  0.1702
17074TIP3    H172713   6.285   6.282   4.369 -0.7924 -0.3893  0.9778
17074TIP3    H272714   6.162   6.295   4.283 -1.1567 -0.9074  1.4133
17075TIP3   OH272715   4.331   2.756   2.847 -0.4201  0.0751 -0.3686
17075TIP3    H172716   4.312   2.847   2.825 -1.0201  0.0410 -0.0231
17075TIP3    H272717   4.276   2.738   2.924 -1.8851 -1.1984 -1.6423
17076TIP3   OH272718   4.668   4.442   4.489 -0.2145 -0.2133  0.1916
17076TIP3    H172719   4.620   4.523   4.478 -1.7862 -0.9444  1.3024
17076TIP3    H272720   4.610   4.374   4.453  0.5221 -0.9907  0.4218
17077TIP3   OH272721   3.422   0.390   4.620 -0.6953  0.2449  0.3612
17077TIP3    H172722   3.480   0.465   4.625 -1.9797  1.3302 -0.3933
17077TIP3    H272723   3.390   0.378   4.710  0.4297 -0.1754  0.7187
17078TIP3   OH272724   6.073   5.431  15.011  0.2369 -0.0872  0.3532
17078TIP3    H172725   6.083   5.494  15.083  1.4327 -0.6412  0.6862
17078TIP3    H272726   6.070   5.486  14.933 -2.9291  0.6747  0.8759
17079TIP3   OH272727   3.047   4.871   5.296 -0.1567 -0.5351 -0.5419
17079TIP3    H172728   3.052   4.890   5.390 -0.1560  1.9681 -0.9980
17079TIP3    H272729   2.977   4.806   5.289 -1.0021  0.1424  1.0807
17080TIP3   OH272730   0.525   3.825  12.036 -0.0942  0.6490  0.3106
17080TIP3    H172731   0.507   3.897  11.976  0.4175 -0.8953 -1.8271
17080TIP3    H272732   0.445   3.772  12.034  0.2042  0.1924  0.4055
17081TIP3   OH272733   3.034   1.708   3.382 -0.6385  0.4928  0.0104
17081TIP3    H172734   3.045   1.615   3.400  0.7647  0.9159  1.5757
17081TIP3    H272735   2.951   1.730   3.424 -1.3020 -0.1516 -0.9189
17082TIP3   OH272736   2.668   1.099  14.041 -0.0883 -0.7512 -0.4939
17082TIP3    H172737   2.689   1.061  14.126  1.6801  1.0951 -0.0351
17082TIP3    H272738   2.577   1.074  14.026 -0.9375  0.0036  2.6022
17083TIP3   OH272739   5.942   5.356   4.983  0.0971 -0.6063 -0.4617
17083TIP3    H172740   5.912   5.346   5.074  1.2246 -1.2022 -0.1431
17083TIP3    H272741   5.892   5.431   4.950 -0.9485 -0.9032  0.3728
17084TIP3   OH272742   6.340   1.271   4.570 -0.6237  0.1143  0.0012
17084TIP3    H172743   6.281   1.314   4.508 -1.7087 -0.3946  0.6711
17084TIP3    H272744   6.324   1.314   4.653  1.2341  1.1828 -0.1232
17085TIP3   OH272745   1.646   4.054  14.222  0.1813 -0.0483 -0.0726
17085TIP3    H172746   1.690   4.136  14.201 -0.7086  0.9491  1.7723
17085TIP3    H272747   1.662   4.041  14.316  1.1741 -2.5503 -0.4997
17086TIP3   OH272748   1.200   3.509   2.834 -0.3590  0.4138 -0.0264
17086TIP3    H172749   1.145   3.579   2.869  0.5398  1.0928  0.0773
17086TIP3    H272750   1.263   3.491   2.904  0.5233  0.7483 -0.7059
17087TIP3   OH272751   5.403   6.042  12.386 -0.1633  0.0779  0.5053
17087TIP3    H172752   5.361   6.048  12.300  1.2666  1.5654 -0.1362
17087TIP3    H272753   5.332   6.061  12.448 -1.9671 -3.9159 -0.0135
17088TIP3   OH272754   6.475   3.406   1.182  0.2652 -0.1227 -0.1660
17088TIP3    H172755   6.481   3.422   1.276 -0.6744 -1.1150  0.0803
17088TIP3    H272756   6.567   3.401   1.153  0.5613  0.2779  0.6776
17089TIP3   OH272757   0.088   0.160   0.439 -0.2728 -0.4782 -0.0569
17089TIP3    H172758   0.167   0.197   0.399 -0.2236 -0.7136 -0.1760
17089TIP3    H272759   0.017   0.216   0.409 -0.4352 -1.4823 -1.6194
17090TIP3   OH272760   0.578   3.823  15.345  0.1798  0.8066 -0.4909
17090TIP3    H172761   0.508   3.797  15.405  0.6394  0.6242 -0.0240
17090TIP3    H272762   0.547   3.796  15.259 -0.6541  1.4042 -0.3918
17091TIP3   OH272763   1.533   4.300   4.795 -0.2020  0.2187  0.3799
17091TIP3    H172764   1.518   4.210   4.825 -0.5562  0.2376  0.2637
17091TIP3    H272765   1.539   4.294   4.700  0.1620  0.2650  0.3991
17092TIP3   OH272766   0.242   2.543  14.596  0.5951 -0.0746  0.0190
17092TIP3    H172767   0.313   2.583  14.647  0.8863 -0.8655  0.2644
17092TIP3    H272768   0.164   2.594  14.619  1.0494  0.7019 -0.1220
17093TIP3   OH272769   0.598   1.578   1.498 -0.5568 -0.0795 -0.5500
17093TIP3    H172770   0.615   1.484   1.509  1.9508  0.1741 -1.5730
17093TIP3    H272771   0.550   1.585   1.416 -1.8391 -0.5161  0.1351
17094TIP3   OH272772   3.347   4.524   1.705  0.2762 -0.6359  0.0328
17094TIP3    H172773   3.435   4.528   1.742  0.8793 -0.0063 -1.3833
17094TIP3    H272774   3.324   4.431   1.709 -0.2963 -0.4445  3.1982
17095TIP3   OH272775   4.270   2.847   5.823  0.0937 -0.0602  0.7347
17095TIP3    H172776   4.329   2.810   5.757 -0.7491 -1.3414  0.6799
17095TIP3    H272777   4.295   2.803   5.904  1.5265  1.9239  1.4784
17096TIP3   OH272778   0.550   1.609   6.141 -0.3097 -0.4735  0.5459
17096TIP3    H172779   0.622   1.672   6.135 -1.3569  0.7116 -0.1787
17096TIP3    H272780   0.589   1.525   6.116  1.0773 -0.0942  1.3458
17097TIP3   OH272781   0.565   1.972   5.450 -0.0353  0.3158 -0.2877
17097TIP3    H172782   0.652   1.997   5.420 -0.2451  0.0519 -1.1582
17097TIP3    H272783   0.525   2.053   5.479  0.3439  0.5128 -0.3092
17098TIP3   OH272784   1.081   1.438   0.303  0.0052 -0.1459  0.0678
17098TIP3    H172785   1.030   1.390   0.369 -0.7559 -0.5623 -0.8022
17098TIP3    H272786   1.134   1.371   0.260  0.3213  0.0866  0.0914
17099TIP3   OH272787   4.635   5.986  12.335  0.8880 -0.4424  0.1011
17099TIP3    H172788   4.676   6.008  12.419 -0.3700  0.5001  0.4891
17099TIP3    H272789   4.697   6.019  12.270  0.2524  2.1117  0.6786
17100TIP3   OH272790   6.151   4.158  16.778  0.2036 -0.6410 -0.3761
17100TIP3    H172791   6.071   4.125  16.819 -1.1325 -0.6623 -2.7813
17100TIP3    H272792   6.218   4.093  16.801 -0.9441 -1.7144  0.0824
17101TIP3   OH272793   5.540   6.434   4.442 -0.3367  0.1316  0.3434
17101TIP3    H172794   5.580   6.407   4.359 -0.9013  1.3221 -0.3320
17101TIP3    H272795   5.607   6.490   4.483  0.3068 -1.1762  1.1362
17102TIP3   OH272796   5.664   0.479  14.757  0.5033  0.3637 -0.0467
17102TIP3    H172797   5.727   0.542  14.791  2.5027 -1.3856 -0.2767
17102TIP3    H272798   5.704   0.445  14.677  0.0837 -1.9601  0.6342
17103TIP3   OH272799   6.455   0.669   0.293  0.3814  0.5715 -0.0997
17103TIP3    H172800   6.441   0.755   0.253  2.3772  0.9338 -0.1356
17103TIP3    H272801   6.547   0.649   0.275  0.1080 -1.3339  0.3932
17104TIP3   OH272802   6.080   2.660   5.050  0.3582  0.4212  0.6718
17104TIP3    H172803   6.020   2.687   4.980  0.7469 -1.8890 -0.6193
17104TIP3    H272804   6.046   2.704   5.128 -2.0347  0.5066 -0.3396
17105TIP3   OH272805   1.529   3.733  13.587  0.3316  0.2093  0.9465
17105TIP3    H172806   1.562   3.823  13.589  1.0716  0.1154 -2.4474
17105TIP3    H272807   1.463   3.733  13.517  1.2517 -2.1429 -0.0163
17106TIP3   OH272808   0.719   1.453  11.067 -0.4912  0.5784 -0.0760
17106TIP3    H172809   0.736   1.496  11.151  0.3250  1.7289 -0.8037
17106TIP3    H272810   0.755   1.513  11.001 -2.3992  0.4098 -1.3629
17107TIP3   OH272811   1.236   3.253   6.191  0.4919  0.0999 -0.5534
17107TIP3    H172812   1.179   3.236   6.116  1.3666 -3.5440 -0.5658
17107TIP3    H272813   1.178   3.253   6.266  0.0845 -0.3081 -0.8636
17108TIP3   OH272814   0.605   5.783   1.614 -0.4812 -0.2250 -0.4268
17108TIP3    H172815   0.553   5.805   1.537  1.2537 -2.1718 -2.2787
17108TIP3    H272816   0.639   5.867   1.644 -3.0392  0.8754 -0.2717
17109TIP3   OH272817   3.194   5.678   1.178 -0.4347  0.2944 -0.2176
17109TIP3    H172818   3.195   5.591   1.137 -0.9477  1.1527 -2.2124
17109TIP3    H272819   3.222   5.663   1.268  0.6777 -1.7592 -0.8416
17110TIP3   OH272820   5.498   6.515  15.867 -0.4355 -0.7456  0.0906
17110TIP3    H172821   5.570   6.577  15.882 -0.5252 -0.8721  1.1266
17110TIP3    H272822   5.419   6.565  15.887 -0.5476 -1.0001  0.2949
17111TIP3   OH272823   1.161   5.805  11.129  0.0626  0.2880  0.4268
17111TIP3    H172824   1.131   5.798  11.038 -1.4625  0.5484  0.8739
17111TIP3    H272825   1.256   5.805  11.123  0.0077 -0.9284 -1.0668
17112TIP3   OH272826   6.457   5.915   3.885 -0.7262 -0.8829 -0.7320
17112TIP3    H172827   6.542   5.871   3.876 -1.0236 -1.1561 -2.6654
17112TIP3    H272828   6.415   5.870   3.958  0.5473 -1.1526 -0.1325
17113TIP3   OH272829   2.334   1.925   5.252 -0.6771  0.1773 -0.3787
17113TIP3    H172830   2.423   1.946   5.226 -0.0290 -0.7575  0.9346
17113TIP3    H272831   2.324   1.832   5.231 -0.8467 -0.0668  0.7131
17114TIP3   OH272832   0.708   3.966  14.848  0.4498 -0.4683 -0.3556
17114TIP3    H172833   0.656   4.023  14.904  0.1195 -0.9440 -0.1814
17114TIP3    H272834   0.799   3.983  14.874  0.5549  1.5865 -1.7637
17115TIP3   OH272835   1.270   4.274  14.194 -0.1075 -0.0913  0.0215
17115TIP3    H172836   1.301   4.365  14.183 -0.2469 -0.0515 -0.0366
17115TIP3    H272837   1.187   4.271  14.147 -0.0807 -0.2626 -0.0157
17116TIP3   OH272838   5.251   6.745   3.589  0.0896  0.0252 -0.3581
17116TIP3    H172839   5.295   6.829   3.596 -0.3683  0.1984  0.6517
17116TIP3    H272840   5.211   6.746   3.502  0.3326  0.7320 -0.4654
17117TIP3   OH272841   0.790   0.516  14.725 -0.5308 -0.1682  0.0662
17117TIP3    H172842   0.879   0.550  14.715 -0.9525  0.9078 -0.1960
17117TIP3    H272843   0.802   0.422  14.742  0.6096 -0.2293 -0.9203
17118TIP3   OH272844   1.808   1.119  15.629  0.4088  0.1049  0.3312
17118TIP3    H172845   1.742   1.108  15.697  1.8107  2.7766  2.3209
17118TIP3    H272846   1.892   1.116  15.676  1.7666 -2.4918 -1.9979
17119TIP3   OH272847   6.219   4.232   0.303  0.4025 -0.3075  0.4648
17119TIP3    H172848   6.239   4.240   0.396 -2.7951  0.7838  1.1719
17119TIP3    H272849   6.201   4.138   0.291 -0.8065 -0.2167  1.3778
17120TIP3   OH272850   0.344   4.993  10.274 -0.5231 -0.4347  0.2422
17120TIP3    H172851   0.419   5.045  10.303  0.3602 -1.3994 -0.2262
17120TIP3    H272852   0.270   5.053  10.278  0.4184  0.7948 -0.0798
17121TIP3   OH272853   3.218   0.198   3.500  0.3136 -0.7400 -0.3476
17121TIP3    H172854   3.171   0.138   3.559 -4.1458  2.0077 -0.6888
17121TIP3    H272855   3.211   0.157   3.414 -0.1260 -1.0827 -0.1542
17122TIP3   OH272856   6.236   4.387  14.986  0.5942  0.1830 -0.1411
17122TIP3    H172857   6.312   4.331  15.002  2.4097  2.1077 -1.4613
17122TIP3    H272858   6.192   4.346  14.911  2.5378  1.0124 -1.8290
17123TIP3   OH272859   2.183   5.915   2.090  0.2191  0.2753  0.4756
17123TIP3    H172860   2.231   5.963   2.158  1.0977 -1.3738  1.1007
17123TIP3    H272861   2.113   5.870   2.137 -0.1303  0.3490  0.0326
17124TIP3   OH272862   6.794   5.557   4.398  0.0750  0.1101 -0.2270
17124TIP3    H172863   6.844   5.477   4.410  1.0753  0.6144 -0.8989
17124TIP3    H272864   6.702   5.530   4.407  0.4476 -0.8227  1.0297
17125TIP3   OH272865   5.598   3.538  11.421  0.1844 -0.3465  0.1688
17125TIP3    H172866   5.559   3.467  11.473 -0.0720  0.7609  1.5578
17125TIP3    H272867   5.523   3.593  11.396  0.4735 -0.0914 -0.1351
17126TIP3   OH272868   5.043   4.509  15.321 -0.2856  0.1309 -0.3164
17126TIP3    H172869   4.949   4.529  15.313 -0.5154 -0.7333  0.1874
17126TIP3    H272870   5.047   4.414  15.333  0.6518  0.1719 -0.2265
17127TIP3   OH272871   4.045   5.095  14.092 -0.0247 -0.2574 -0.5276
17127TIP3    H172872   4.133   5.131  14.098 -0.5685  0.9980  0.2797
17127TIP3    H272873   4.002   5.124  14.172 -1.1357 -0.9765 -0.8444
17128TIP3   OH272874   6.320   5.926   4.739  0.3465  0.0744 -0.1430
17128TIP3    H172875   6.371   5.855   4.779  1.7006  0.4411 -1.1673
17128TIP3    H272876   6.230   5.908   4.767  0.9232 -0.9500  1.1925
17129TIP3   OH272877   0.287   0.829   2.287  0.1107  0.2306 -0.8805
17129TIP3    H172878   0.269   0.766   2.217 -0.4754 -1.6119  0.8284
17129TIP3    H272879   0.382   0.832   2.292  0.1540  0.3089 -1.7028
17130TIP3   OH272880   3.183   3.948  13.844  0.6265  0.2015 -0.2960
17130TIP3    H172881   3.253   4.009  13.864  0.4246  0.5314 -0.5839
17130TIP3    H272882   3.103   4.001  13.845  0.4710 -0.0194 -0.7203
17131TIP3   OH272883   5.346   5.325   5.478  0.1976 -0.0852 -0.6974
17131TIP3    H172884   5.326   5.266   5.550 -0.4767  1.2969  0.3088
17131TIP3    H272885   5.405   5.276   5.421  0.8447 -1.1833  0.8691
17132TIP3   OH272886   6.130   6.392  15.841  0.0541  0.3179 -0.4920
17132TIP3    H172887   6.119   6.478  15.882 -1.3229  0.7033 -1.5868
17132TIP3    H272888   6.071   6.335  15.890 -0.7552  0.5333 -1.1839
17133TIP3   OH272889   1.923   4.249   0.307 -0.2169 -0.4449 -0.6586
17133TIP3    H172890   1.900   4.166   0.350 -0.4119  0.8008  1.8672
17133TIP3    H272891   1.842   4.298   0.306  0.2217  0.2887 -0.6925
17134TIP3   OH272892   2.365   4.122  14.395  0.1255 -0.2080 -0.2024
17134TIP3    H172893   2.427   4.149  14.462  0.4705 -0.3302 -0.4659
17134TIP3    H272894   2.414   4.060  14.341 -0.4890 -0.9628  0.0837
17135TIP3   OH272895   5.760   3.988   6.402 -0.4457  0.3194 -0.0843
17135TIP3    H172896   5.787   3.917   6.460  1.5571  0.4379 -0.8040
17135TIP3    H272897   5.834   4.048   6.400 -1.5512  1.7425 -0.6036
17136TIP3   OH272898   4.243   5.331   1.408  0.1162  0.5214  0.0178
17136TIP3    H172899   4.287   5.283   1.478  0.8032  1.5392  0.3018
17136TIP3    H272900   4.213   5.412   1.449 -2.4202 -0.2912 -0.0636
17137TIP3   OH272901   4.493   1.401   2.900 -0.3827  0.0249 -0.1024
17137TIP3    H172902   4.419   1.361   2.947  0.3007  0.7642  1.6845
17137TIP3    H272903   4.505   1.486   2.942  1.1419  0.1549 -0.7398
17138TIP3   OH272904   2.280   1.521   1.536  0.2068 -0.4836 -0.2788
17138TIP3    H172905   2.193   1.558   1.551  0.9112  1.5998 -1.0509
17138TIP3    H272906   2.268   1.460   1.463 -0.2693  1.4291 -1.8872
17139TIP3   OH272907   3.830   1.243   6.350  0.4605  0.7476 -0.5442
17139TIP3    H172908   3.869   1.296   6.420 -3.7102  1.3222  1.6542
17139TIP3    H272909   3.792   1.168   6.396 -1.8895  0.8066 -2.2071
17140TIP3   OH272910   6.111   3.536   1.818  0.2998  0.0115 -0.0141
17140TIP3    H172911   6.122   3.462   1.759 -0.5620  0.2312 -0.4723
17140TIP3    H272912   6.018   3.558   1.810  0.3076  0.4347  0.9570
17141TIP3   OH272913   5.037   0.622   2.153 -0.4092  0.7110  0.8666
17141TIP3    H172914   5.027   0.635   2.059 -0.1905  1.5170  0.9501
17141TIP3    H272915   4.972   0.555   2.175  0.9706 -1.0536 -0.1993
17142TIP3   OH272916   1.394   3.957   0.479 -0.1317  0.4447 -0.5350
17142TIP3    H172917   1.401   3.915   0.393 -0.6284  1.7345 -1.2322
17142TIP3    H272918   1.402   3.885   0.541 -0.8267 -0.6638 -1.6791
17143TIP3   OH272919   1.210   4.472   2.448 -0.1791  0.2754 -0.9795
17143TIP3    H172920   1.206   4.493   2.541 -1.4656 -0.4588 -0.8455
17143TIP3    H272921   1.240   4.381   2.445  1.0690  0.6724 -1.3617
17144TIP3   OH272922   6.512   2.753   0.402 -0.6413  0.1529 -0.3229
17144TIP3    H172923   6.507   2.672   0.352 -0.4465 -0.5287  0.7299
17144TIP3    H272924   6.447   2.741   0.472  0.5285  0.2158  0.8005
17145TIP3   OH272925   4.246   4.597  16.093  0.2283 -0.2115 -0.0365
17145TIP3    H172926   4.326   4.553  16.119  0.5329 -0.7672 -1.8443
17145TIP3    H272927   4.217   4.642  16.173  2.2380 -0.1044  0.6891
17146TIP3   OH272928   6.674   3.153  12.393  0.1516 -0.2247  0.5239
17146TIP3    H172929   6.688   3.245  12.417 -1.4877  0.3334 -0.5000
17146TIP3    H272930   6.617   3.120  12.462  0.8257 -0.5321  0.9492
17147TIP3   OH272931   2.477   0.180   2.346 -0.2256  0.2113 -0.1106
17147TIP3    H172932   2.536   0.187   2.421 -0.0866  2.1272 -0.3411
17147TIP3    H272933   2.402   0.235   2.370 -0.5648  0.1609 -1.0114
17148TIP3   OH272934   5.090   5.478   0.087  0.2843  0.2740 -0.3439
17148TIP3    H172935   5.142   5.555   0.110  1.3330 -0.3819 -0.4385
17148TIP3    H272936   5.148   5.427   0.030 -0.7645 -0.1087 -1.0918
17149TIP3   OH272937   2.406   3.722  16.901  0.3116  0.0705  0.2423
17149TIP3    H172938   2.369   3.810  16.899  1.8269  0.7264 -1.4407
17149TIP3    H272939   2.331   3.664  16.887 -0.6394  1.0781  0.9925
17150TIP3   OH272940   1.479   4.207  16.217 -0.9646  0.2974  0.2271
17150TIP3    H172941   1.440   4.295  16.217  0.5422  1.0337 -1.4581
17150TIP3    H272942   1.572   4.222  16.230 -0.6665 -1.0608 -0.1692
17151TIP3   OH272943   2.739   0.562   3.701 -0.4667 -0.2678 -0.1363
17151TIP3    H172944   2.751   0.650   3.664  1.3428  0.2754  1.5717
17151TIP3    H272945   2.654   0.566   3.745 -1.1729  0.0611 -1.4816
17152TIP3   OH272946   6.417   0.093   6.178 -0.0105  0.0076  0.2241
17152TIP3    H172947   6.350   0.155   6.207 -0.4281 -0.0327 -0.6287
17152TIP3    H272948   6.481   0.147   6.131 -1.5306 -0.4162 -2.5704
17153TIP3   OH272949   0.227   5.927  13.395 -0.7602  0.4151 -0.2148
17153TIP3    H172950   0.210   5.864  13.465  1.3577  0.3707  0.3248
17153TIP3    H272951   0.153   5.987  13.398 -1.6827 -0.7257  0.7670
17154TIP3   OH272952   1.742   3.380   1.434  0.0129 -0.1367 -0.3782
17154TIP3    H172953   1.742   3.342   1.522 -2.9145  1.1246  0.3014
17154TIP3    H272954   1.821   3.432   1.429  1.7041 -2.4684  0.3886
17155TIP3   OH272955   2.280   1.867   6.274 -0.2140 -0.2868 -0.0128
17155TIP3    H172956   2.209   1.893   6.332  1.2548  1.4621  1.0938
17155TIP3    H272957   2.360   1.885   6.323  1.0573 -0.2081 -1.9874
17156TIP3   OH272958   6.453   4.504   3.403 -0.1167 -0.0420  0.5646
17156TIP3    H172959   6.436   4.557   3.325 -0.4374 -0.8951  0.0355
17156TIP3    H272960   6.478   4.568   3.470  1.2089  0.6281 -0.5004
17157TIP3   OH272961   4.300   2.989  16.240 -0.2031  0.5344 -0.3736
17157TIP3    H172962   4.332   3.007  16.151  1.2265  0.6574  0.1339
17157TIP3    H272963   4.259   3.071  16.268 -2.1824 -0.0024 -1.4967
17158TIP3   OH272964   4.188   3.172   3.887  0.1079  0.8801 -0.0155
17158TIP3    H172965   4.281   3.173   3.912  0.1284 -0.7256  0.0365
17158TIP3    H272966   4.144   3.128   3.960 -0.8121  2.1947  0.2612
17159TIP3   OH272967   6.448   4.762   1.150  0.8331  0.3862  0.0027
17159TIP3    H172968   6.447   4.684   1.095 -3.9645  0.6141 -0.6554
17159TIP3    H272969   6.491   4.829   1.096 -0.7045 -0.2660 -2.1734
17160TIP3   OH272970   3.503   2.624  12.472  0.1316 -0.0152 -0.1339
17160TIP3    H172971   3.438   2.588  12.411  2.3674 -1.1174 -2.0210
17160TIP3    H272972   3.551   2.689  12.420  2.5226 -1.4446  0.1654
17161TIP3   OH272973   5.291   2.865   1.471  0.2349  0.4025 -0.1779
17161TIP3    H172974   5.207   2.854   1.515  1.0048  1.3072  1.6368
17161TIP3    H272975   5.356   2.841   1.537  1.4383  0.8106 -1.1680
17162TIP3   OH272976   5.866   2.721  15.993 -0.1552 -0.9537  0.5037
17162TIP3    H172977   5.887   2.660  15.923 -1.3264 -0.0072 -0.7452
17162TIP3    H272978   5.796   2.678  16.042 -0.9997 -0.6430 -0.3908
17163TIP3   OH272979   3.754   1.079   4.102 -0.0247 -0.1016  0.1563
17163TIP3    H172980   3.760   1.009   4.167  2.0310 -0.0997  0.0402
17163TIP3    H272981   3.673   1.059   4.053 -0.5327 -1.2430  1.3933
17164TIP3   OH272982   4.587   5.784   4.557  0.1191  0.3026  0.7129
17164TIP3    H172983   4.590   5.695   4.591 -0.1794 -0.1086 -0.2967
17164TIP3    H272984   4.510   5.823   4.598 -0.7577 -0.4709 -0.1496
17165TIP3   OH272985   1.113   1.260  14.630  0.0436  0.6892  0.1352
17165TIP3    H172986   1.099   1.176  14.587 -0.2483  0.4695  0.6481
17165TIP3    H272987   1.168   1.240  14.706 -0.7294  0.8129  0.7444
17166TIP3   OH272988   5.608   6.077   1.390  0.8570 -0.2672  0.5338
17166TIP3    H172989   5.687   6.036   1.425 -0.7714 -4.0087  0.4151
17166TIP3    H272990   5.550   6.085   1.466 -0.2981 -2.1699 -0.0731
17167TIP3   OH272991   4.656   2.023   2.739 -0.4913 -0.2427  0.3838
17167TIP3    H172992   4.728   2.003   2.798  0.7919  0.8464 -0.7457
17167TIP3    H272993   4.669   1.965   2.664  0.3086  1.1838 -0.6329
17168TIP3   OH272994   0.092   1.815   0.801 -0.5651  0.1738  0.1649
17168TIP3    H172995   0.091   1.764   0.720  1.6166 -0.4663  0.4702
17168TIP3    H272996   0.175   1.864   0.797 -1.9323  2.7089  0.5180
17169TIP3   OH272997   5.571   3.358  16.674 -0.5360 -0.3018  0.2808
17169TIP3    H172998   5.491   3.409  16.672 -0.0803  0.4866  1.2229
17169TIP3    H272999   5.573   3.313  16.589 -0.8633  1.3899 -0.6741
17170TIP3   OH273000   4.173   1.348   2.217  0.0193  0.1562  0.0051
17170TIP3    H173001   4.096   1.312   2.262 -0.7263  0.9303 -0.6061
17170TIP3    H273002   4.162   1.442   2.223  0.0896  0.2879 -1.4336
17171TIP3   OH273003   3.438   3.509   1.072  0.1978 -0.2358 -0.0985
17171TIP3    H173004   3.438   3.430   1.019  0.4593 -1.2933  1.3953
17171TIP3    H273005   3.527   3.514   1.107  0.0003  0.3546  0.3324
17172TIP3   OH273006   1.649   3.790   3.287 -0.2858  0.1161 -0.0887
17172TIP3    H173007   1.713   3.836   3.342 -0.7099 -1.1297  1.5410
17172TIP3    H273008   1.644   3.842   3.207  0.7156  1.7617  0.8565
17173TIP3   OH273009   5.433   3.152   0.555  0.3861 -0.1427  0.3895
17173TIP3    H173010   5.438   3.197   0.639 -0.4466  1.4632 -0.3681
17173TIP3    H273011   5.339   3.153   0.533  0.8249  1.9208 -1.7809
17174TIP3   OH273012   2.246   1.008  11.179 -0.1576  0.2398 -0.3454
17174TIP3    H173013   2.286   0.921  11.174 -0.6185  0.0084 -0.0423
17174TIP3    H273014   2.171   1.003  11.120  1.0256  1.1082 -2.0239
17175TIP3   OH273015   0.157   1.973  14.403  0.4750  0.1743  0.5709
17175TIP3    H173016   0.095   1.993  14.472  0.0233 -0.1798  0.2749
17175TIP3    H273017   0.167   2.055  14.354 -1.3513 -0.2482 -0.6281
17176TIP3   OH273018   0.340   3.654   2.048  0.0925  0.5132 -0.4317
17176TIP3    H173019   0.402   3.588   2.016  0.0089 -0.0944  0.6203
17176TIP3    H273020   0.380   3.738   2.026 -0.0731  0.1356 -2.3311
17177TIP3   OH273021   4.484   6.232  13.298  0.6085  0.3765  0.1791
17177TIP3    H173022   4.572   6.198  13.279  0.6422  0.9956 -0.8218
17177TIP3    H273023   4.432   6.209  13.222 -0.2178 -0.2906  0.9154
17178TIP3   OH273024   3.571   6.692  12.756  0.5159  0.2173 -0.1172
17178TIP3    H173025   3.593   6.694  12.663  0.3067  2.1261 -0.1705
17178TIP3    H273026   3.477   6.675  12.759  0.8068 -1.6060 -0.1433
17179TIP3   OH273027   4.822   0.379   4.690 -0.0776 -0.0332 -0.1662
17179TIP3    H173028   4.897   0.437   4.675  0.8575 -1.1049  0.2569
17179TIP3    H273029   4.783   0.369   4.603  0.9049 -0.2997 -0.5943
17180TIP3   OH273030   6.096   5.126  16.422  0.2793 -0.1104 -0.2501
17180TIP3    H173031   6.122   5.119  16.514 -0.2918 -0.7072 -0.1274
17180TIP3    H273032   6.016   5.179  16.424 -0.8872 -1.8255 -0.1787
17181TIP3   OH273033   3.506   2.066  11.185 -0.5845  0.4542 -0.1999
17181TIP3    H173034   3.525   1.991  11.129  1.2877  0.5868  0.2004
17181TIP3    H273035   3.420   2.095  11.156 -0.8078 -1.0718 -1.2175
17182TIP3   OH273036   2.425   4.030   5.337 -0.2745 -0.1177  0.0391
17182TIP3    H173037   2.520   4.021   5.329  0.1133  1.7466  1.8268
17182TIP3    H273038   2.403   4.100   5.276 -0.1843  0.8216  1.0700
17183TIP3   OH273039   5.477   0.143   1.474 -0.2891 -0.5391  0.0957
17183TIP3    H173040   5.383   0.151   1.462 -0.4153 -1.5868  0.2578
17183TIP3    H273041   5.515   0.188   1.399 -0.9479 -0.9476 -0.4936
17184TIP3   OH273042   6.668   3.087   2.141 -0.5720 -0.2726  0.0387
17184TIP3    H173043   6.658   2.994   2.123  0.5097 -0.2512 -0.7889
17184TIP3    H273044   6.654   3.129   2.056 -0.0290  0.2348  0.1943
17185TIP3   OH273045   3.377   6.776  13.632  0.2693  0.0999  0.3587
17185TIP3    H173046   3.444   6.844  13.630 -0.2603  0.5967 -0.6886
17185TIP3    H273047   3.315   6.806  13.698  1.6269 -0.9358  2.2221
17186TIP3   OH273048   1.798   0.914   3.242  0.5671 -0.4294 -0.2433
17186TIP3    H173049   1.893   0.924   3.234  0.5015  0.5111 -0.0277
17186TIP3    H273050   1.767   0.904   3.152  0.7570  0.5113 -0.4272
17187TIP3   OH273051   3.657   6.718  13.412 -0.2711 -0.4644  0.3740
17187TIP3    H173052   3.646   6.807  13.377  1.1411  0.0960  1.2496
17187TIP3    H273053   3.573   6.675  13.395 -2.0316  1.8795  2.3735
17188TIP3   OH273054   6.692   2.764   4.966  0.2058 -0.3077  0.5292
17188TIP3    H173055   6.763   2.760   5.029  0.8826 -1.9908 -0.2943
17188TIP3    H273056   6.661   2.674   4.958 -0.3246 -0.0309 -1.0096
17189TIP3   OH273057   1.845   6.556  14.739 -0.3885  0.3049 -0.5600
17189TIP3    H173058   1.819   6.484  14.796 -1.0125  0.1416 -1.0454
17189TIP3    H273059   1.919   6.597  14.784 -0.2257 -0.4463 -0.1317
17190TIP3   OH273060   6.729   3.423  12.427  0.0063  0.8029  0.1484
17190TIP3    H173061   6.770   3.462  12.505  0.0175 -2.4431  1.9549
17190TIP3    H273062   6.637   3.446  12.435 -0.2987 -0.8305  2.1438
17191TIP3   OH273063   2.132   0.370   0.061  0.0397  0.5560  0.2003
17191TIP3    H173064   2.212   0.335   0.098  0.1277  0.5251 -0.0151
17191TIP3    H273065   2.152   0.382  -0.032 -0.1426  0.7281  0.1824
17192TIP3   OH273066   3.007   6.278   0.628  0.5565 -0.6849 -0.2771
17192TIP3    H173067   3.065   6.249   0.557  1.7449 -0.6770  0.6630
17192TIP3    H273068   2.951   6.202   0.646  0.2014 -0.6663 -1.2476
17193TIP3   OH273069   2.544   5.558  16.490  0.4747 -0.0045 -0.3194
17193TIP3    H173070   2.592   5.639  16.474  2.0200 -0.9421 -0.6255
17193TIP3    H273071   2.603   5.489  16.460 -1.4844 -1.1755 -1.6942
17194TIP3   OH273072   1.065   6.741  16.363 -0.9685 -0.1697 -0.7482
17194TIP3    H173073   1.015   6.783  16.433 -1.4442 -0.7995 -0.6921
17194TIP3    H273074   1.055   6.799  16.288  0.8184  1.3035  0.0898
17195TIP3   OH273075   1.354   6.424   3.909 -0.2776  0.2159  0.3782
17195TIP3    H173076   1.300   6.503   3.902 -2.2329 -1.2140 -2.4990
17195TIP3    H273077   1.294   6.358   3.944  0.7850 -0.4986  0.8941
17196TIP3   OH273078   4.779   6.557   1.216 -0.5085 -0.2499  0.1246
17196TIP3    H173079   4.753   6.571   1.125  0.0606  2.1222  0.2680
17196TIP3    H273080   4.875   6.564   1.215 -0.6022  1.7453  1.1437
17197TIP3   OH273081   3.662   3.885   1.715  0.1834 -0.0431 -0.0074
17197TIP3    H173082   3.669   3.948   1.787 -2.7360  0.9192 -0.4285
17197TIP3    H273083   3.617   3.933   1.646 -1.0373 -2.2263 -0.8077
17198TIP3   OH273084   5.834   3.936  10.805  0.9103 -0.4669  0.3800
17198TIP3    H173085   5.829   3.931  10.709 -0.5116  0.6601  0.3785
17198TIP3    H273086   5.818   3.846  10.834 -0.4825 -0.5028 -0.4021
17199TIP3   OH273087   2.661   3.256   3.777 -0.5235 -0.2208  0.3487
17199TIP3    H173088   2.582   3.291   3.737 -0.7937 -0.4786  0.6469
17199TIP3    H273089   2.632   3.222   3.862 -0.3971 -1.6416 -0.1409
17200TIP3   OH273090   6.665   3.098   1.120  0.2633 -0.7045 -0.8024
17200TIP3    H173091   6.726   3.036   1.082 -1.2883 -2.2558 -0.8782
17200TIP3    H273092   6.583   3.082   1.074 -0.4295  0.7319 -0.1299
17201TIP3   OH273093   5.900   0.139  14.444  0.0765 -0.1889 -0.8110
17201TIP3    H173094   5.860   0.150  14.531  0.4122  0.8815 -0.7878
17201TIP3    H273095   5.833   0.094  14.393  0.1278 -1.4787  0.1856
17202TIP3   OH273096   0.285   5.593   5.675  0.2468  0.0266  0.3447
17202TIP3    H173097   0.379   5.596   5.660  0.5246 -2.0466  1.2839
17202TIP3    H273098   0.272   5.640   5.757  0.5601 -0.1651  0.5075
17203TIP3   OH273099   3.547   3.537  16.857  0.2224  0.2142  0.3383
17203TIP3    H173100   3.508   3.461  16.899  0.5518 -1.2074 -1.7821
17203TIP3    H273101   3.482   3.566  16.793  0.2498  1.5037  0.8658
17204TIP3   OH273102   0.056   4.064  14.990 -0.8180 -0.9571 -0.2217
17204TIP3    H173103   0.032   4.057  14.898 -0.6924  1.2021 -0.4546
17204TIP3    H273104   0.014   4.145  15.020 -0.1401 -1.1668  1.3885
17205TIP3   OH273105   4.143   5.764  11.101  0.1644 -0.8246 -0.2420
17205TIP3    H173106   4.149   5.858  11.084  0.4497 -0.5606  1.1431
17205TIP3    H273107   4.125   5.759  11.195  0.6065 -2.1748 -0.2182
17206TIP3   OH273108   1.230   6.653  12.390 -0.4835  0.6719 -0.3762
17206TIP3    H173109   1.321   6.637  12.413 -0.0468  0.9160 -1.8593
17206TIP3    H273110   1.232   6.682  12.299 -1.7492  3.6404  0.4230
17207TIP3   OH273111   4.513   2.303   4.838  0.2100 -0.1404  0.5568
17207TIP3    H173112   4.421   2.320   4.818  0.2781  0.3383  0.6379
17207TIP3    H273113   4.561   2.347   4.767  0.4486  1.4290  1.6428
17208TIP3   OH273114   5.171   2.960  16.811  0.2961  0.6808 -0.0207
17208TIP3    H173115   5.119   3.040  16.813 -2.0406 -0.6253 -2.9438
17208TIP3    H273116   5.231   2.972  16.737  0.2628 -0.0998 -0.1778
17209TIP3   OH273117   2.317   5.498  11.185  0.5628  0.3612  0.3813
17209TIP3    H173118   2.369   5.564  11.232 -1.2422  2.4381 -0.3188
17209TIP3    H273119   2.252   5.550  11.137 -0.4586 -1.9428 -0.8669
17210TIP3   OH273120   4.555   0.281  16.370 -0.4515  0.0313 -0.1123
17210TIP3    H173121   4.638   0.310  16.410 -0.8289 -0.2805  0.9239
17210TIP3    H273122   4.487   0.322  16.424 -0.9842  0.7364 -1.2916
17211TIP3   OH273123   2.827   0.031   4.788  0.1855 -0.3096  0.0710
17211TIP3    H173124   2.893  -0.037   4.773 -0.6850 -1.3297  0.7006
17211TIP3    H273125   2.820   0.038   4.883 -0.4817 -0.1124  0.0165
17212TIP3   OH273126   5.942   6.047  12.866  0.0687  0.6136  0.0054
17212TIP3    H173127   5.877   5.985  12.834 -0.2141  0.7915  0.2285
17212TIP3    H273128   6.009   5.992  12.906  0.0021  0.4334 -0.1293
17213TIP3   OH273129   2.982   6.137  10.441 -0.5102 -0.0232 -0.2243
17213TIP3    H173130   3.069   6.167  10.416 -0.5402 -0.1573 -0.4883
17213TIP3    H273131   2.980   6.044  10.416 -0.8708  0.0786 -0.5830
17214TIP3   OH273132   6.434   4.334   5.027  0.1837 -0.5670  0.0481
17214TIP3    H173133   6.419   4.421   5.063  0.3831 -0.9613  1.1070
17214TIP3    H273134   6.364   4.323   4.962 -1.8159 -0.8251  2.1106
17215TIP3   OH273135   5.629   6.732  16.993  0.4986 -0.3258 -0.3963
17215TIP3    H173136   5.613   6.785  17.070  0.5039 -0.6588 -0.1625
17215TIP3    H273137   5.576   6.772  16.924  1.4433  0.7156 -0.5458
17216TIP3   OH273138   2.271   4.029   0.884 -0.2297 -0.2691  0.2529
17216TIP3    H173139   2.299   4.106   0.834  2.2871  0.1013  1.9980
17216TIP3    H273140   2.205   4.064   0.945  1.9979  1.0583  2.1235
17217TIP3   OH273141   3.789   4.975  12.229  0.0125 -0.1575  1.0866
17217TIP3    H173142   3.870   5.026  12.228  0.7533 -1.2454  2.1093
17217TIP3    H273143   3.743   5.004  12.307  0.2699 -0.7951  1.4780
17218TIP3   OH273144   0.201   0.449  13.243 -0.3645 -0.4336  0.4667
17218TIP3    H173145   0.230   0.495  13.164 -1.0325 -0.4762  0.1928
17218TIP3    H273146   0.276   0.394  13.267 -0.8244 -1.9198 -1.2717
17219TIP3   OH273147   2.030   6.577   3.020 -0.2154 -0.0930 -0.1544
17219TIP3    H173148   2.100   6.631   2.981  1.8834 -0.2674  2.9695
17219TIP3    H273149   2.008   6.622   3.102 -0.5714 -2.3405  1.0746
17220TIP3   OH273150   0.323   1.998   1.358  0.1582  0.3032 -0.1335
17220TIP3    H173151   0.393   2.062   1.373  0.6201  0.1028 -1.3226
17220TIP3    H273152   0.268   2.005   1.436  1.8723 -0.0473  1.1688
17221TIP3   OH273153   4.258   6.377   3.631  0.1610  0.1305 -0.0827
17221TIP3    H173154   4.232   6.429   3.707 -1.6077  0.1543 -0.6585
17221TIP3    H273155   4.331   6.324   3.662  1.9568  2.7593  0.5830
17222TIP3   OH273156   3.246   6.679  15.812  0.2945  0.2615  0.0958
17222TIP3    H173157   3.174   6.717  15.760  1.1375  0.2619 -1.1252
17222TIP3    H273158   3.286   6.614  15.753  1.2601  0.2248  0.7675
17223TIP3   OH273159   4.137   4.405   5.293 -0.5242 -0.0685 -0.0637
17223TIP3    H173160   4.077   4.469   5.333 -0.6427  0.4110 -0.9696
17223TIP3    H273161   4.224   4.440   5.312 -0.4666 -1.1123  1.8302
17224TIP3   OH273162   4.761   1.878   1.949  0.2748  0.3148 -0.0620
17224TIP3    H173163   4.747   1.911   1.860 -2.3710 -0.0524  0.1335
17224TIP3    H273164   4.746   1.954   2.005 -3.4692 -0.4304  0.2519
17225TIP3   OH273165   4.749   6.693  16.060 -0.4578 -0.3947  0.1954
17225TIP3    H173166   4.796   6.724  15.983 -0.2474 -2.4689 -0.5944
17225TIP3    H273167   4.705   6.613  16.031 -1.0078 -0.8211  2.0280
17226TIP3   OH273168   0.782   1.881  11.495  0.3954 -0.1224 -0.4022
17226TIP3    H173169   0.858   1.932  11.522 -0.5643  0.3939  1.4628
17226TIP3    H273170   0.762   1.913  11.407  2.6504 -0.7031 -1.2171
17227TIP3   OH273171   1.369   5.722   2.584 -0.2053  0.6356  0.5488
17227TIP3    H173172   1.419   5.705   2.664 -0.4458 -0.5951  0.4450
17227TIP3    H273173   1.332   5.638   2.560 -0.4978  1.0844 -0.6320
17228TIP3   OH273174   3.194   3.934   2.840 -0.7956 -0.0127 -0.2040
17228TIP3    H173175   3.134   3.881   2.892 -0.1010 -0.0559  0.5707
17228TIP3    H273176   3.277   3.886   2.842 -0.1467  1.0976  0.5320
17229TIP3   OH273177   0.810   1.346  15.619 -0.0846  0.1198 -0.3282
17229TIP3    H173178   0.870   1.298  15.676  1.9091  2.2451 -0.4679
17229TIP3    H273179   0.856   1.350  15.535 -1.9760 -1.0277 -1.4797
17230TIP3   OH273180   3.126   0.848  15.050  0.4958 -0.3693 -0.2502
17230TIP3    H173181   3.221   0.854  15.052  0.7069 -1.8804 -2.1555
17230TIP3    H273182   3.105   0.764  15.091 -0.1302  0.3752  1.0270
17231TIP3   OH273183   0.396   2.442  12.571 -0.4801 -0.0431  0.0537
17231TIP3    H173184   0.382   2.524  12.617  1.6102  0.2117  0.3428
17231TIP3    H273185   0.427   2.468  12.484  3.3455 -0.3276  1.1225
17232TIP3   OH273186   0.275   6.012  12.938  0.7991 -0.3980  0.2926
17232TIP3    H173187   0.340   6.054  12.995  1.8182 -0.8534 -0.4919
17232TIP3    H273188   0.232   5.948  12.994 -1.6486  2.3657  1.8754
17233TIP3   OH273189   3.227   0.241   2.059 -0.6185 -0.8972 -0.4834
17233TIP3    H173190   3.202   0.150   2.073 -0.5281 -1.0318 -1.1888
17233TIP3    H273191   3.323   0.239   2.052 -0.6357 -0.7810 -0.7484
17234TIP3   OH273192   0.987   3.168  14.307  0.4369  0.6194  0.2331
17234TIP3    H173193   0.897   3.178  14.276  0.4941  2.7878  0.6204
17234TIP3    H273194   1.034   3.244  14.272  1.8802  0.0487  0.8405
17235TIP3   OH273195   1.399   2.818   6.369  0.1127 -0.2882  0.1124
17235TIP3    H173196   1.492   2.816   6.391  0.0065  0.1091  0.6406
17235TIP3    H273197   1.372   2.908   6.390 -0.0143  0.1153 -1.6724
17236TIP3   OH273198   1.216   1.975  15.564  0.1049  0.0272 -0.2461
17236TIP3    H173199   1.274   1.928  15.624  0.0100 -0.3481 -0.4384
17236TIP3    H273200   1.275   2.019  15.502  0.1935  0.0007 -0.1808
17237TIP3   OH273201   2.494   4.509   0.800  0.1292 -0.0381  0.0749
17237TIP3    H173202   2.493   4.529   0.707 -0.9864  0.8990  0.2688
17237TIP3    H273203   2.532   4.587   0.841  0.8189 -0.5328  0.3935
17238TIP3   OH273204   4.160   0.257  14.958 -0.5026 -0.2952  0.0821
17238TIP3    H173205   4.170   0.274  14.864  1.0614  0.2354  0.3032
17238TIP3    H273206   4.227   0.313  14.999  1.4439 -3.2073  1.2286
17239TIP3   OH273207   5.758   5.463  17.152 -0.1104  0.0440  0.3247
17239TIP3    H173208   5.731   5.537  17.206 -1.7259  0.1016 -0.5176
17239TIP3    H273209   5.844   5.489  17.119  0.6322  0.2820  2.2946
17240TIP3   OH273210   5.261   2.920   3.243  0.1321  0.1562  0.2823
17240TIP3    H173211   5.261   2.966   3.327 -0.0980 -1.5985  1.2726
17240TIP3    H273212   5.314   2.976   3.186  0.3920  1.3225  1.6060
17241TIP3   OH273213   6.779   2.298   5.523  0.3032 -0.5145 -0.0743
17241TIP3    H173214   6.842   2.329   5.589 -0.1131  2.3682 -0.8948
17241TIP3    H273215   6.725   2.235   5.570  1.3573 -0.1546  1.7289
17242TIP3   OH273216   2.509   2.209  12.090 -0.1760  0.1467 -0.3159
17242TIP3    H173217   2.547   2.193  12.176  0.4504  0.0842 -0.5984
17242TIP3    H273218   2.571   2.268  12.047 -1.7996  2.4207  0.2466
17243TIP3   OH273219   5.361   3.588   2.322  0.5281 -0.3697  0.2486
17243TIP3    H173220   5.445   3.543   2.327  0.5462 -0.2681  0.9349
17243TIP3    H273221   5.383   3.680   2.335  0.2114 -0.4438  1.4489
17244TIP3   OH273222   2.539   0.496  10.970  0.0271 -0.3308  0.0941
17244TIP3    H173223   2.599   0.508  11.044  0.2003  5.4967 -0.5241
17244TIP3    H273224   2.594   0.507  10.893 -1.0521  0.2367 -0.6234
17245TIP3   OH273225   3.588   2.727   1.285 -0.4100  0.4924 -0.1461
17245TIP3    H173226   3.500   2.703   1.255  0.0004 -0.4417 -0.6859
17245TIP3    H273227   3.594   2.821   1.272 -0.0334  0.1101 -3.8301
17246TIP3   OH273228   5.492   2.501   4.977 -0.1097  0.8609 -0.5834
17246TIP3    H173229   5.407   2.543   4.967 -0.7210 -0.2323 -0.2574
17246TIP3    H273230   5.537   2.515   4.894 -1.1369  0.3526 -1.2551
17247TIP3   OH273231   3.687   4.945   2.365  0.1421 -0.2796 -0.2059
17247TIP3    H173232   3.596   4.919   2.378  0.6808 -1.5574  1.3023
17247TIP3    H273233   3.737   4.864   2.377  1.4624  0.3054 -1.4628
17248TIP3   OH273234   4.945   4.369   1.579  0.2021 -0.0882 -0.4943
17248TIP3    H173235   4.920   4.369   1.671 -2.4472 -0.5074 -1.1323
17248TIP3    H273236   4.927   4.459   1.549 -0.1215 -0.2727 -0.8669
17249TIP3   OH273237   4.560   2.298  13.979 -0.2486  0.3355 -0.2408
17249TIP3    H173238   4.466   2.287  13.986  0.0692 -4.5238 -0.1964
17249TIP3    H273239   4.578   2.293  13.885 -0.0046  1.8581 -0.3025
17250TIP3   OH273240   4.171   2.065  10.918 -0.1207 -0.4909 -0.1494
17250TIP3    H173241   4.192   2.022  11.001  0.9235 -0.1095 -0.1992
17250TIP3    H273242   4.204   2.006  10.851 -0.3890 -0.4944 -0.2807
17251TIP3   OH273243   2.326   1.615   4.009  0.3152  0.0991  0.3312
17251TIP3    H173244   2.336   1.520   4.011 -1.1748 -0.1099 -0.7794
17251TIP3    H273245   2.285   1.637   4.092  1.3955 -0.1176  0.9347
17252TIP3   OH273246   4.489   1.733   0.811 -0.6604 -0.1129  0.0503
17252TIP3    H173247   4.427   1.806   0.803 -0.0319  0.3350 -0.8170
17252TIP3    H273248   4.505   1.726   0.905 -1.7440 -0.0023  0.2594
17253TIP3   OH273249   6.084   0.517   1.404  0.0417  0.4759 -0.4172
17253TIP3    H173250   6.092   0.560   1.319  2.5358  1.4364  0.2007
17253TIP3    H273251   6.126   0.432   1.392 -0.2644  0.3076 -0.3132
17254TIP3   OH273252   2.006   1.903  14.972 -0.1288  0.0702 -0.3699
17254TIP3    H173253   2.046   1.841  14.912  1.7817  0.6905  0.2053
17254TIP3    H273254   1.930   1.937  14.924  1.4274  0.6757 -2.5428
17255TIP3   OH273255   0.119   1.900   3.217  0.2347  0.2198 -0.0638
17255TIP3    H173256   0.146   1.818   3.175 -1.6234  0.0503 -1.0472
17255TIP3    H273257   0.048   1.873   3.276  0.4641  0.9567  0.5555
17256TIP3   OH273258   6.301   1.353   3.936 -0.3969  0.0488  0.2414
17256TIP3    H173259   6.322   1.383   4.025 -1.4774  0.8976  0.2472
17256TIP3    H273260   6.279   1.434   3.889 -1.0965 -0.5133 -0.4256
17257TIP3   OH273261   0.927   2.527   4.398  0.3603 -0.2355 -0.3696
17257TIP3    H173262   0.869   2.485   4.461 -0.1004 -1.0589 -1.3149
17257TIP3    H273263   1.014   2.521   4.438  0.0019 -0.2586  0.4210
17258TIP3   OH273264   0.603   2.703  16.021  0.1608  0.4744  0.2201
17258TIP3    H173265   0.585   2.797  16.020  0.0358  0.4526  0.5733
17258TIP3    H273266   0.544   2.668  16.087  0.8991  0.2798  0.7915
17259TIP3   OH273267   5.060   5.278   4.938  0.1275 -0.4547  0.1927
17259TIP3    H173268   5.053   5.215   5.010  0.4394 -0.7238 -0.0086
17259TIP3    H273269   5.028   5.360   4.974  0.4857 -0.5360  0.6973
17260TIP3   OH273270   2.363   5.448  15.370  0.3019 -0.1454  0.3018
17260TIP3    H173271   2.271   5.432  15.392  0.0064  1.2671  0.1653
17260TIP3    H273272   2.411   5.418  15.447 -0.5108  2.0062  1.7303
17261TIP3   OH273273   5.499   6.228  13.446 -0.4062  0.3673  0.0164
17261TIP3    H173274   5.486   6.243  13.540 -1.5627  0.1029 -0.0801
17261TIP3    H273275   5.518   6.315  13.411 -0.9617  0.6399  0.3593
17262TIP3   OH273276   6.800   5.216  15.770 -0.0260 -0.3443 -0.8517
17262TIP3    H173277   6.807   5.283  15.701 -0.6262  0.3933 -0.2190
17262TIP3    H273278   6.798   5.133  15.722  1.2319  0.0340 -1.6300
17263TIP3   OH273279   0.860   6.581   0.208  0.0386  0.2720 -0.1903
17263TIP3    H173280   0.775   6.583   0.252 -1.3765 -1.1146 -2.6322
17263TIP3    H273281   0.871   6.669   0.173  0.3325  0.8680  1.3492
17264TIP3   OH273282   0.434   2.619  10.933 -0.4284  0.0463 -0.0861
17264TIP3    H173283   0.438   2.602  10.839  1.3013 -1.0943  0.1486
17264TIP3    H273284   0.507   2.679  10.950 -1.5301  1.3113  0.3595
17265TIP3   OH273285   3.718   5.505  12.790  0.1256 -0.2236 -0.0117
17265TIP3    H173286   3.786   5.551  12.740  0.6253 -0.2859  0.5966
17265TIP3    H273287   3.699   5.563  12.864 -0.3567 -0.2926 -0.0757
17266TIP3   OH273288   6.160   6.214   1.795 -0.3367 -0.3386 -1.2304
17266TIP3    H173289   6.229   6.256   1.745  0.0294  1.2647  0.4936
17266TIP3    H273290   6.206   6.168   1.866 -0.9270 -0.9711 -1.2478
17267TIP3   OH273291   2.058   2.322  11.754  0.6513  0.1401 -0.1163
17267TIP3    H173292   2.017   2.402  11.787  0.0985  0.3939 -1.3861
17267TIP3    H273293   2.148   2.325  11.788  0.4460  0.9765  0.3693
17268TIP3   OH273294   0.893   2.848  10.643 -0.4118  0.0373 -0.5540
17268TIP3    H173295   0.826   2.795  10.601  0.1828 -0.8493 -0.4263
17268TIP3    H273296   0.975   2.818  10.604 -0.0804  1.0848 -0.6941
17269TIP3   OH273297   6.204   5.912  14.253 -0.3640  0.0005 -0.1360
17269TIP3    H173298   6.120   5.868  14.237 -0.2938  0.3414 -1.6250
17269TIP3    H273299   6.265   5.869  14.193  0.4248  0.0562  0.6234
17270TIP3   OH273300   2.505   4.499  14.624 -0.0617  0.3607  0.0655
17270TIP3    H173301   2.424   4.498  14.573 -0.2971 -0.3629  0.4339
17270TIP3    H273302   2.481   4.544  14.705  0.7413  3.0708 -1.0869
17271TIP3   OH273303   4.143   0.037  12.770  0.2828 -0.4597 -0.2700
17271TIP3    H173304   4.060   0.051  12.816  0.0023  0.4397 -1.0075
17271TIP3    H273305   4.195  -0.017  12.830 -0.0664  0.6569  1.0933
17272TIP3   OH273306   0.728   3.895  12.298 -0.2727  0.0478 -0.2826
17272TIP3    H173307   0.650   3.951  12.297  0.1890  0.6877 -1.1023
17272TIP3    H273308   0.785   3.935  12.363 -0.7013 -0.5558  0.4920
17273TIP3   OH273309   1.912   2.518  12.651 -0.4649  0.9181  0.4326
17273TIP3    H173310   1.841   2.457  12.629 -1.8824  1.6499  2.7112
17273TIP3    H273311   1.988   2.462  12.666 -0.8833  0.0098 -0.6910
17274TIP3   OH273312   2.338   2.602   5.337  0.2105 -0.0134  0.0651
17274TIP3    H173313   2.426   2.566   5.349 -0.7054 -3.2944 -1.7553
17274TIP3    H273314   2.292   2.577   5.417  0.5039  0.3006  0.3377
17275TIP3   OH273315   1.936   2.517   5.238  0.7091  0.2191  0.7840
17275TIP3    H173316   1.853   2.527   5.285  0.2306  0.1305 -0.0230
17275TIP3    H273317   1.975   2.438   5.274  0.6025  0.4463  1.4062
17276TIP3   OH273318   2.595   1.647   3.384 -0.3244  0.4629 -0.0779
17276TIP3    H173319   2.499   1.645   3.385 -0.4025 -1.9918 -2.2149
17276TIP3    H273320   2.617   1.728   3.337 -1.2674  1.2920  0.8385
17277TIP3   OH273321   2.088   2.081   4.457 -0.1804  0.1674 -0.1818
17277TIP3    H173322   1.997   2.111   4.459  0.0503  0.9973 -1.3316
17277TIP3    H273323   2.110   2.076   4.364  1.0430  0.2537  0.0848
17278TIP3   OH273324   4.096   2.609   2.375  0.5319  0.0924  0.5468
17278TIP3    H173325   4.128   2.645   2.293 -1.6428  0.7288 -0.0739
17278TIP3    H273326   4.027   2.669   2.403 -3.8634 -3.7388 -0.9173
17279TIP3   OH273327   4.136   2.023   5.827 -0.3486 -0.4208 -0.1044
17279TIP3    H173328   4.127   1.958   5.757  0.1271 -1.1537  0.4958
17279TIP3    H273329   4.212   1.993   5.877 -1.4724 -0.6495  1.5133
17280TIP3   OH273330   2.513   4.325  16.629 -0.7829 -0.3489  0.5814
17280TIP3    H173331   2.519   4.407  16.678  3.0504 -0.6595  0.9037
17280TIP3    H273332   2.509   4.257  16.697 -1.5842 -0.5541  0.3401
17281TIP3   OH273333   2.168   5.932  11.775  0.4849  0.1644  0.5400
17281TIP3    H173334   2.211   5.863  11.826 -0.2097  1.6104  3.2629
17281TIP3    H273335   2.240   5.977  11.731  1.2365 -0.4913  1.0654
17282TIP3   OH273336   4.357   0.082   1.724  0.2512  0.2017  0.7409
17282TIP3    H173337   4.290   0.134   1.681  0.5405  0.0619  0.1044
17282TIP3    H273338   4.341   0.094   1.817  0.4819  1.6524  0.6095
17283TIP3   OH273339   5.230   6.772  14.629  0.1491 -0.0615  0.0670
17283TIP3    H173340   5.317   6.732  14.630  0.5825  0.7485 -1.6400
17283TIP3    H273341   5.240   6.853  14.679 -0.6877 -1.8249  3.3795
17284TIP3   OH273342   5.715   6.516   3.073 -0.5001 -0.5248  0.2192
17284TIP3    H173343   5.778   6.576   3.031 -1.1186  0.1743  0.2569
17284TIP3    H273344   5.646   6.574   3.105 -0.9474 -1.2422  0.5616
17285TIP3   OH273345   4.317   6.635   2.251 -0.0961  1.0194 -0.5230
17285TIP3    H173346   4.235   6.637   2.301 -0.1177 -0.2767 -0.4796
17285TIP3    H273347   4.385   6.633   2.317 -0.1604 -3.9420 -0.3010
17286TIP3   OH273348   0.860   2.300  13.610 -0.9118  0.1917  0.1512
17286TIP3    H173349   0.930   2.317  13.673  0.0068  0.4894 -0.9146
17286TIP3    H273350   0.904   2.258  13.537 -1.8589  0.3537 -0.5261
17287TIP3   OH273351   4.400   0.600  15.622  0.0797  0.0370  0.7477
17287TIP3    H173352   4.441   0.626  15.705  2.5577  0.6036 -0.5369
17287TIP3    H273353   4.447   0.521  15.597 -2.4517 -1.6587  1.0812
17288TIP3   OH273354   2.549   0.594  11.668  0.1098 -0.3464 -0.2047
17288TIP3    H173355   2.553   0.500  11.653  2.0995 -0.3084 -0.1491
17288TIP3    H273356   2.481   0.624  11.608 -1.4685 -1.9511  0.6956
17289TIP3   OH273357   5.540   4.833  14.536 -0.0354 -0.8623  0.0133
17289TIP3    H173358   5.549   4.771  14.463 -2.4055  0.0436 -1.1391
17289TIP3    H273359   5.606   4.900  14.518 -0.3207 -0.8552 -1.1297
17290TIP3   OH273360   5.622   0.797   1.104 -0.2636 -0.1132 -0.2246
17290TIP3    H173361   5.644   0.890   1.104 -0.2527 -0.0817  1.3313
17290TIP3    H273362   5.526   0.796   1.094 -0.3609  0.1224  0.5821
17291TIP3   OH273363   1.852   0.612  11.105  0.3616 -0.2672 -0.3448
17291TIP3    H173364   1.843   0.662  11.024  4.0057  0.9454 -0.2141
17291TIP3    H273365   1.881   0.525  11.077 -1.2697 -0.8071 -0.4065
17292TIP3   OH273366   1.959   0.550   6.118 -0.3664 -0.1367 -0.6901
17292TIP3    H173367   1.912   0.470   6.095 -0.1862 -0.2202 -0.7725
17292TIP3    H273368   1.896   0.620   6.105 -0.7995 -0.3399  0.2115
17293TIP3   OH273369   6.401   6.478   3.776  0.9002  0.2506  0.5320
17293TIP3    H173370   6.478   6.430   3.807  1.9362  0.6045 -1.3588
17293TIP3    H273371   6.436   6.564   3.750 -0.1834  0.5194 -0.0784
17294TIP3   OH273372   3.500   3.360  14.150 -0.7054 -0.4186 -0.5095
17294TIP3    H173373   3.499   3.445  14.192  0.9504 -0.0615 -1.1268
17294TIP3    H273374   3.408   3.340  14.133 -1.0830  1.5676 -0.9831
17295TIP3   OH273375   5.912   1.691  15.584 -0.2986  0.0361 -0.0106
17295TIP3    H173376   5.826   1.731  15.569 -0.7071 -0.1603  1.5416
17295TIP3    H273377   5.899   1.636  15.662  0.9745 -0.8469 -0.3866
17296TIP3   OH273378   2.075   5.437  16.854 -0.5475 -0.4729  0.4423
17296TIP3    H173379   2.105   5.523  16.884 -1.4836  1.0593 -2.6075
17296TIP3    H273380   1.980   5.446  16.848 -0.5835 -1.4308 -0.6724
17297TIP3   OH273381   0.563   6.280  13.614 -0.1021 -0.1197 -0.0459
17297TIP3    H173382   0.473   6.261  13.589 -0.7536  0.5954  1.6533
17297TIP3    H273383   0.574   6.239  13.699  1.6624 -1.4012 -0.8339
17298TIP3   OH273384   1.351   0.787   2.529 -0.1217  0.8148  0.3143
17298TIP3    H173385   1.298   0.730   2.585 -2.0276  0.8737 -1.3029
17298TIP3    H273386   1.322   0.766   2.440  2.5888  0.9337 -0.6723
17299TIP3   OH273387   3.110   3.250   4.193 -0.4048  0.3408  0.2220
17299TIP3    H173388   3.039   3.194   4.160 -1.0621  0.1142  1.8836
17299TIP3    H273389   3.159   3.276   4.115 -0.6946 -1.7070 -0.7148
17300TIP3   OH273390   5.708   1.502  13.781 -0.1994  0.1882  0.1721
17300TIP3    H173391   5.669   1.470  13.862  1.1750 -1.1006  0.3794
17300TIP3    H273392   5.637   1.497  13.716 -1.4704  1.7723  1.3652
17301TIP3   OH273393   5.776   5.146  13.744  0.5947  0.1741 -0.0151
17301TIP3    H173394   5.768   5.237  13.773 -1.1891  0.5241 -1.4439
17301TIP3    H273395   5.713   5.138  13.672 -0.5269 -2.6426  1.1542
17302TIP3   OH273396   3.391   3.561  13.571 -0.4490 -0.3501  0.4199
17302TIP3    H173397   3.403   3.578  13.664 -0.0471 -0.2920  0.3567
17302TIP3    H273398   3.417   3.641  13.527  2.9362 -1.5257  0.0233
17303TIP3   OH273399   2.142   3.217   2.948  0.1119 -0.4883  0.3790
17303TIP3    H173400   2.139   3.232   2.853  0.9781  0.0013  0.4211
17303TIP3    H273401   2.102   3.294   2.986 -2.5434 -1.7466  0.3704
17304TIP3   OH273402   6.629   0.144  13.474  0.1577  0.5363  0.9822
17304TIP3    H173403   6.586   0.168  13.392  1.1562 -1.0237 -0.0447
17304TIP3    H273404   6.600   0.211  13.536  3.0778  4.7438 -1.6903
17305TIP3   OH273405   5.089   1.140   6.635  0.3855 -0.1230  0.5953
17305TIP3    H173406   5.184   1.132   6.636  0.8216  1.1983 -4.2908
17305TIP3    H273407   5.071   1.223   6.682  1.8346  0.5138  0.0615
17306TIP3   OH273408   2.707   1.598  10.628  0.5884  0.4470  0.5590
17306TIP3    H173409   2.723   1.685  10.665 -1.3997  0.9677  0.3064
17306TIP3    H273410   2.625   1.569  10.668  0.4245 -0.6607 -0.5000
17307TIP3   OH273411   5.492   0.416  14.246 -0.0948 -0.3592  0.1617
17307TIP3    H173412   5.543   0.363  14.308 -0.0364  1.0185  1.3489
17307TIP3    H273413   5.415   0.443  14.295 -0.5505 -0.0486 -0.7024
17308TIP3   OH273414   3.132   3.933   2.091 -0.3055  0.4589  0.2637
17308TIP3    H173415   3.087   3.929   2.007  2.7141  1.7428 -1.5688
17308TIP3    H273416   3.149   3.841   2.113 -0.1684  0.1437 -1.1010
17309TIP3   OH273417   2.373   5.550   4.187  0.4038  0.3017  0.4204
17309TIP3    H173418   2.331   5.630   4.216  0.1996  1.2256 -2.1326
17309TIP3    H273419   2.458   5.578   4.152 -0.9395  0.1370 -3.5850
17310TIP3   OH273420   1.294   2.513  15.753 -0.3976 -0.2588 -0.0116
17310TIP3    H173421   1.203   2.520  15.723  0.0980  2.6405 -1.1982
17310TIP3    H273422   1.300   2.425  15.790 -2.7292 -1.8987 -3.0324
17311TIP3   OH273423   6.595   6.143  15.102 -0.4118  0.2832 -0.2756
17311TIP3    H173424   6.578   6.112  15.190  0.2882  1.6469  0.3698
17311TIP3    H273425   6.689   6.128  15.089 -0.4832  0.2148 -0.7507
17312TIP3   OH273426   3.459   1.561  16.205  0.1575 -0.1109  0.2012
17312TIP3    H173427   3.398   1.600  16.143  0.2632  1.1471  0.8494
17312TIP3    H273428   3.404   1.532  16.278  0.1763 -0.3395  0.1257
17313TIP3   OH273429   3.289   4.466   0.739 -0.1601  0.5179 -0.4362
17313TIP3    H173430   3.211   4.411   0.749 -0.0380  0.4918  0.4158
17313TIP3    H273431   3.305   4.467   0.645 -0.8085 -0.0095 -0.5617
17314TIP3   OH273432   1.366   3.782  15.908 -0.4198  0.0282 -0.9182
17314TIP3    H173433   1.381   3.734  15.989 -2.1376 -0.9425 -1.1319
17314TIP3    H273434   1.296   3.844  15.929  0.0217  0.6752 -1.3224
17315TIP3   OH273435   4.964   3.357   4.121 -0.1599 -0.3421  0.4510
17315TIP3    H173436   5.008   3.326   4.200  1.4065  2.2822  0.7151
17315TIP3    H273437   4.877   3.383   4.152 -0.9571 -2.8144  0.4984
17316TIP3   OH273438   0.315   1.846   6.565  0.1604  0.0945 -0.3261
17316TIP3    H173439   0.340   1.825   6.655 -1.5076  0.5595  0.2920
17316TIP3    H273440   0.361   1.782   6.512  1.1500 -0.2247  0.8525
17317TIP3   OH273441   1.233   5.105  14.426 -0.4261  0.6105 -0.5603
17317TIP3    H173442   1.146   5.118  14.464 -0.0281  0.8219  0.3114
17317TIP3    H273443   1.287   5.076  14.500  0.5190  1.6685 -0.8104
17318TIP3   OH273444   3.011   2.322  16.614 -0.2090 -1.2816  0.3018
17318TIP3    H173445   3.097   2.364  16.623 -1.7917  2.3922  0.2555
17318TIP3    H273446   3.015   2.246  16.671  2.6358 -0.4573  1.3782
17319TIP3   OH273447   6.411   1.697   0.451  0.2901 -0.3725  0.3544
17319TIP3    H173448   6.507   1.704   0.449  0.3617 -1.4780 -1.4080
17319TIP3    H273449   6.394   1.625   0.512  0.9078 -3.5826 -2.9468
17320TIP3   OH273450   0.471   5.903  11.421  0.2923  0.1746  0.7593
17320TIP3    H173451   0.406   5.940  11.362 -1.5970 -1.2719  1.8081
17320TIP3    H273452   0.553   5.905  11.372 -0.6291  1.5771 -0.8126
17321TIP3   OH273453   2.281   1.661  15.577 -0.5908 -0.1147  0.0870
17321TIP3    H173454   2.277   1.757  15.574  1.9029  0.1620 -4.6353
17321TIP3    H273455   2.235   1.634  15.497  1.2526 -2.5776 -0.2416
17322TIP3   OH273456   0.914   6.033  13.325  0.3424  0.1369  0.2506
17322TIP3    H173457   0.890   6.005  13.414 -0.9155  0.4949  0.0375
17322TIP3    H273458   0.834   6.072  13.290  1.3993  1.9312 -0.2865
17323TIP3   OH273459   3.737   6.721   4.963  0.3421 -0.5470  0.1789
17323TIP3    H173460   3.818   6.675   4.987 -0.6874 -2.9011 -0.5799
17323TIP3    H273461   3.756   6.758   4.876  1.5326  1.4668  1.2409
17324TIP3   OH273462   5.962   6.648  10.999 -0.2836 -0.0600 -0.3253
17324TIP3    H173463   5.946   6.739  10.975  0.7600  0.2989  0.2945
17324TIP3    H273464   5.874   6.609  11.004 -0.6949  0.6788 -1.4171
17325TIP3   OH273465   6.392   5.748   5.381 -0.9014 -0.4268  0.3714
17325TIP3    H173466   6.474   5.748   5.430 -0.5451  1.2423 -0.1667
17325TIP3    H273467   6.417   5.772   5.291 -1.6566 -2.5474 -0.4532
17326TIP3   OH273468   1.257   0.656  16.459 -0.2815 -0.4998  0.0668
17326TIP3    H173469   1.229   0.567  16.436 -1.2008 -0.0604 -0.5730
17326TIP3    H273470   1.353   0.649  16.468 -0.1308 -1.2081 -1.6265
17327TIP3   OH273471   4.139   4.600   3.713 -0.2533 -0.3483  0.5448
17327TIP3    H173472   4.184   4.601   3.629 -0.3860  0.9314  0.4731
17327TIP3    H273473   4.098   4.686   3.720 -0.0014 -0.3096  2.0340
17328TIP3   OH273474   5.439   6.209   5.996  0.0726  0.1955 -0.5001
17328TIP3    H173475   5.467   6.288   6.043  1.8979  0.6381 -2.2191
17328TIP3    H273476   5.345   6.202   6.015 -0.1112  2.6665 -0.1455
17329TIP3   OH273477   0.204   0.206   5.179  0.7287  0.0854 -0.0299
17329TIP3    H173478   0.256   0.168   5.250 -2.1524  0.7619  2.6451
17329TIP3    H273479   0.214   0.145   5.106  0.9258 -2.6825  2.1573
17330TIP3   OH273480   4.988   1.017  11.514 -0.8539  0.0534  0.4036
17330TIP3    H173481   5.047   1.090  11.493  0.0061 -1.1243 -1.5398
17330TIP3    H273482   5.031   0.971  11.586 -0.6749  0.6411  0.6748
17331TIP3   OH273483   1.903   6.287  13.985  0.1904 -0.0694 -0.2415
17331TIP3    H173484   1.825   6.288  14.041  0.0553  0.4603 -0.4360
17331TIP3    H273485   1.921   6.379  13.968 -0.2899 -0.2435 -1.7843
17332TIP3   OH273486   6.069   6.159  15.018 -0.0556 -0.0191 -0.2832
17332TIP3    H173487   6.097   6.210  15.094 -0.2460 -2.3071  1.4214
17332TIP3    H273488   6.000   6.102  15.051 -0.1051 -1.1246 -2.1522
17333TIP3   OH273489   5.480   2.167  10.512 -0.1938  0.1537 -0.5875
17333TIP3    H173490   5.394   2.151  10.474 -0.4305  0.3609 -0.1430
17333TIP3    H273491   5.527   2.084  10.500  0.2129  0.6108 -2.5171
17334TIP3   OH273492   2.547   6.748   5.244 -0.7125  0.0425 -0.0566
17334TIP3    H173493   2.596   6.711   5.170  1.2169  0.2435  1.0418
17334TIP3    H273494   2.562   6.686   5.316  0.7852  1.7734  1.2203
17335TIP3   OH273495   6.324   6.384   6.199 -1.1313 -0.0384 -0.0808
17335TIP3    H173496   6.372   6.304   6.179 -1.8294 -0.9665  1.7289
17335TIP3    H273497   6.271   6.362   6.275 -0.4610  2.4754  1.2420
17336TIP3   OH273498   1.277   0.254  13.905  0.3036 -0.8509 -0.2701
17336TIP3    H173499   1.366   0.234  13.876  0.1891 -0.3171 -1.0091
17336TIP3    H273500   1.273   0.349  13.907  0.6161 -0.7936  2.5337
17337TIP3   OH273501   1.337   5.302  13.703 -0.1203  0.2790  0.5627
17337TIP3    H173502   1.275   5.260  13.763  0.0525  0.2694  0.7354
17337TIP3    H273503   1.315   5.266  13.617 -0.6207  0.5837  0.5596
17338TIP3   OH273504   4.259   1.248  13.182  0.3995  0.5002 -0.4530
17338TIP3    H173505   4.346   1.236  13.221  0.5742  0.6430 -0.7922
17338TIP3    H273506   4.239   1.164  13.141  0.9114  0.8229 -1.4177
17339TIP3   OH273507   3.532   0.902  10.636  0.0652  0.2270  0.0341
17339TIP3    H173508   3.574   0.969  10.691 -0.9532  1.9332 -1.1799
17339TIP3    H273509   3.462   0.949  10.590 -3.1410 -2.3956  1.7972
17340TIP3   OH273510   2.293   2.063   2.404 -0.4983  0.1647 -0.1128
17340TIP3    H173511   2.367   2.123   2.414 -1.1946  1.4686 -2.1351
17340TIP3    H273512   2.299   2.005   2.480  2.2534  0.5611  0.0849
17341TIP3   OH273513   2.469   5.387   4.904  0.0753  0.6696 -0.3162
17341TIP3    H173514   2.516   5.470   4.897  0.3114  0.5158 -0.5466
17341TIP3    H273515   2.379   5.408   4.880  0.0658  0.9263 -0.0577
17342TIP3   OH273516   1.844   1.090  16.017  0.0436 -0.2715 -0.0450
17342TIP3    H173517   1.891   1.167  15.984  0.1754 -0.6365 -0.7341
17342TIP3    H273518   1.798   1.121  16.094  0.5275  0.3707 -0.0038
17343TIP3   OH273519   2.867   4.062  13.683  0.2302  0.5393  0.1390
17343TIP3    H173520   2.779   4.065  13.645 -0.6294 -0.8141  1.8342
17343TIP3    H273521   2.881   3.969  13.703  1.1246  0.9948  1.8838
17344TIP3   OH273522   0.799   6.470   2.994 -0.4038 -0.1587 -0.0769
17344TIP3    H173523   0.819   6.448   2.903  1.5833 -0.3215  0.3628
17344TIP3    H273524   0.821   6.563   3.001 -1.2957  0.0501  0.0575
17345TIP3   OH273525   3.020   1.080  15.302  0.0626  0.1783  0.7734
17345TIP3    H173526   3.062   1.011  15.353 -0.7438 -0.2220  0.9107
17345TIP3    H273527   2.938   1.042  15.272  0.1782  0.6597 -0.2116
17346TIP3   OH273528   5.929   2.113  14.576 -0.5250 -0.3269 -0.5061
17346TIP3    H173529   5.999   2.176  14.588  0.2297 -1.4715  1.6527
17346TIP3    H273530   5.857   2.147  14.629 -0.3734 -0.8636  0.0596
17347TIP3   OH273531   2.053   3.801   1.300  0.4072 -0.5090 -0.0290
17347TIP3    H173532   2.015   3.813   1.387  1.0301  0.7681  0.0933
17347TIP3    H273533   1.978   3.801   1.241  0.0845  0.3711  0.3585
17348TIP3   OH273534   1.797   1.119   1.590 -0.1759  0.1252 -0.2277
17348TIP3    H173535   1.838   1.098   1.675 -0.4209 -1.7191 -0.5151
17348TIP3    H273536   1.710   1.081   1.596 -0.3848  0.4368 -1.1310
17349TIP3   OH273537   4.700   5.689  11.820  0.4784 -0.2197 -0.2583
17349TIP3    H173538   4.773   5.639  11.783  1.2813 -1.1515  2.3090
17349TIP3    H273539   4.630   5.626  11.831  0.1987  0.0726 -0.3589
17350TIP3   OH273540   0.784   1.698  10.930  0.5918  0.0599 -0.1823
17350TIP3    H173541   0.864   1.718  10.882  1.2299 -1.7779  0.0369
17350TIP3    H273542   0.731   1.647  10.869  0.6182 -0.7327  0.4403
17351TIP3   OH273543   0.955   5.766  12.396 -0.0570 -0.3497 -0.5598
17351TIP3    H173544   0.997   5.847  12.367 -0.3357  0.0196  0.0444
17351TIP3    H273545   1.028   5.706  12.413  0.1369 -0.3397 -1.3258
17352TIP3   OH273546   2.780   6.757   3.702 -0.0174 -0.1407 -0.3625
17352TIP3    H173547   2.742   6.671   3.684  0.4453 -0.0319 -2.0352
17352TIP3    H273548   2.724   6.818   3.655  0.0777  0.3919  0.2148
17353TIP3   OH273549   0.877   2.583  11.838  0.1676 -0.2458  0.1060
17353TIP3    H173550   0.819   2.611  11.767 -1.5457 -0.3325  1.4295
17353TIP3    H273551   0.932   2.516  11.797  0.1037  0.5992 -1.4645
17354TIP3   OH273552   5.941   6.044   1.724 -0.1643 -0.5241  0.4756
17354TIP3    H173553   6.018   6.089   1.761 -0.4246  0.0920  0.2757
17354TIP3    H273554   5.977   5.963   1.688  0.2540 -0.6631  1.1790
17355TIP3   OH273555   4.920   5.662  10.675  0.3548 -0.0592  0.1360
17355TIP3    H173556   4.840   5.623  10.709 -0.6225  0.0264 -1.9135
17355TIP3    H273557   4.905   5.756  10.680  1.1667  0.0217  1.5621
17356TIP3   OH273558   4.644   1.114  13.179 -0.5920 -0.3689 -0.6451
17356TIP3    H173559   4.706   1.043  13.194 -0.4643 -0.1621 -0.2078
17356TIP3    H273560   4.643   1.124  13.083 -0.4345 -0.7984 -0.6956
17357TIP3   OH273561   0.432   4.246   5.073  0.2191  0.0515 -0.6618
17357TIP3    H173562   0.460   4.214   5.159  0.1476 -1.5006 -1.1895
17357TIP3    H273563   0.514   4.272   5.031  0.1747  1.6438  0.1653
17358TIP3   OH273564   2.543   2.687   5.752 -0.3839 -0.0571  0.1452
17358TIP3    H173565   2.509   2.766   5.795 -0.1675  0.6986 -1.0156
17358TIP3    H273566   2.548   2.711   5.660  0.7988 -1.0489 -0.0660
17359TIP3   OH273567   3.380   5.724  14.365  0.0269  0.2251  0.6376
17359TIP3    H173568   3.381   5.819  14.357  0.1647  0.2150  0.5336
17359TIP3    H273569   3.445   5.705  14.432  0.0443  0.1999  0.6138
17360TIP3   OH273570   1.762   2.182  12.036  0.3578  0.2816 -0.2344
17360TIP3    H173571   1.783   2.187  11.943 -0.6753 -1.0017 -0.5707
17360TIP3    H273572   1.844   2.156  12.078  0.8043  0.7646 -0.8005
17361TIP3   OH273573   5.983   0.703   3.268 -0.0859  0.1198 -0.2316
17361TIP3    H173574   5.945   0.744   3.347  0.8734 -1.3659  1.0542
17361TIP3    H273575   5.915   0.714   3.201 -2.0527 -0.8570  1.4933
17362TIP3   OH273576   1.661   2.128  15.249  0.3932 -0.3306 -0.5281
17362TIP3    H173577   1.605   2.154  15.176  0.5149 -0.9522 -0.8457
17362TIP3    H273578   1.730   2.193  15.251  0.2709 -0.1913 -0.8327
17363TIP3   OH273579   0.761   4.300  15.182  0.4297  0.1119 -0.1068
17363TIP3    H173580   0.790   4.381  15.139  1.5494  0.5076  1.3177
17363TIP3    H273581   0.674   4.321  15.216  0.3368  0.4168 -0.5218
17364TIP3   OH273582   0.724   1.055  14.018 -0.7693  0.0021 -0.4548
17364TIP3    H173583   0.765   0.971  13.997 -0.1373  0.1159  0.2473
17364TIP3    H273584   0.752   1.114  13.949 -0.5315 -0.1652 -0.5020
17365TIP3   OH273585   3.350   3.416   2.046  0.1306  0.2592 -0.0781
17365TIP3    H173586   3.296   3.409   1.967 -0.2643 -1.4123  0.3065
17365TIP3    H273587   3.426   3.362   2.027  0.1937  0.1275  0.5567
17366TIP3   OH273588   0.567   2.430   0.989 -0.3818 -0.9902 -0.0154
17366TIP3    H173589   0.532   2.475   0.912 -0.0392 -1.6185 -0.5552
17366TIP3    H273590   0.660   2.449   0.988 -0.3050 -1.3630 -0.0060
17367TIP3   OH273591   4.276   6.254   6.440  0.1188  0.3889  0.0905
17367TIP3    H173592   4.301   6.212   6.522  0.8070 -0.8033 -0.6962
17367TIP3    H273593   4.243   6.340   6.466 -1.0611 -0.5034  1.7447
17368TIP3   OH273594   5.830   5.782  17.084 -0.0359  0.0634 -0.1655
17368TIP3    H173595   5.832   5.875  17.104 -2.0132 -0.2942  2.2814
17368TIP3    H273596   5.847   5.777  16.990  2.6036  2.6318  0.0531
17369TIP3   OH273597   3.197   3.406   5.954 -0.0987  0.4288  0.2286
17369TIP3    H173598   3.162   3.468   5.889 -0.3184  2.2416  1.9893
17369TIP3    H273599   3.156   3.323   5.931 -1.2978  1.3199 -1.0750
17370TIP3   OH273600   0.353   2.141  15.652  0.1590  0.2803 -0.2438
17370TIP3    H173601   0.415   2.212  15.671  0.7972 -0.0551 -1.0045
17370TIP3    H273602   0.273   2.186  15.626  0.5481  0.7303 -0.6866
17371TIP3   OH273603   4.512   1.091   1.580  0.1102 -0.4336 -0.0389
17371TIP3    H173604   4.536   1.006   1.616  3.0024  0.7097  1.0300
17371TIP3    H273605   4.454   1.071   1.507  0.3319 -3.2583  0.4457
17372TIP3   OH273606   0.906   2.494  14.907  0.0913 -0.0734 -0.1552
17372TIP3    H173607   0.926   2.576  14.862  1.2795  0.1504  0.7256
17372TIP3    H273608   0.978   2.482  14.969 -0.2316 -1.6160 -0.0209
17373TIP3   OH273609   4.731   4.319   5.127  0.4959 -0.1241 -0.9304
17373TIP3    H173610   4.725   4.387   5.060 -0.8268 -1.4724 -2.2867
17373TIP3    H273611   4.811   4.339   5.175 -0.5745  3.1682 -0.3204
17374TIP3   OH273612   4.370   2.504  12.503  0.0893  0.4474 -0.2110
17374TIP3    H173613   4.342   2.504  12.594 -0.6146 -0.0563 -0.4217
17374TIP3    H273614   4.308   2.447  12.458 -0.6943  2.1209 -1.3625
17375TIP3   OH273615   3.678   0.856  11.245  0.3500  0.6704  0.7966
17375TIP3    H173616   3.614   0.927  11.250 -0.2654  0.2623 -0.6646
17375TIP3    H273617   3.700   0.850  11.152 -0.6725 -1.9046  0.6167
17376TIP3   OH273618   2.631   4.620  16.508 -0.0223  0.4561  0.3080
17376TIP3    H173619   2.706   4.668  16.544  0.2306 -0.3448  0.8769
17376TIP3    H273620   2.612   4.553  16.574 -0.7816  0.1902 -0.1748
17377TIP3   OH273621   2.150   2.842  15.829 -0.0190  0.6198 -0.2973
17377TIP3    H173622   2.188   2.897  15.898 -1.5464 -1.0116  1.9971
17377TIP3    H273623   2.076   2.892  15.797 -0.5082  0.5705  0.7146
17378TIP3   OH273624   3.214   6.149   2.575 -0.0320  0.6636  0.3772
17378TIP3    H173625   3.207   6.239   2.607 -0.1645  0.9511 -0.4247
17378TIP3    H273626   3.190   6.155   2.482  2.5536  0.2703 -0.4069
17379TIP3   OH273627   0.111   0.177   0.849 -0.2103  0.0745 -0.0767
17379TIP3    H173628   0.030   0.227   0.851 -0.0822  0.2553  1.3387
17379TIP3    H273629   0.089   0.098   0.800 -1.5533 -0.3848  1.2082
17380TIP3   OH273630   3.195   3.998   1.677  0.1393 -0.5126  0.2897
17380TIP3    H173631   3.269   4.005   1.737 -0.3081  2.2045  0.6542
17380TIP3    H273632   3.119   3.985   1.733 -0.1650  1.1511  0.3262
17381TIP3   OH273633   3.338   1.657  15.694 -1.1431 -0.7208 -0.0319
17381TIP3    H173634   3.255   1.702  15.710 -0.5790 -0.2485  1.8143
17381TIP3    H273635   3.392   1.720  15.647 -0.6712  0.2826  1.7606
17382TIP3   OH273636   1.322   3.430  14.003  0.6743  0.2812  0.2843
17382TIP3    H173637   1.374   3.486  13.946 -0.4088 -0.3720 -1.4220
17382TIP3    H273638   1.383   3.362  14.031  1.5308  1.2814  0.9248
17383TIP3   OH273639   1.801   2.828   4.368  0.2045  0.4306 -0.1315
17383TIP3    H173640   1.752   2.839   4.450 -0.9258 -0.2262 -0.6810
17383TIP3    H273641   1.823   2.917   4.341  1.3262  0.6211  1.2842
17384TIP3   OH273642   5.669   4.720   3.659 -0.2264  0.2784  0.1038
17384TIP3    H173643   5.600   4.785   3.665 -0.7239 -0.3772  1.8487
17384TIP3    H273644   5.750   4.770   3.671 -0.6384  0.5124  2.1405
17385TIP3   OH273645   3.935   3.118   2.153 -0.3059  0.4758  0.0630
17385TIP3    H173646   4.011   3.119   2.211  1.1623  0.9436 -1.7705
17385TIP3    H273647   3.864   3.153   2.207  0.7789  0.1254  1.8070
17386TIP3   OH273648   6.324   3.999  14.199  0.1499  0.4424 -0.2127
17386TIP3    H173649   6.331   3.996  14.104  1.0550  1.0265 -0.1822
17386TIP3    H273650   6.274   3.921  14.223  1.3779 -0.6191 -1.0370
17387TIP3   OH273651   3.370   3.335   2.827 -0.8060 -0.4478  0.9988
17387TIP3    H173652   3.451   3.312   2.780 -1.2655 -0.2998  0.1201
17387TIP3    H273653   3.363   3.268   2.896  0.7732  0.3281  1.9720
17388TIP3   OH273654   1.565   6.320   3.350  0.3836 -0.7286 -0.4320
17388TIP3    H173655   1.655   6.327   3.319  0.9089 -0.8622  0.9861
17388TIP3    H273656   1.523   6.400   3.320  1.0755 -0.4932 -0.7911
17389TIP3   OH273657   6.604   6.047  11.210 -0.7820  0.1466 -0.8279
17389TIP3    H173658   6.625   6.095  11.130 -1.8673  1.0514 -0.6017
17389TIP3    H273659   6.553   5.972  11.181 -0.0204 -0.2773 -1.0917
17390TIP3   OH273660   2.141   6.645   0.748  0.2548  0.1599 -0.1917
17390TIP3    H173661   2.182   6.680   0.827  0.1111  0.1643 -0.1191
17390TIP3    H273662   2.081   6.713   0.720  0.1988  0.0972 -0.2238
17391TIP3   OH273663   5.666   0.173   4.541  0.0415  0.3076 -0.4708
17391TIP3    H173664   5.667   0.098   4.482 -2.9952 -0.0879 -0.1744
17391TIP3    H273665   5.604   0.150   4.610 -0.6181  2.8609 -0.0761
17392TIP3   OH273666   5.538   2.640  14.105 -0.1937 -0.0777  0.1026
17392TIP3    H173667   5.600   2.624  14.033  0.3404 -1.6092  0.8572
17392TIP3    H273668   5.574   2.591  14.179 -1.3846  0.4652  1.0720
17393TIP3   OH273669   2.091   1.684  13.495  0.1495  0.4659  0.0790
17393TIP3    H173670   2.069   1.727  13.578 -0.3348  1.4662 -0.5455
17393TIP3    H273671   2.181   1.711  13.477  0.9137 -1.2230  1.1572
17394TIP3   OH273672   6.663   0.765  17.068 -0.0877  0.8441 -0.1201
17394TIP3    H173673   6.733   0.829  17.084 -0.7794  1.5570  0.1019
17394TIP3    H273674   6.710   0.685  17.044  0.7962  2.2806 -3.8362
17395TIP3   OH273675   6.086   4.788  16.963  0.6703 -0.2871 -0.1680
17395TIP3    H173676   6.017   4.740  17.009  0.2467  1.3074  0.9270
17395TIP3    H273677   6.151   4.807  17.031  1.3259 -0.1863 -0.8096
17396TIP3   OH273678   4.618   2.090  16.882  0.1372 -0.0439  0.3184
17396TIP3    H173679   4.605   2.107  16.975  1.9835 -0.0791  0.6159
17396TIP3    H273680   4.637   2.176  16.844  1.1155 -0.2466  0.3134
17397TIP3   OH273681   4.850   0.521  14.851 -0.6298  0.3048 -0.0011
17397TIP3    H173682   4.814   0.604  14.882 -0.6329  0.6003 -0.7749
17397TIP3    H273683   4.938   0.518  14.887  0.2351  1.7536 -1.8244
17398TIP3   OH273684   4.185   4.354  10.895 -0.0065  0.3912 -0.0661
17398TIP3    H173685   4.136   4.361  10.813  0.5959 -0.9881 -0.5842
17398TIP3    H273686   4.263   4.304  10.871  0.2573  0.1113  1.3271
17399TIP3   OH273687   4.465   4.555  13.464 -0.8372 -0.5258 -0.5581
17399TIP3    H173688   4.378   4.566  13.425 -0.7811  0.4311 -0.4330
17399TIP3    H273689   4.518   4.624  13.423 -0.1040 -1.1682 -0.7139
17400TIP3   OH273690   1.766   5.726   4.902 -0.0582 -0.3543 -0.3372
17400TIP3    H173691   1.719   5.747   4.982 -0.8433  1.6453 -1.2511
17400TIP3    H273692   1.787   5.633   4.910 -2.9169 -1.0096  0.7489
17401TIP3   OH273693   4.829   6.032   1.620 -0.1049  0.3482 -0.3625
17401TIP3    H173694   4.850   6.031   1.527 -2.5299 -1.4613 -0.9745
17401TIP3    H273695   4.885   5.964   1.658 -0.1056  0.1408 -0.7363
17402TIP3   OH273696   0.568   3.165   5.734 -0.5749  0.2648  0.1438
17402TIP3    H173697   0.582   3.142   5.642 -2.4992  1.4437 -0.5215
17402TIP3    H273698   0.473   3.173   5.742 -0.4805 -0.1953  2.3643
17403TIP3   OH273699   2.460   6.023  14.431  0.4214 -0.1178 -0.7088
17403TIP3    H173700   2.527   6.003  14.365 -0.2795  1.0370 -1.7958
17403TIP3    H273701   2.387   6.060  14.381 -0.8621 -0.8982  0.5122
17404TIP3   OH273702   6.114   6.041  11.991  0.6294 -0.0036 -0.0706
17404TIP3    H173703   6.175   6.021  12.062  0.1620  1.3691  0.7528
17404TIP3    H273704   6.157   6.009  11.912  1.5194 -0.8274  0.7276
17405TIP3   OH273705   0.655   1.343   2.411  0.3808 -0.1508  0.0112
17405TIP3    H173706   0.729   1.284   2.395  0.6709  0.1575  0.1919
17405TIP3    H273707   0.578   1.291   2.391  0.5974 -0.8143  0.8594
17406TIP3   OH273708   2.176   0.640   4.973 -0.2761  0.1066  0.4615
17406TIP3    H173709   2.224   0.645   4.891  1.8140  0.6609  1.6543
17406TIP3    H273710   2.084   0.633   4.947  0.2273  1.3720 -1.8925
17407TIP3   OH273711   1.954   4.284   4.650 -0.7451  0.4463  0.5873
17407TIP3    H173712   2.041   4.249   4.630 -1.1186 -0.4124  0.4345
17407TIP3    H273713   1.948   4.366   4.600  0.3993  1.1075  1.4712
17408TIP3   OH273714   6.737   2.418   5.892  0.1251 -0.0260 -0.4181
17408TIP3    H173715   6.667   2.439   5.953  0.5333 -1.1187  0.4466
17408TIP3    H273716   6.742   2.323   5.892  1.2340  0.0120 -0.9037
17409TIP3   OH273717   6.326   4.212  13.704  0.1385 -0.2486 -0.1824
17409TIP3    H173718   6.282   4.282  13.752  1.6063 -1.0309  2.5399
17409TIP3    H273719   6.256   4.163  13.661 -1.0804  1.6944 -0.5123
17410TIP3   OH273720   1.435   3.997   5.865  0.3704  0.3508  0.6133
17410TIP3    H173721   1.513   3.953   5.829 -1.0096 -0.0319 -2.1418
17410TIP3    H273722   1.467   4.084   5.891  1.8863 -0.1035  0.3878
17411TIP3   OH273723   1.428   1.715  11.613 -0.5828  0.1356 -0.1585
17411TIP3    H173724   1.383   1.798  11.600 -0.4313  0.1255 -0.7455
17411TIP3    H273725   1.360   1.656  11.644 -0.1977  1.1496  2.9841
17412TIP3   OH273726   5.420   0.056  16.883  0.1006  0.3464 -0.2733
17412TIP3    H173727   5.448   0.131  16.829 -1.6142  0.9868 -0.3164
17412TIP3    H273728   5.325   0.053  16.872  0.0776 -1.4945  0.2120
17413TIP3   OH273729   2.178   4.500  11.744 -0.2355 -0.0286 -0.3118
17413TIP3    H173730   2.143   4.433  11.686  1.4048 -1.1401 -0.0888
17413TIP3    H273731   2.101   4.538  11.787 -1.3053 -0.6597 -1.6074
17414TIP3   OH273732   4.899   3.039   1.049 -0.3831  0.1464  0.1248
17414TIP3    H173733   4.948   3.106   1.096 -2.0446  0.5935  1.3417
17414TIP3    H273734   4.842   3.088   0.990  0.2721 -0.3427 -0.9514
17415TIP3   OH273735   6.771   6.168   0.744  0.0626 -0.1191  0.7210
17415TIP3    H173736   6.847   6.167   0.803  0.9299 -2.0052 -0.3226
17415TIP3    H273737   6.787   6.094   0.685 -3.1777 -1.3384  1.2028
17416TIP3   OH273738   0.953   1.803  12.264  0.6730  0.1167 -0.2158
17416TIP3    H173739   1.017   1.744  12.304  1.3847  1.1215  0.1731
17416TIP3    H273740   0.948   1.877  12.324 -0.8110  0.1014 -0.2877
17417TIP3   OH273741   4.068   3.943  13.706  0.0853  0.7042  0.3281
17417TIP3    H173742   3.984   3.980  13.678 -1.6129 -0.9888  2.7252
17417TIP3    H273743   4.075   3.861  13.657  0.5567  1.0361 -0.1647
17418TIP3   OH273744   4.089   6.264   0.205  0.2607  0.2758  0.0238
17418TIP3    H173745   4.050   6.348   0.182 -1.4663 -0.1683  1.1468
17418TIP3    H273746   4.160   6.286   0.266  0.9141  1.0016 -0.9677
17419TIP3   OH273747   2.144   2.467   3.513 -0.0227  0.1154 -0.5792
17419TIP3    H173748   2.072   2.425   3.560  0.1643 -0.4077 -0.7479
17419TIP3    H273749   2.191   2.394   3.471 -0.0258  0.5471 -1.3451
17420TIP3   OH273750   3.675   2.909   2.401  0.3129 -0.0554  0.1241
17420TIP3    H173751   3.599   2.940   2.451 -1.9449 -1.4192 -2.1971
17420TIP3    H273752   3.690   2.820   2.433  2.3823  0.9119  2.0359
17421TIP3   OH273753   0.617   3.851  13.756  0.2853 -0.0849 -0.1237
17421TIP3    H173754   0.649   3.773  13.800  0.7918 -1.3730 -2.5694
17421TIP3    H273755   0.522   3.843  13.757  0.3213 -2.0588 -2.3183
17422TIP3   OH273756   3.391   3.164   4.260 -0.0186  0.6696 -0.3007
17422TIP3    H173757   3.301   3.198   4.265  0.2890  1.2986  1.5435
17422TIP3    H273758   3.441   3.237   4.223  0.0178  0.9222  0.2446
17423TIP3   OH273759   4.593   1.493   6.721  0.1993  0.2489  0.1898
17423TIP3    H173760   4.654   1.532   6.658 -1.1141  0.6646 -0.8673
17423TIP3    H273761   4.590   1.400   6.697  0.5861  0.1801  0.3985
17424TIP3   OH273762   5.247   6.489   3.876 -0.1687  0.2326 -0.2319
17424TIP3    H173763   5.333   6.473   3.838  0.1696  3.1372 -0.9256
17424TIP3    H273764   5.190   6.424   3.834  1.5522 -1.4297 -0.1050
17425TIP3   OH273765   0.204   0.290   2.494 -0.0361  0.8167  0.7904
17425TIP3    H173766   0.265   0.336   2.437 -1.5697 -0.3307 -1.9551
17425TIP3    H273767   0.120   0.295   2.449 -0.7174 -2.7723  1.3737
17426TIP3   OH273768   2.802   3.581   0.722  0.0636 -0.3521 -0.3521
17426TIP3    H173769   2.810   3.637   0.799  0.2385  0.2268 -0.7769
17426TIP3    H273770   2.839   3.634   0.651 -0.8514 -0.5357 -0.9870
17427TIP3   OH273771   2.355   2.234  12.626 -0.0233  0.8327 -0.5273
17427TIP3    H173772   2.418   2.192  12.568 -0.1098  1.2903 -0.9601
17427TIP3    H273773   2.294   2.164  12.650  0.6732  0.3758 -0.0612
17428TIP3   OH273774   0.776   2.291  16.067 -0.3235 -0.5207 -0.2756
17428TIP3    H173775   0.685   2.287  16.096 -0.7671 -0.9501 -1.6691
17428TIP3    H273776   0.794   2.204  16.033  0.9207 -0.7251  0.8091
17429TIP3   OH273777   4.421   2.734   4.609  0.4666  0.5882 -0.1518
17429TIP3    H173778   4.474   2.754   4.687  0.1996 -0.1253  0.2275
17429TIP3    H273779   4.366   2.811   4.596  1.0541  1.0211 -0.0891
17430TIP3   OH273780   2.038   1.650   0.836 -0.0491 -0.0667  0.4120
17430TIP3    H173781   1.950   1.615   0.823  0.6629 -1.1767 -2.0336
17430TIP3    H273782   2.092   1.605   0.771  1.5637  3.3032 -0.8676
17431TIP3   OH273783   2.567   5.655  13.546 -0.5589 -0.2322 -0.1852
17431TIP3    H173784   2.557   5.655  13.641  1.6851 -0.3040  0.1052
17431TIP3    H273785   2.600   5.568  13.525  0.3770  0.2580 -0.8224
17432TIP3   OH273786   5.260   1.624  12.047  0.1384 -0.0053  0.7559
17432TIP3    H173787   5.262   1.628  11.952 -1.0315  1.0417  0.7476
17432TIP3    H273788   5.210   1.545  12.067 -0.6107  0.3869  0.4736
17433TIP3   OH273789   0.138   3.378   5.164 -0.0553 -0.2000  0.1970
17433TIP3    H173790   0.219   3.396   5.211 -0.4475 -0.0503  0.8224
17433TIP3    H273791   0.069   3.412   5.221 -0.5753 -0.5907 -0.1937
17434TIP3   OH273792   6.316   3.219  14.790  0.6922 -0.7978 -0.7031
17434TIP3    H173793   6.313   3.239  14.697 -0.2942  0.9856 -0.3299
17434TIP3    H273794   6.409   3.209  14.809  1.0877  0.9104 -1.5090
17435TIP3   OH273795   6.018   0.031  13.480  0.1777  0.4180  0.2437
17435TIP3    H173796   6.019   0.049  13.574  0.9502  0.5388  0.2225
17435TIP3    H273797   6.107   0.000  13.461 -0.2098 -0.4170 -0.2978
17436TIP3   OH273798   5.372   3.108   3.065  0.3341  0.1091 -0.2335
17436TIP3    H173799   5.309   3.111   2.994 -1.2649 -0.1164  1.1229
17436TIP3    H273800   5.455   3.132   3.024 -0.4663 -0.3086 -2.2169
17437TIP3   OH273801   5.681   3.377   6.916 -0.1797  0.0344 -0.3466
17437TIP3    H173802   5.623   3.427   6.858 -0.9058  0.7429  0.9178
17437TIP3    H273803   5.724   3.314   6.859 -0.5744  0.9402 -1.7030
17438TIP3   OH273804   3.378   3.946   1.889  0.2219  0.6027 -0.0790
17438TIP3    H173805   3.301   3.946   1.946  0.6035  2.2577  0.4902
17438TIP3    H273806   3.370   3.866   1.838 -1.2415  0.1403  0.8223
17439TIP3   OH273807   0.101   6.734  15.134  0.0313 -0.1750 -0.6013
17439TIP3    H173808   0.159   6.783  15.192  0.2829 -0.4226 -0.6376
17439TIP3    H273809   0.023   6.789  15.125 -1.2273 -1.3196  2.1792
17440TIP3   OH273810   1.639   0.099   1.908 -0.2192 -0.5330  0.1274
17440TIP3    H173811   1.579   0.025   1.901  0.2417 -1.1290  1.8728
17440TIP3    H273812   1.714   0.074   1.854 -1.1199 -0.1838 -1.3314
17441TIP3   OH273813   5.933   0.498  13.784 -0.0812  0.1520  0.2554
17441TIP3    H173814   5.938   0.494  13.689  1.2726  0.1816  0.3013
17441TIP3    H273815   5.968   0.414  13.814  0.2510  0.4516  0.7346
17442TIP3   OH273816   3.099   3.161   3.366 -0.3456 -0.6016  0.5287
17442TIP3    H173817   3.097   3.116   3.282  0.3184  0.6556 -0.1941
17442TIP3    H273818   3.191   3.177   3.383 -0.5848  2.8255 -0.6188
17443TIP3   OH273819   4.529   4.787  16.988 -0.3743 -0.2794 -0.0905
17443TIP3    H173820   4.618   4.824  16.989  0.0800 -1.2717 -1.1182
17443TIP3    H273821   4.506   4.782  16.895 -1.9702  0.9724  0.2082
17444TIP3   OH273822   6.381   4.527  15.464 -0.2408 -0.1945 -0.2268
17444TIP3    H173823   6.385   4.579  15.384  1.4245  0.5016  0.2667
17444TIP3    H273824   6.456   4.467  15.457 -1.2266 -1.4836 -0.0712
17445TIP3   OH273825   5.042   4.378  12.631 -0.0419 -0.1487  0.0348
17445TIP3    H173826   4.958   4.333  12.619  0.2647 -0.4074 -1.2452
17445TIP3    H273827   5.073   4.347  12.716 -0.4273 -1.4006 -0.2583
17446TIP3   OH273828   1.198   4.270  16.588 -0.2792  0.7493  0.4327
17446TIP3    H173829   1.279   4.315  16.565 -0.8356  0.5241 -2.3377
17446TIP3    H273830   1.154   4.330  16.649  1.8291  0.9404  1.8761
17447TIP3   OH273831   3.319   1.735   5.760  0.5034  0.3866 -0.0430
17447TIP3    H173832   3.297   1.748   5.852 -1.4690  0.2050 -0.4466
17447TIP3    H273833   3.304   1.641   5.745  2.4863  0.0556 -0.1625
17448TIP3   OH273834   5.122   4.726  16.125 -0.2109 -0.0465  0.2297
17448TIP3    H173835   5.073   4.676  16.191 -0.6454 -0.5920 -0.4909
17448TIP3    H273836   5.126   4.815  16.160  0.3853 -0.5180  1.4391
17449TIP3   OH273837   6.230   5.519  13.941  0.0747 -0.0089 -0.3472
17449TIP3    H173838   6.291   5.497  14.011 -0.8036  2.1993  1.2354
17449TIP3    H273839   6.144   5.514  13.982 -0.4224  2.0462 -0.9807
17450TIP3   OH273840   6.623   2.996   0.381 -0.2440  0.3760 -0.4241
17450TIP3    H173841   6.588   2.908   0.394 -2.4058  0.9357 -1.8812
17450TIP3    H273842   6.667   2.992   0.296  0.2075  0.5476 -0.2009
17451TIP3   OH273843   2.421   4.866   3.371 -0.0914 -0.1485 -0.5380
17451TIP3    H173844   2.413   4.908   3.457  2.0516  3.6552 -1.9418
17451TIP3    H273845   2.468   4.785   3.388  0.7392  0.7536  1.8717
17452TIP3   OH273846   1.300   6.422  13.878  0.1230  0.6121  0.2403
17452TIP3    H173847   1.282   6.328  13.875 -0.8063  0.6869  2.0888
17452TIP3    H273848   1.310   6.447  13.786 -0.9453 -1.0403 -0.3806
17453TIP3   OH273849   2.433   1.868  15.207  0.2320  0.3106 -0.0426
17453TIP3    H173850   2.346   1.897  15.178  0.1983  0.0177 -0.2332
17453TIP3    H273851   2.435   1.775  15.188  0.9109  0.4782 -0.8223
17454TIP3   OH273852   3.474   4.204  13.670 -0.1110  0.7213  0.2828
17454TIP3    H173853   3.508   4.292  13.655  0.2307  0.3653 -1.2340
17454TIP3    H273854   3.520   4.172  13.747  1.2541  1.1441 -0.3313
17455TIP3   OH273855   0.610   5.938   4.389 -0.2394 -0.1099 -0.3470
17455TIP3    H173856   0.549   5.880   4.344 -1.2921  0.2192  0.6046
17455TIP3    H273857   0.695   5.897   4.377 -0.8791 -1.5213 -0.2303
17456TIP3   OH273858   0.984   2.629   1.180  0.3831  0.1902 -0.5550
17456TIP3    H173859   0.956   2.720   1.171 -0.3999 -0.1417 -1.6713
17456TIP3    H273860   1.029   2.610   1.098 -1.9785 -1.2668 -1.6115
17457TIP3   OH273861   6.144   2.097   3.122  0.2019  0.0264  0.2413
17457TIP3    H173862   6.223   2.122   3.170  0.1436 -0.8323  0.8146
17457TIP3    H273863   6.141   2.001   3.130  0.0335 -0.1151 -1.2534
17458TIP3   OH273864   5.388   6.096   3.933 -0.4822 -0.0591  0.6782
17458TIP3    H173865   5.295   6.115   3.932 -0.2968  1.0875 -2.2181
17458TIP3    H273866   5.430   6.179   3.956 -0.0750  0.8161 -2.7257
17459TIP3   OH273867   3.499   4.858  12.673 -0.0773  0.6169 -0.1030
17459TIP3    H173868   3.545   4.791  12.724  1.1026  1.4502 -0.0330
17459TIP3    H273869   3.475   4.814  12.592 -0.3443 -0.2029  0.4027
17460TIP3   OH273870   2.160   1.316   4.404  0.2730  0.1672  0.2256
17460TIP3    H173871   2.064   1.309   4.403  0.3065 -0.3057 -0.3114
17460TIP3    H273872   2.179   1.375   4.476 -0.3059 -1.8015  2.0967
17461TIP3   OH273873   3.606   0.052  16.889 -0.3120  0.0287  0.0734
17461TIP3    H173874   3.625   0.098  16.971 -0.8704  0.0044  0.2198
17461TIP3    H273875   3.691   0.040  16.848  0.0737 -0.7378  1.0661
17462TIP3   OH273876   6.184   0.187  17.066  0.4022 -0.5501  0.3581
17462TIP3    H173877   6.213   0.272  17.033  0.2154 -0.3465  0.7158
17462TIP3    H273878   6.217   0.183  17.155  2.7280 -1.9876 -0.4864
17463TIP3   OH273879   6.750   4.459  14.490  0.3635 -0.1151  0.0053
17463TIP3    H173880   6.819   4.494  14.434  1.1714 -0.4286  0.7711
17463TIP3    H273881   6.684   4.426  14.430 -0.3211  2.4316 -0.7677
17464TIP3   OH273882   0.636   0.516   2.116 -0.3627  0.4822  0.0846
17464TIP3    H173883   0.728   0.491   2.128 -0.3831  0.9179  1.3905
17464TIP3    H273884   0.609   0.470   2.037  0.6453 -0.6070  0.3299
17465TIP3   OH273885   4.947   3.106  14.270  0.2444 -0.2496 -0.1501
17465TIP3    H173886   4.880   3.038  14.262  0.4367 -0.2973 -1.4373
17465TIP3    H273887   5.028   3.063  14.245  0.3591  0.4523 -1.0196
17466TIP3   OH273888   3.747   1.525   4.295  0.0642  0.2047 -0.4796
17466TIP3    H173889   3.809   1.455   4.318 -0.0432  0.4578  0.6855
17466TIP3    H273890   3.686   1.527   4.369 -3.4611 -2.2886 -2.9917
17467TIP3   OH273891   2.436   2.157   4.920 -0.0709  0.0230  0.0914
17467TIP3    H173892   2.448   2.252   4.914  0.4414 -0.0462 -0.0223
17467TIP3    H273893   2.355   2.146   4.970  1.5251  0.5177  3.0031
17468TIP3   OH273894   5.896   1.872   6.199 -0.4051  0.4731  0.1022
17468TIP3    H173895   5.828   1.822   6.243 -0.2002  1.5549  1.7666
17468TIP3    H273896   5.974   1.818   6.205 -0.7067 -0.0096 -0.2435
17469TIP3   OH273897   1.368   1.949   1.773  0.8743  0.3689 -0.3347
17469TIP3    H173898   1.352   2.039   1.803  1.2124  0.9923 -1.8827
17469TIP3    H273899   1.461   1.934   1.791  0.9418  0.5357 -0.5300
17470TIP3   OH273900   3.570   4.477   6.449 -0.5339 -0.2148 -0.3180
17470TIP3    H173901   3.587   4.570   6.433 -0.4660  0.1859  1.8553
17470TIP3    H273902   3.475   4.468   6.441 -0.8221  0.5658  1.7523
17471TIP3   OH273903   1.684   5.923  16.260 -0.7529 -0.7943 -0.0727
17471TIP3    H173904   1.761   5.868  16.270  0.8228  1.1804 -0.6099
17471TIP3    H273905   1.655   5.909  16.170 -1.0398 -1.5635  0.1391
17472TIP3   OH273906   1.575   4.258   3.361 -0.2078  0.4482 -0.0203
17472TIP3    H173907   1.583   4.268   3.266  0.7466 -0.9616 -0.1342
17472TIP3    H273908   1.653   4.208   3.385 -2.7198 -3.5306  0.7524
17473TIP3   OH273909   2.766   2.662  11.475  0.4617  0.5977 -0.2096
17473TIP3    H173910   2.852   2.696  11.500  0.9932 -1.0034  0.3037
17473TIP3    H273911   2.705   2.705  11.535  1.1429  0.4047  0.6529
17474TIP3   OH273912   0.388   6.116   3.164  0.2948 -0.2667  0.7047
17474TIP3    H173913   0.347   6.080   3.243  0.6350  0.3262  1.1646
17474TIP3    H273914   0.316   6.132   3.104  0.1334 -1.6800  0.4957
17475TIP3   OH273915   1.375   6.573   3.380  0.4139 -0.2956 -0.1143
17475TIP3    H173916   1.303   6.521   3.418  1.6552 -2.1805 -0.1756
17475TIP3    H273917   1.334   6.624   3.311 -1.1834  0.0934  1.0685
17476TIP3   OH273918   1.974   1.786   6.098  0.0751 -0.4141  0.3913
17476TIP3    H173919   1.883   1.783   6.068  0.5028  0.9525 -1.1583
17476TIP3    H273920   1.969   1.829   6.184 -0.9122 -2.2612  1.3448
17477TIP3   OH273921   3.497   4.725  16.435  0.3828 -0.2840  0.5341
17477TIP3    H173922   3.440   4.650  16.446  0.5091 -0.3069  1.0923
17477TIP3    H273923   3.571   4.708  16.494  0.3501  0.3332  0.7617
17478TIP3   OH273924   1.421   1.191  16.982  0.3635 -0.5738 -0.2723
17478TIP3    H173925   1.451   1.178  17.072  0.5097  0.4136 -0.1677
17478TIP3    H273926   1.329   1.164  16.983  0.4016 -0.6923  0.1404
17479TIP3   OH273927   5.509   5.325  13.326  0.4847  0.3090  0.1482
17479TIP3    H173928   5.565   5.396  13.296  0.7855 -0.5687 -1.5277
17479TIP3    H273929   5.559   5.283  13.396  2.3390 -0.8478 -1.7148
17480TIP3   OH273930   1.501   0.732   4.497  0.4405 -0.1298  0.5520
17480TIP3    H173931   1.445   0.770   4.430 -0.8470 -2.3299  0.2613
17480TIP3    H273932   1.443   0.719   4.572  1.0949 -0.4807  1.0096
17481TIP3   OH273933   0.340   6.739   3.087 -0.9041 -0.0298  0.3592
17481TIP3    H173934   0.300   6.748   3.174 -1.8077 -0.1237 -0.0398
17481TIP3    H273935   0.428   6.777   3.097 -0.8345 -0.4336  1.4257
17482TIP3   OH273936   4.267   4.082   0.599  0.0039 -0.1326  0.0472
17482TIP3    H173937   4.288   4.024   0.526 -1.1372  0.7449 -1.0346
17482TIP3    H273938   4.349   4.127   0.619  0.6387 -1.3223  0.2034
17483TIP3   OH273939   2.537   1.046   0.595 -0.0950  0.1427  0.6659
17483TIP3    H173940   2.497   0.961   0.610  0.3149 -0.3725 -0.9584
17483TIP3    H273941   2.464   1.108   0.601 -0.8575 -0.6007 -0.6266
17484TIP3   OH273942   1.668   3.441   5.640  0.2537 -0.3463 -0.0010
17484TIP3    H173943   1.739   3.416   5.581 -0.3080 -0.6090 -0.5830
17484TIP3    H273944   1.695   3.408   5.725  0.2736 -1.5549 -0.4512
17485TIP3   OH273945   1.030   2.411  13.378 -0.1331 -0.0598 -0.3013
17485TIP3    H173946   1.086   2.396  13.302  0.0772  0.0343 -0.1691
17485TIP3    H273947   0.993   2.326  13.399  0.8694 -0.3582  0.3083
17486TIP3   OH273948   3.341   3.002   2.517 -0.1113 -0.2047 -0.6104
17486TIP3    H173949   3.382   2.927   2.474 -1.7938 -1.4439 -0.1701
17486TIP3    H273950   3.273   2.964   2.573 -0.9928  1.6471 -0.3176
17487TIP3   OH273951   6.084   4.079  14.949 -0.6211  0.2403 -0.1551
17487TIP3    H173952   5.997   4.101  14.981  0.4982  3.8707  0.8362
17487TIP3    H273953   6.101   4.140  14.878 -0.0521 -2.6336 -2.7242
17488TIP3   OH273954   4.580   5.223   4.689  0.0194 -0.3108 -0.0003
17488TIP3    H173955   4.533   5.215   4.772 -0.0466  1.3372  0.1458
17488TIP3    H273956   4.670   5.245   4.715  0.6957 -2.4038 -0.3165
17489TIP3   OH273957   0.274   5.322  16.982  0.2931  0.4620 -0.2036
17489TIP3    H173958   0.247   5.369  17.061 -0.3379 -0.7219  0.3079
17489TIP3    H273959   0.213   5.351  16.915  0.0348  0.5296  0.0569
17490TIP3   OH273960   6.587   0.097   5.445  0.3681  0.1005 -0.3702
17490TIP3    H173961   6.573   0.108   5.539  1.3295  0.1425 -0.2187
17490TIP3    H273962   6.523   0.031   5.418 -1.0002  1.2493 -0.0140
17491TIP3   OH273963   5.028   0.358   5.451  0.0060  0.1004  0.1271
17491TIP3    H173964   5.071   0.278   5.482  0.5026  0.1040 -0.5260
17491TIP3    H273965   4.936   0.334   5.441  0.0780 -0.2702  0.3386
17492TIP3   OH273966   2.661   6.488   1.729 -0.6125 -0.0702  0.2206
17492TIP3    H173967   2.637   6.570   1.773  0.9241  0.6528 -0.2218
17492TIP3    H273968   2.665   6.511   1.637  1.6350 -0.1349  0.2477
17493TIP3   OH273969   2.990   0.825  15.396 -0.4732 -0.1241  0.5537
17493TIP3    H173970   2.995   0.833  15.300 -1.5230 -0.0550  0.4875
17493TIP3    H273971   3.040   0.746  15.416  1.0033  0.6606  0.1099
17494TIP3   OH273972   3.043   0.891  16.681  0.5385  0.1279  0.7401
17494TIP3    H173973   3.122   0.872  16.630  1.0577  0.2085  1.5038
17494TIP3    H273974   3.011   0.806  16.709  1.8798  0.1928  2.6800
17495TIP3   OH273975   3.681   4.681   1.272  0.2797 -0.2775 -0.8310
17495TIP3    H173976   3.642   4.596   1.249  1.7749 -1.2881  0.1704
17495TIP3    H273977   3.636   4.744   1.216 -1.3663 -1.6308 -1.1054
17496TIP3   OH273978   0.511   1.770  12.527  0.3076  0.0107  0.3659
17496TIP3    H173979   0.494   1.676  12.535  0.0707 -0.0602 -0.7382
17496TIP3    H273980   0.458   1.798  12.452  0.9223  0.8803  0.2332
17497TIP3   OH273981   5.766   1.714   2.195 -0.9869  0.6360  0.4009
17497TIP3    H173982   5.752   1.761   2.278 -1.1686  0.8061  0.2759
17497TIP3    H273983   5.760   1.782   2.128  0.3199  0.7036  0.3215
17498TIP3   OH273984   4.034   4.068   3.667 -0.5905  0.0558 -0.0037
17498TIP3    H173985   4.053   3.989   3.719 -0.0163 -0.0775 -0.4123
17498TIP3    H273986   4.040   4.039   3.576  0.3087  0.7239 -0.1704
17499TIP3   OH273987   2.560   2.743   3.692  0.2992  0.2880 -0.3294
17499TIP3    H173988   2.605   2.676   3.743 -0.0803 -0.0120 -0.3808
17499TIP3    H273989   2.503   2.694   3.633 -0.1441  0.6564 -0.2169
17500TIP3   OH273990   5.777   6.339   1.041 -0.3374 -0.3137  0.4783
17500TIP3    H173991   5.865   6.333   1.003 -0.7207 -0.0640 -0.4593
17500TIP3    H273992   5.775   6.425   1.082 -0.6904  0.3736 -0.9284
17501TIP3   OH273993   2.764   3.165  12.832 -0.1890  0.2987 -0.3414
17501TIP3    H173994   2.817   3.088  12.851  0.8454  0.6893 -1.5030
17501TIP3    H273995   2.682   3.130  12.796 -0.3515 -0.2838  0.5690
17502TIP3   OH273996   5.295   4.965   4.271 -0.2546 -0.4411  0.4930
17502TIP3    H173997   5.269   4.883   4.230  0.3067  0.0240 -0.8752
17502TIP3    H273998   5.301   4.945   4.364  1.0488 -2.2931  0.0736
17503TIP3   OH273999   4.818   3.363   4.630 -0.4059 -0.7126  0.9421
17503TIP3    H174000   4.894   3.393   4.680 -1.3570 -0.5988  2.4062
17503TIP3    H274001   4.818   3.416   4.551  1.3388 -1.1160  0.6379
17504TIP3   OH274002   4.275   5.978   2.375  0.5030 -0.2277 -0.1652
17504TIP3    H174003   4.363   5.951   2.400  0.6599 -0.5379 -1.0178
17504TIP3    H274004   4.289   6.055   2.319  0.2058  0.0099  0.0843
17505TIP3   OH274005   6.020   0.891  11.537 -0.7274  0.0416  0.4325
17505TIP3    H174006   6.000   0.844  11.456  0.6110  0.1819  0.0046
17505TIP3    H274007   5.984   0.979  11.523  0.4416  0.3998 -0.4765
17506TIP3   OH274008   5.466   6.105  14.486 -0.1251  0.1014 -0.3641
17506TIP3    H174009   5.485   6.169  14.418 -1.5833 -0.9381 -1.8443
17506TIP3    H274010   5.382   6.133  14.524  0.4079  0.3706  0.6564
17507TIP3   OH274011   3.802   0.984   0.786 -0.4457 -0.0176 -0.0197
17507TIP3    H174012   3.893   0.995   0.816 -0.8970  0.9656  1.0821
17507TIP3    H274013   3.808   0.977   0.691  0.7366  0.6926 -0.0166
17508TIP3   OH274014   2.337   3.691  11.920 -0.0656  0.1508 -0.2684
17508TIP3    H174015   2.314   3.751  11.849 -0.2204  0.9967  0.4716
17508TIP3    H274016   2.292   3.727  11.997 -0.7602 -1.3376  0.0549
17509TIP3   OH274017   4.833   6.546  12.465  0.0778  0.3246  0.1314
17509TIP3    H174018   4.816   6.605  12.392 -0.1280  0.9915  0.7081
17509TIP3    H274019   4.915   6.578  12.503 -0.7878  1.1496  1.3352
17510TIP3   OH274020   0.192   3.413  14.771  0.3876 -0.4685  0.3311
17510TIP3    H174021   0.098   3.416  14.786  0.1821  1.7367 -0.9444
17510TIP3    H274022   0.202   3.418  14.676  1.7611  1.4993  0.5104
17511TIP3   OH274023   0.748   0.644   4.962  0.2056  0.2070  0.7427
17511TIP3    H174024   0.736   0.692   4.880  0.5922 -0.9147  0.0141
17511TIP3    H274025   0.663   0.605   4.980 -0.0670  0.9908  1.2576
17512TIP3   OH274026   3.695   4.804  15.245  0.1351  0.5427 -0.4184
17512TIP3    H174027   3.785   4.770  15.248  0.4195  1.2715 -0.5107
17512TIP3    H274028   3.660   4.786  15.333  0.2279 -0.1237 -0.5162
17513TIP3   OH274029   1.351   3.597  12.967 -0.0979  0.5704 -0.8984
17513TIP3    H174030   1.443   3.613  12.986  0.4389 -1.2997 -1.7028
17513TIP3    H274031   1.304   3.644  13.036  1.5473 -0.6194  1.1695
17514TIP3   OH274032   4.243   4.207   4.305  0.6145 -0.4991 -0.4122
17514TIP3    H174033   4.239   4.271   4.234  0.3895 -1.0059 -0.8652
17514TIP3    H274034   4.315   4.237   4.361 -0.4294  0.9803  0.2151
17515TIP3   OH274035   1.066   2.276  13.793 -0.0652 -0.1605  0.0516
17515TIP3    H174036   1.064   2.183  13.771  2.7317 -0.0163 -1.3276
17515TIP3    H274037   1.141   2.285  13.852  0.8021  1.3802 -1.1854
17516TIP3   OH274038   3.961   3.529  14.318 -0.2489 -0.0162  0.0873
17516TIP3    H174039   3.919   3.475  14.385  0.9940 -1.6634 -0.3915
17516TIP3    H274040   3.953   3.478  14.237  0.6301  0.6784 -0.4635
17517TIP3   OH274041   3.502   3.776   5.517 -0.0255 -0.0375 -0.1828
17517TIP3    H174042   3.495   3.699   5.573  1.0300 -2.3204 -2.9811
17517TIP3    H274043   3.555   3.838   5.567  0.7791 -1.9040  1.3638
17518TIP3   OH274044   5.297   6.414  10.915  0.1505  0.1351 -0.6439
17518TIP3    H174045   5.277   6.498  10.874 -0.4387 -0.8823 -2.5808
17518TIP3    H274046   5.211   6.377  10.936  0.3308 -0.6100 -1.1813
17519TIP3   OH274047   6.376   3.066   3.622 -0.1373 -0.3148  0.7893
17519TIP3    H174048   6.388   3.158   3.599  1.8981  0.3747  3.9218
17519TIP3    H274049   6.288   3.062   3.659  0.2187  0.7355  1.8283
17520TIP3   OH274050   5.664   3.636  16.587  0.0147 -0.0397  0.2776
17520TIP3    H174051   5.729   3.566  16.587  0.0163 -0.1051  2.7717
17520TIP3    H274052   5.710   3.712  16.622 -0.5519  0.6656 -0.4672
17521TIP3   OH274053   0.092   2.712  16.900 -0.0469 -0.1004  0.1128
17521TIP3    H174054   0.035   2.690  16.826  0.7302 -0.6364 -0.3408
17521TIP3    H274055   0.168   2.654  16.890  0.0900 -0.1523  1.3109
17522TIP3   OH274056   0.622   0.913  11.238  0.4176 -0.0727  0.1224
17522TIP3    H174057   0.650   0.828  11.207 -0.9858 -0.5942  0.2212
17522TIP3    H274058   0.568   0.894  11.315  0.7056  0.9611  0.6059
17523TIP3   OH274059   6.374   2.486   5.819 -0.2654 -0.7199 -0.1385
17523TIP3    H174060   6.432   2.553   5.857  0.4477 -0.9399 -0.8187
17523TIP3    H274061   6.381   2.412   5.878  2.3190 -1.7658 -1.5967
17524TIP3   OH274062   3.728   0.993  16.446 -0.5342  0.0490 -0.1814
17524TIP3    H174063   3.709   1.083  16.419 -0.2815 -0.1395 -1.0006
17524TIP3    H274064   3.644   0.949  16.444 -0.7053  0.3350  0.4967
17525TIP3   OH274065   5.018   3.655   6.581 -0.6821  0.1762 -0.3762
17525TIP3    H174066   4.937   3.604   6.583 -0.7849  0.3273  1.6374
17525TIP3    H274067   5.080   3.600   6.533 -2.1799  0.4601 -2.7719
17526TIP3   OH274068   0.362   6.008   0.618 -0.3600  0.0807  0.1757
17526TIP3    H174069   0.443   6.042   0.580 -0.4671  0.0690 -0.0650
17526TIP3    H274070   0.294   6.068   0.589 -0.1796  1.3079  2.0706
17527TIP3   OH274071   2.130   3.190   4.360  0.0687 -0.4734  0.6783
17527TIP3    H174072   2.174   3.135   4.295 -0.8701  1.1322 -1.4578
17527TIP3    H274073   2.189   3.192   4.435  2.2401 -0.7640 -0.9340
17528TIP3   OH274074   1.604   4.996   1.640  0.4608 -0.4861  1.2497
17528TIP3    H174075   1.592   5.088   1.663 -0.1838 -0.5761  1.3086
17528TIP3    H274076   1.557   4.948   1.709  0.1587 -0.8256  0.8155
17529TIP3   OH274077   6.244   4.102   2.851  0.5188 -0.5781  0.2196
17529TIP3    H174078   6.196   4.184   2.839 -0.0962 -0.4293  2.8943
17529TIP3    H274079   6.312   4.103   2.784  1.4484  2.8281  1.0279
17530TIP3   OH274080   4.759   4.550  10.606 -0.1704 -0.0778  0.4060
17530TIP3    H174081   4.677   4.502  10.622  0.5677 -1.4880  0.1823
17530TIP3    H274082   4.826   4.497  10.650  0.4796  1.7244  1.6745
17531TIP3   OH274083   2.463   5.784   0.939  0.0558  0.6209 -0.5095
17531TIP3    H174084   2.406   5.752   1.008 -0.4350  1.3104 -0.5830
17531TIP3    H274085   2.419   5.760   0.858  0.5712 -0.0823 -0.5923
17532TIP3   OH274086   3.142   6.135   2.296  0.2795 -0.0254  0.7018
17532TIP3    H174087   3.180   6.169   2.215  0.4653  0.9841  1.1939
17532TIP3    H274088   3.049   6.157   2.290 -0.0067 -1.3265  0.0857
17533TIP3   OH274089   4.827   3.142  16.174 -0.1715 -0.3242 -0.1231
17533TIP3    H174090   4.751   3.197  16.154 -0.8784 -1.7574 -1.6423
17533TIP3    H274091   4.792   3.073  16.231 -0.6261 -2.2879 -2.6240
17534TIP3   OH274092   5.738   0.833   1.823 -0.3548  0.7089 -0.6279
17534TIP3    H174093   5.798   0.778   1.875 -0.1059  0.8721 -0.7394
17534TIP3    H274094   5.779   0.837   1.737  0.1065  1.8319 -0.3661
17535TIP3   OH274095   1.132   4.978  12.678 -0.6533 -0.5373  0.2333
17535TIP3    H174096   1.048   4.932  12.676 -1.1915  0.1416  2.7857
17535TIP3    H274097   1.190   4.926  12.622 -2.3117 -2.0105 -0.1970
17536TIP3   OH274098   1.325   3.080  11.845  0.2647 -0.0859 -0.1160
17536TIP3    H174099   1.243   3.109  11.806 -0.6404  0.9295  2.3409
17536TIP3    H274100   1.354   3.007  11.790 -1.5913  0.3741 -1.7905
17537TIP3   OH274101   0.210   5.342   5.483 -0.5971 -0.2645 -0.0047
17537TIP3    H174102   0.158   5.422   5.488 -0.0685  0.0531  0.5174
17537TIP3    H274103   0.256   5.349   5.399  2.7696  2.1080  1.7869
17538TIP3   OH274104   1.850   6.575  16.663  0.2788  0.3603  0.3929
17538TIP3    H174105   1.820   6.502  16.716 -0.4343  1.6650  1.8868
17538TIP3    H274106   1.945   6.579  16.679  0.3601 -0.3520  0.1225
17539TIP3   OH274107   5.036   6.583   4.330  0.3091 -0.5873 -0.1138
17539TIP3    H174108   5.085   6.530   4.394  1.6010  0.8538  0.1585
17539TIP3    H274109   5.043   6.533   4.249 -0.2060 -1.7939  0.5471
17540TIP3   OH274110   3.928   4.500   4.894  0.0454  0.3337  0.1330
17540TIP3    H174111   3.877   4.529   4.969 -0.5735 -0.0001 -0.1488
17540TIP3    H274112   3.872   4.518   4.818  0.8733  1.1573 -0.3085
17541TIP3   OH274113   6.534   2.561   4.039 -0.2128  0.1442 -0.1901
17541TIP3    H174114   6.605   2.576   4.102  0.2394 -1.7492 -0.1957
17541TIP3    H274115   6.579   2.542   3.956 -0.7888  1.1947 -0.7725
17542TIP3   OH274116   1.192   1.090  16.272 -0.1801 -0.4429 -0.1856
17542TIP3    H174117   1.184   1.041  16.190  0.6034  1.0968 -1.2108
17542TIP3    H274118   1.168   1.180  16.249 -1.4779 -0.2696  1.6297
17543TIP3   OH274119   6.216   2.006  15.205  0.1652  0.5838 -0.2864
17543TIP3    H174120   6.188   1.915  15.200 -0.8903  0.8432  0.5540
17543TIP3    H274121   6.261   2.022  15.122 -1.5236 -0.0962 -1.3883
17544TIP3   OH274122   6.624   6.210  11.459 -0.0627 -0.1864  0.5110
17544TIP3    H174123   6.645   6.163  11.379  1.0447  0.4620  0.4057
17544TIP3    H274124   6.709   6.236  11.495 -0.6006  2.7756 -0.0738
17545TIP3   OH274125   5.588   0.267   2.291 -0.0196 -0.1173  0.2284
17545TIP3    H174126   5.682   0.275   2.275 -0.1305  0.2534 -0.2758
17545TIP3    H274127   5.564   0.182   2.254  0.3447 -0.8148  1.5353
17546TIP3   OH274128   0.028   4.479  12.497 -0.0196  0.0720 -0.1235
17546TIP3    H174129  -0.002   4.398  12.456  2.2294 -0.9256  0.0702
17546TIP3    H274130  -0.042   4.542  12.478 -2.1238 -2.0049  0.2324
17547TIP3   OH274131   0.086   0.704   4.014 -0.7055 -0.1755  0.2083
17547TIP3    H174132   0.004   0.658   3.997  0.4277 -2.4688  0.5536
17547TIP3    H274133   0.135   0.697   3.932 -0.3317  0.0384  0.4108
17548TIP3   OH274134   2.637   1.972  16.178 -0.2170  0.7510  0.3670
17548TIP3    H174135   2.542   1.979  16.171 -0.0034  3.5805 -1.5734
17548TIP3    H274136   2.660   1.898  16.122 -1.2425 -0.0591  0.9780
17549TIP3   OH274137   5.333   2.725  11.806  0.1962  0.4067 -0.4302
17549TIP3    H174138   5.396   2.704  11.738 -0.7322  0.6886 -1.3999
17549TIP3    H274139   5.249   2.732  11.761 -0.9057 -1.8451  1.0797
17550TIP3   OH274140   0.714   2.097  17.213 -0.2889 -0.1059  0.1534
17550TIP3    H174141   0.769   2.159  17.262 -2.1449  1.5098  0.3155
17550TIP3    H274142   0.769   2.019  17.204  1.5971  0.9958  1.2793
17551TIP3   OH274143   5.679   0.589   6.265  1.2323  0.0425 -0.5746
17551TIP3    H174144   5.630   0.647   6.323  1.1303 -0.9990  0.4056
17551TIP3    H274145   5.615   0.560   6.200  0.6050 -1.0093  0.4722
17552TIP3   OH274146   0.179   0.503  14.095  0.0538  0.1164  0.6780
17552TIP3    H174147   0.270   0.518  14.070 -0.1869  1.6606  0.6068
17552TIP3    H274148   0.177   0.519  14.190 -0.0899 -0.2272  0.7374
17553TIP3   OH274149   6.170   0.962   5.184  0.1255 -0.0086 -0.1950
17553TIP3    H174150   6.210   0.939   5.100  0.3713 -0.6111  0.0775
17553TIP3    H274151   6.226   0.920   5.249 -0.4781 -0.1641  0.2347
17554TIP3   OH274152   6.345   0.407   5.990 -0.0833  0.0340 -0.1802
17554TIP3    H174153   6.298   0.404   6.073  0.2542 -1.0756 -0.0249
17554TIP3    H274154   6.424   0.356   6.005  0.2790  0.3387 -1.0002
17555TIP3   OH274155   1.555   2.162   2.654  0.4590 -0.5449  0.4821
17555TIP3    H174156   1.620   2.233   2.658 -0.5087  0.3901  0.1295
17555TIP3    H274157   1.573   2.109   2.731  1.9162 -0.5460  0.1563
17556TIP3   OH274158   5.800   5.417  13.779 -0.3631  0.2753  0.3881
17556TIP3    H174159   5.801   5.465  13.862 -0.4511  3.3037 -1.2337
17556TIP3    H274160   5.752   5.474  13.719  2.3478 -0.3012 -2.5752
17557TIP3   OH274161   4.935   1.908   4.616 -0.1056  0.4224  0.1639
17557TIP3    H174162   4.934   1.906   4.712  0.1367  2.7777  0.2554
17557TIP3    H274163   4.855   1.861   4.591 -0.9657  1.0685  1.5668
17558TIP3   OH274164   6.130   1.748   6.160  0.2373  0.4153 -0.5318
17558TIP3    H174165   6.112   1.660   6.193 -0.0790  0.1494 -1.3815
17558TIP3    H274166   6.203   1.780   6.214 -0.0643 -0.1155  0.2001
17559TIP3   OH274167   0.855   0.292  14.486  0.6664 -0.5860 -0.2091
17559TIP3    H174168   0.814   0.375  14.462 -1.5874 -1.4387  0.4327
17559TIP3    H274169   0.832   0.280  14.578 -0.1612 -2.4815 -0.6147
17560TIP3   OH274170   0.578   3.747   5.788 -0.4937 -0.0824  0.4580
17560TIP3    H174171   0.612   3.801   5.716 -0.8910 -0.3835  0.0388
17560TIP3    H274172   0.484   3.764   5.789 -0.4087  0.3926  1.3169
17561TIP3   OH274173   2.846   1.317  13.693 -0.0004 -0.6668  0.3643
17561TIP3    H174174   2.836   1.271  13.609 -2.3511 -1.5704  1.0699
17561TIP3    H274175   2.931   1.288  13.726  2.3485  1.8053 -2.8484
17562TIP3   OH274176   4.773   2.985  16.398 -0.4683  0.2723  0.4862
17562TIP3    H174177   4.687   3.018  16.427 -0.2908  1.1450  0.0570
17562TIP3    H274178   4.824   2.977  16.478 -0.4835  1.1781  0.6029
17563TIP3   OH274179   1.844   2.631  11.160 -0.8117  0.1236 -0.1583
17563TIP3    H174180   1.916   2.681  11.198 -1.5770  1.0985  0.0434
17563TIP3    H274181   1.857   2.542  11.192  0.8895  0.0369 -0.9585
17564TIP3   OH274182   5.657   6.032  17.202 -0.1216 -0.6915 -0.5154
17564TIP3    H174183   5.583   6.093  17.205 -1.5165 -2.0611 -3.1592
17564TIP3    H274184   5.623   5.951  17.240  1.1124 -0.4274  1.2448
17565TIP3   OH274185   1.731   6.210   2.625 -0.3503 -0.4521 -0.4485
17565TIP3    H174186   1.683   6.191   2.706 -1.8720  1.3646 -0.8444
17565TIP3    H274187   1.681   6.163   2.557 -0.7977  0.3419 -0.6820
17566TIP3   OH274188   6.232   0.153  13.117 -0.1343 -0.6360  0.2321
17566TIP3    H174189   6.248   0.199  13.035 -0.5882  1.4928  1.2620
17566TIP3    H274190   6.137   0.139  13.118 -0.6656  2.2993  1.7486
17567TIP3   OH274191   5.028   3.003   1.344  0.0910 -0.0554 -0.3770
17567TIP3    H174192   5.081   2.936   1.386  0.6901  1.1208  0.8003
17567TIP3    H274193   4.974   3.039   1.414 -1.1785 -0.1725 -1.2503
17568TIP3   OH274194   1.452   2.930  13.787 -0.1541 -0.2861 -0.2461
17568TIP3    H174195   1.368   2.887  13.805  0.1278 -1.3926 -1.4016
17568TIP3    H274196   1.485   2.885  13.710  2.8565 -1.8736  1.7865
17569TIP3   OH274197   2.818   1.714   2.578 -0.3103 -0.4705 -0.5677
17569TIP3    H174198   2.785   1.718   2.668  0.1285  0.2874 -0.4286
17569TIP3    H274199   2.825   1.621   2.559 -1.3813 -0.6407 -0.1802
17570TIP3   OH274200   0.054   3.565  11.619  0.1380 -0.1044  0.2293
17570TIP3    H174201   0.105   3.523  11.688 -3.0766 -2.3850  1.4640
17570TIP3    H274202   0.017   3.492  11.569 -1.9504  1.3741 -0.5243
17571TIP3   OH274203   1.401   1.148   3.828 -0.0068  0.0097  0.1882
17571TIP3    H174204   1.320   1.196   3.846  0.0972  0.1921  0.1629
17571TIP3    H274205   1.425   1.175   3.739  0.5125  0.5533  0.4939
17572TIP3   OH274206   1.876   3.160  14.330  0.1861 -0.1000  0.4655
17572TIP3    H174207   1.955   3.213  14.328  0.0124  0.3211  2.5370
17572TIP3    H274208   1.815   3.209  14.385 -0.3662 -1.8782  1.5490
17573TIP3   OH274209   0.463   3.943  13.016 -0.1537  0.1166 -0.2715
17573TIP3    H174210   0.452   3.876  12.949 -1.8263  0.6998 -0.6424
17573TIP3    H274211   0.505   3.898  13.089  0.2498 -0.9177 -1.1213
17574TIP3   OH274212   4.219   2.121  11.834 -0.1221  0.6737  0.2188
17574TIP3    H174213   4.190   2.031  11.844  0.5600  0.2141 -1.5413
17574TIP3    H274214   4.314   2.115  11.822 -0.1232  1.5728 -0.3811
17575TIP3   OH274215   3.281   2.259  15.707 -0.2668  0.3743 -0.3305
17575TIP3    H174216   3.291   2.165  15.693 -0.1644  0.4490 -0.7767
17575TIP3    H274217   3.249   2.293  15.624 -0.2590  0.7399 -0.1875
17576TIP3   OH274218   2.587   4.264   2.988  0.4728 -0.2435  0.5502
17576TIP3    H174219   2.513   4.323   2.973  0.9234  0.5699  1.3592
17576TIP3    H274220   2.574   4.192   2.928  1.3374  1.9920 -2.5805
17577TIP3   OH274221   2.805   0.903  16.238  0.5636 -0.6636  0.0850
17577TIP3    H174222   2.862   0.929  16.166  0.5480  0.9089  0.6022
17577TIP3    H274223   2.770   0.985  16.273  0.6734 -1.3502  1.9745
17578TIP3   OH274224   1.533   0.149   3.312  0.5208 -0.2043 -0.2693
17578TIP3    H174225   1.542   0.086   3.383 -0.6701 -0.9244 -0.7433
17578TIP3    H274226   1.451   0.194   3.330 -0.2402 -0.9983 -1.6378
17579TIP3   OH274227   1.751   2.867   4.660 -0.2827  0.0186 -0.7928
17579TIP3    H174228   1.828   2.923   4.652  0.7314 -0.8163  1.8081
17579TIP3    H274229   1.702   2.904   4.733 -1.4241 -0.5028 -1.2748
17580TIP3   OH274230   5.587   5.200  14.443  0.2134  0.1923 -0.0093
17580TIP3    H174231   5.632   5.138  14.500 -0.4893 -0.3747 -0.0578
17580TIP3    H274232   5.637   5.199  14.362 -0.3903 -1.1037 -0.3796
17581TIP3   OH274233   2.874   4.678  10.875 -0.1800  0.2242 -0.4711
17581TIP3    H174234   2.966   4.703  10.871 -0.4248  1.6432  1.3023
17581TIP3    H274235   2.865   4.634  10.959 -0.2559 -4.2463 -2.5107
17582TIP3   OH274236   4.090   2.437  11.973  0.3139 -0.2189  0.2223
17582TIP3    H174237   4.091   2.349  12.009  0.8091 -0.7252 -1.0073
17582TIP3    H274238   4.142   2.432  11.893 -1.2161  0.7529 -0.8772
17583TIP3   OH274239   2.076   1.360  11.452 -0.3410 -0.5591  0.3255
17583TIP3    H174240   1.997   1.318  11.417 -0.4707 -0.3872  0.4093
17583TIP3    H274241   2.099   1.307  11.529 -0.8915 -0.0961  0.8295
17584TIP3   OH274242   5.110   0.802  17.082  0.7109  0.0220  0.3968
17584TIP3    H174243   5.101   0.825  16.989  0.5622  0.6198  0.5509
17584TIP3    H274244   5.136   0.710  17.082 -2.9622 -1.2186 -0.2112
17585TIP3   OH274245   3.367   1.451  12.855 -0.1953  0.3549  0.7515
17585TIP3    H174246   3.340   1.481  12.767 -0.5742 -0.0789  0.7163
17585TIP3    H274247   3.408   1.366  12.840 -2.0800 -0.6974  1.1941
17586TIP3   OH274248   0.658   2.540   3.561  0.1560 -0.0903  0.1233
17586TIP3    H174249   0.707   2.498   3.632 -0.8868 -0.2500  0.7799
17586TIP3    H274250   0.573   2.496   3.561 -1.6091  2.9267  1.8751
17587TIP3   OH274251   2.028   6.267   4.960  0.1340 -0.3196  0.3367
17587TIP3    H174252   1.983   6.303   4.883 -1.6082 -1.5083  0.7509
17587TIP3    H274253   2.100   6.216   4.923  1.7480  2.2426 -0.3100
17588TIP3   OH274254   4.307   2.016  13.632  0.4885  0.7965 -0.3738
17588TIP3    H174255   4.245   2.054  13.695  0.7341 -0.6050  0.7674
17588TIP3    H274256   4.254   1.955  13.580  1.0024 -1.1028  1.2156
17589TIP3   OH274257   6.698   5.627   2.700 -0.2281 -0.2799 -0.0274
17589TIP3    H174258   6.676   5.681   2.776  0.8555  0.1962 -0.0212
17589TIP3    H274259   6.779   5.666   2.666  0.1460 -1.4245 -0.5063
17590TIP3   OH274260   1.711   1.013   3.739  0.0238  0.2978 -0.0261
17590TIP3    H174261   1.629   0.970   3.763  0.5513  0.6163  2.6426
17590TIP3    H274262   1.759   0.948   3.689 -0.5083 -1.1211  1.2316
17591TIP3   OH274263   1.010   2.097   0.915 -0.7624  0.0338  0.0982
17591TIP3    H174264   0.929   2.111   0.963 -1.2126 -1.2581 -0.2370
17591TIP3    H274265   0.982   2.092   0.823 -0.1171  0.8936 -0.1624
17592TIP3   OH274266   3.506   1.198  11.634 -0.2966 -0.3085  0.1536
17592TIP3    H174267   3.416   1.168  11.648 -0.4600  0.4153  0.7189
17592TIP3    H274268   3.501   1.293  11.643  0.4454 -0.2177 -0.2891
17593TIP3   OH274269   3.839   6.332   2.637 -0.7153  0.2664  0.0640
17593TIP3    H174270   3.810   6.352   2.726  0.0628  0.9551  0.1762
17593TIP3    H274271   3.766   6.360   2.582 -0.6127  1.2354  0.3964
17594TIP3   OH274272   0.279   6.671   2.135  0.3392  0.0532 -0.0437
17594TIP3    H174273   0.252   6.740   2.076 -0.1677 -0.1032  0.0028
17594TIP3    H274274   0.347   6.711   2.190 -1.0281  0.9926  1.0234
17595TIP3   OH274275   0.146   4.990   3.052 -0.2950 -0.1772  0.4375
17595TIP3    H174276   0.177   5.050   2.984 -0.4486 -2.3772 -1.6917
17595TIP3    H274277   0.223   4.937   3.073 -1.0402 -1.6697 -0.4660
17596TIP3   OH274278   1.593   4.220   1.915 -0.0297 -0.3876  0.0986
17596TIP3    H174279   1.627   4.309   1.923 -1.1291  0.1258 -0.7134
17596TIP3    H274280   1.670   4.164   1.925  0.8881  0.6929 -0.7134
17597TIP3   OH274281   2.771   1.236   1.354 -0.0684 -0.5003  0.3061
17597TIP3    H174282   2.817   1.309   1.397 -1.2320  0.7217 -0.4273
17597TIP3    H274283   2.823   1.218   1.276 -0.6221  0.6653 -0.3583
17598TIP3   OH274284   6.520   3.050   3.874 -0.1767  0.1836  0.2876
17598TIP3    H174285   6.441   3.013   3.835  0.6868  0.3061 -1.6856
17598TIP3    H274286   6.560   2.977   3.921  0.4601 -0.9229 -1.8561
17599TIP3   OH274287   2.109   3.810  16.275  0.6818 -0.5697 -0.7941
17599TIP3    H174288   2.139   3.894  16.310  0.3057  0.4440 -2.7330
17599TIP3    H274289   2.017   3.805  16.301  0.9073 -0.7700 -0.0129
17600TIP3   OH274290   4.696   5.757  16.830 -0.0633  0.1092  0.7591
17600TIP3    H174291   4.665   5.757  16.740 -1.1936  0.2415  1.1284
17600TIP3    H274292   4.773   5.814  16.830  0.4951 -0.6046 -0.2813
17601TIP3   OH274293   0.304   3.871   4.033  0.2134 -0.3475 -0.3480
17601TIP3    H174294   0.275   3.805   3.971  1.4272 -0.8464 -0.4080
17601TIP3    H274295   0.395   3.889   4.009  0.5920 -0.2828  1.0416
17602TIP3   OH274296   0.410   5.662   4.695  0.4320  0.1035 -0.9764
17602TIP3    H174297   0.506   5.672   4.693  0.2942  2.6961  0.4044
17602TIP3    H274298   0.378   5.740   4.648 -0.9937  0.4480  0.5048
17603TIP3   OH274299   5.887   3.475   4.137 -0.3696  0.0901 -0.0004
17603TIP3    H174300   5.941   3.483   4.216 -0.3994  2.3841 -0.1246
17603TIP3    H274301   5.911   3.551   4.084  0.8587 -2.1924 -3.0283
17604TIP3   OH274302   1.900   0.859  12.087  0.2358  0.5111  0.7362
17604TIP3    H174303   1.847   0.816  12.153 -2.5599  0.8192 -1.1429
17604TIP3    H274304   1.899   0.952  12.111  1.5585  0.3143  1.6911
17605TIP3   OH274305   3.669   5.309  11.670 -0.5854 -0.8149 -0.1069
17605TIP3    H174306   3.652   5.215  11.669  0.1494 -0.9803  1.0779
17605TIP3    H274307   3.762   5.317  11.648 -0.5512 -0.3953  0.1716
17606TIP3   OH274308   0.150   3.585  16.814 -0.0460  0.5517 -0.7217
17606TIP3    H174309   0.168   3.678  16.802  0.2150  0.5326 -0.5057
17606TIP3    H274310   0.185   3.544  16.735  0.0413  0.6131 -0.7161
17607TIP3   OH274311   0.867   4.088   0.138  0.4790  0.0848  0.1550
17607TIP3    H174312   0.952   4.113   0.175  2.1527 -1.9033 -2.0020
17607TIP3    H274313   0.860   3.994   0.156 -0.8102  0.0351 -0.5343
17608TIP3   OH274314   4.903   5.953  12.265 -0.3889 -0.0260  0.2236
17608TIP3    H174315   4.878   5.861  12.270 -0.8545  0.1016  0.2607
17608TIP3    H274316   4.995   5.954  12.290  0.7528 -0.9919 -3.3427
17609TIP3   OH274317   1.593   3.962  15.429 -0.1183 -0.8470  0.5095
17609TIP3    H174318   1.636   3.885  15.466  1.1751 -0.0427  0.7407
17609TIP3    H274319   1.607   3.955  15.334  2.1099  0.2719  0.6951
17610TIP3   OH274320   5.930   4.436  11.793  0.6871 -0.6855  1.0959
17610TIP3    H174321   5.923   4.530  11.806 -2.6120 -0.7252  0.6554
17610TIP3    H274322   5.847   4.401  11.827  1.2499 -3.2477  0.0723
17611TIP3   OH274323   2.046   0.975   3.396 -0.0134  0.2661 -0.1873
17611TIP3    H174324   2.065   0.915   3.324 -2.3317  0.2885 -0.9237
17611TIP3    H274325   2.127   1.024   3.409  2.0937 -3.1566  0.6625
17612TIP3   OH274326   0.348   2.930  13.073 -0.3516  0.0858  0.1827
17612TIP3    H174327   0.426   2.986  13.079 -1.2306  1.4957 -0.9859
17612TIP3    H274328   0.330   2.906  13.164  1.7784 -0.7923  0.4316
17613TIP3   OH274329   6.125   4.202  15.755 -1.2033 -0.0893  0.5261
17613TIP3    H174330   6.030   4.195  15.756 -1.3134 -0.4207 -2.2652
17613TIP3    H274331   6.144   4.254  15.676  0.9432 -1.1458  0.2697
17614TIP3   OH274332   4.585   2.478   4.646  0.4233  0.2430  0.2367
17614TIP3    H174333   4.655   2.500   4.584 -1.3454 -0.0357 -1.9770
17614TIP3    H274334   4.535   2.558   4.656 -1.8149 -0.7082 -2.2009
17615TIP3   OH274335   5.725   1.188   4.894 -0.8183 -0.7320 -0.0974
17615TIP3    H174336   5.805   1.136   4.885 -0.7983 -0.6782 -0.2361
17615TIP3    H274337   5.654   1.124   4.887 -0.8986 -0.4591 -3.0351
17616TIP3   OH274338   4.506   3.901   5.365  0.0895 -0.2870  0.0202
17616TIP3    H174339   4.523   3.906   5.459 -1.0468 -1.4325  0.3101
17616TIP3    H274340   4.413   3.922   5.356  0.5663  1.6403 -1.0759
17617TIP3   OH274341   1.136   4.656   2.962 -0.2991  0.6303  0.3641
17617TIP3    H174342   1.179   4.739   2.983 -2.5446  1.5040  1.8313
17617TIP3    H274343   1.143   4.605   3.043 -1.6707  0.6605  0.5150
17618TIP3   OH274344   4.043   5.631  15.843 -0.4832  0.3253  0.3752
17618TIP3    H174345   4.137   5.620  15.859 -0.5985 -0.9295  0.2942
17618TIP3    H274346   4.002   5.608  15.926 -0.6834  1.9942  0.7680
17619TIP3   OH274347   1.430   2.206  13.841 -0.0222  0.3083 -0.2364
17619TIP3    H174348   1.482   2.268  13.790  0.4393  0.5906  0.5581
17619TIP3    H274349   1.364   2.260  13.884  0.3099  0.2417  0.3683
17620TIP3   OH274350   3.561   1.553  14.136 -0.0147  0.3832 -0.5196
17620TIP3    H174351   3.601   1.530  14.220 -0.5603  0.9292 -0.0992
17620TIP3    H274352   3.631   1.596  14.087 -0.4745  2.9077  0.8699
17621TIP3   OH274353   3.037   1.923   2.350 -0.3319 -0.1315  0.0765
17621TIP3    H174354   3.114   1.871   2.330 -0.3467 -0.3812  0.6412
17621TIP3    H274355   3.060   2.012   2.323 -0.3574 -0.4477 -1.0227
17622TIP3   OH274356   3.928   3.140  16.768  0.2354 -0.0107 -0.0534
17622TIP3    H174357   3.993   3.115  16.833  2.1458  2.0715 -1.0243
17622TIP3    H274358   3.930   3.236  16.767 -4.3548  0.3549  1.2646
17623TIP3   OH274359   2.931   3.683  14.318 -0.2632 -0.0814 -0.2935
17623TIP3    H174360   2.959   3.596  14.290  0.1434  0.4311 -1.5509
17623TIP3    H274361   2.864   3.667  14.384 -0.4345 -1.3493 -0.7561
17624TIP3   OH274362   0.095   2.009   4.947 -0.2100  0.7485  0.2711
17624TIP3    H174363   0.162   2.077   4.959 -0.3090  0.5101  2.5086
17624TIP3    H274364   0.143   1.927   4.953 -0.3825  0.5928 -0.4376
17625TIP3   OH274365   4.787   5.837  11.511  0.1075  0.0064  0.2267
17625TIP3    H174366   4.845   5.872  11.579  0.9813 -1.5523  0.3266
17625TIP3    H274367   4.699   5.846  11.547  0.2979  1.8277  0.3466
17626TIP3   OH274368   3.820   2.176  11.918  0.0501 -0.5439  0.4559
17626TIP3    H174369   3.726   2.164  11.904 -0.0872  1.2027 -0.3093
17626TIP3    H274370   3.861   2.129  11.846 -0.2934 -0.0758 -0.0499
17627TIP3   OH274371   1.981   1.396  13.418 -0.0538 -0.0553  0.5682
17627TIP3    H174372   2.029   1.425  13.496 -0.0180 -1.2874  1.0229
17627TIP3    H274373   1.969   1.476  13.367  1.1542  0.5371  1.1620
17628TIP3   OH274374   6.401   5.002   5.160  0.2145 -0.3860  0.2265
17628TIP3    H174375   6.394   5.097   5.170 -0.3206 -0.2228 -1.3955
17628TIP3    H274376   6.343   4.967   5.227  0.7495  0.3958  1.1361
17629TIP3   OH274377   3.742   6.643   0.719 -0.3509 -0.1942 -0.0679
17629TIP3    H174378   3.759   6.685   0.635 -0.6835  0.1655  0.0388
17629TIP3    H274379   3.660   6.682   0.749 -0.3381 -0.4633  0.3323
17630TIP3   OH274380   6.524   1.565  13.034 -0.3593 -0.2644  0.2874
17630TIP3    H174381   6.507   1.618  13.112  0.4783  0.0265  0.2822
17630TIP3    H274382   6.524   1.475  13.066 -0.7403 -0.1998  0.4844
17631TIP3   OH274383   2.353   3.008  15.330 -0.1016  0.1858 -0.3089
17631TIP3    H174384   2.323   2.954  15.257 -0.2350 -0.6330  0.3344
17631TIP3    H274385   2.290   2.991  15.400  0.2428  0.6556  0.1258
17632TIP3   OH274386   0.939   3.549  14.674 -0.0531 -0.3100  0.7619
17632TIP3    H174387   0.993   3.617  14.714 -1.0959  0.2545  1.2530
17632TIP3    H274388   0.868   3.596  14.631  0.3624 -0.9826 -0.7381
17633TIP3   OH274389   6.567   1.595   3.306 -0.0988  0.2082  0.6085
17633TIP3    H174390   6.513   1.546   3.368 -1.4916  2.5572  1.3491
17633TIP3    H274391   6.510   1.612   3.231  0.7926 -0.4284 -0.2435
17634TIP3   OH274392   1.722   6.254   0.700 -0.6218 -0.2331  0.3083
17634TIP3    H174393   1.663   6.233   0.773 -2.5992  1.7357 -0.6103
17634TIP3    H274394   1.723   6.174   0.647 -0.8473 -0.9702  1.3660
17635TIP3   OH274395   6.094   0.199   3.371  0.1023  0.1671 -0.1302
17635TIP3    H174396   6.142   0.195   3.288  0.5874 -0.0477  0.1587
17635TIP3    H274397   6.158   0.173   3.437 -0.8408 -1.6884  0.0995
17636TIP3   OH274398   2.530   1.643  13.058 -0.6907  0.1229  0.7442
17636TIP3    H174399   2.535   1.635  12.963  5.6265 -1.6302  0.7648
17636TIP3    H274400   2.495   1.558  13.088 -0.7147 -0.1170  0.0392
17637TIP3   OH274401   4.611   5.114   1.880  0.4422  0.3139 -0.6754
17637TIP3    H174402   4.536   5.056   1.871  1.3151 -1.0334  0.2250
17637TIP3    H274403   4.585   5.178   1.946  0.0404 -0.0847 -0.4431
17638TIP3   OH274404   2.671   5.183  15.020 -0.6273  0.1148  0.1627
17638TIP3    H174405   2.615   5.230  14.958  0.6891 -1.1101 -2.0579
17638TIP3    H274406   2.611   5.121  15.063 -1.5311  0.8677  0.0295
17639TIP3   OH274407   4.810   5.890  13.627 -0.4265 -0.5331 -0.1107
17639TIP3    H174408   4.896   5.850  13.619  1.0398  2.6437 -2.0002
17639TIP3    H274409   4.798   5.901  13.722  1.4048 -0.7337  0.1790
17640TIP3   OH274410   2.259   6.155  14.595 -0.2461  0.3835  0.5642
17640TIP3    H174411   2.326   6.199  14.543 -1.2814 -0.4316 -1.6135
17640TIP3    H274412   2.208   6.226  14.634  0.5164  1.0466  0.3650
17641TIP3   OH274413   3.359   3.359  15.166  0.2278  0.7101  0.4392
17641TIP3    H174414   3.297   3.357  15.239  0.7162 -0.4824  0.8427
17641TIP3    H274415   3.402   3.273  15.168 -0.0901  0.4413 -1.5314
17642TIP3   OH274416   4.956   3.828  11.336 -0.9717  0.0019 -0.1077
17642TIP3    H174417   4.922   3.740  11.351 -2.1096  0.5639  0.6990
17642TIP3    H274418   4.882   3.877  11.300 -0.5844  0.8451  0.2058
17643TIP3   OH274419   0.480   5.830   0.375  0.7246 -0.0202  0.3808
17643TIP3    H174420   0.491   5.749   0.324 -1.7870  0.2002 -0.6391
17643TIP3    H274421   0.568   5.850   0.407  1.9076 -1.6828 -1.5886
17644TIP3   OH274422   2.585   5.672   4.539 -0.0531 -0.2313  0.1973
17644TIP3    H174423   2.673   5.669   4.502  0.0270  1.4879  0.1646
17644TIP3    H274424   2.597   5.659   4.633 -0.1763 -3.7629 -0.1275
17645TIP3   OH274425   5.065   1.009  11.772 -0.0692 -0.2737 -0.2361
17645TIP3    H174426   5.082   1.103  11.763  1.4237 -0.6199 -1.5300
17645TIP3    H274427   5.105   0.985  11.855  0.1709  0.1176 -0.2363
17646TIP3   OH274428   2.728   2.569   4.787 -0.3640  0.4290  0.3735
17646TIP3    H174429   2.808   2.615   4.762  0.2293 -1.3167 -1.2146
17646TIP3    H274430   2.758   2.501   4.847 -0.5895 -0.3376 -0.3563
17647TIP3   OH274431   5.798   2.011   5.758  0.3707  0.0666 -0.5851
17647TIP3    H174432   5.816   2.079   5.694 -1.0124 -0.0015 -1.0595
17647TIP3    H274433   5.765   2.057   5.835  1.1430  0.0691 -0.2461
17648TIP3   OH274434   0.850   2.278   3.969 -0.4307  0.2903 -0.0967
17648TIP3    H174435   0.871   2.306   4.058 -0.5601 -1.3960  0.5155
17648TIP3    H274436   0.910   2.205   3.953 -1.0504 -0.0326 -1.0289
17649TIP3   OH274437   2.405   3.636   2.241 -0.0586 -0.6414  0.0523
17649TIP3    H174438   2.321   3.630   2.194  0.0231  2.0938 -0.6497
17649TIP3    H274439   2.470   3.642   2.171  0.2034  2.0826  0.4305
17650TIP3   OH274440   1.602   6.575  12.673 -0.6163  0.0200  0.0247
17650TIP3    H174441   1.515   6.536  12.674  0.1580 -1.8462 -0.5915
17650TIP3    H274442   1.612   6.612  12.586 -0.4092 -0.7517 -0.2884
17651TIP3   OH274443   5.686   2.746   4.913 -0.2553 -0.0461 -0.1103
17651TIP3    H174444   5.677   2.666   4.862 -2.3267  1.4163 -2.2656
17651TIP3    H274445   5.771   2.782   4.887  0.5579 -1.3237  0.6613
17652TIP3   OH274446   6.396   3.457   3.104  0.4822 -0.3250  0.0487
17652TIP3    H174447   6.432   3.437   3.017  0.4914  0.0091 -0.0247
17652TIP3    H274448   6.350   3.540   3.092  2.2779  0.8381  0.8688
17653TIP3   OH274449   4.247   5.418  15.614 -0.3941  1.0364 -0.6002
17653TIP3    H174450   4.237   5.444  15.705  2.1145  1.3934 -0.3701
17653TIP3    H274451   4.220   5.495  15.564 -1.2421  1.0317 -0.1642
17654TIP3   OH274452   1.964   5.191  12.910 -0.1960  0.2008  0.3846
17654TIP3    H174453   2.053   5.226  12.897  0.2746 -0.6541  1.2011
17654TIP3    H274454   1.918   5.261  12.957  1.1044 -0.6675  3.1690
17655TIP3   OH274455   2.124   2.430  15.373 -0.0952 -0.8845 -0.0530
17655TIP3    H174456   2.080   2.515  15.370 -2.7149 -2.1719 -2.0091
17655TIP3    H274457   2.157   2.417  15.284  1.0571 -1.5682  0.4483
17656TIP3   OH274458   6.299   4.226   1.845  0.2553 -0.0304  0.0311
17656TIP3    H174459   6.323   4.312   1.809  2.0829  0.0108  1.2214
17656TIP3    H274460   6.346   4.221   1.928 -0.1686 -2.0171  0.1993
17657TIP3   OH274461   6.809   2.359   3.631  0.4573 -0.4755 -0.6284
17657TIP3    H174462   6.767   2.441   3.656 -2.9857 -1.8802 -1.2070
17657TIP3    H274463   6.801   2.356   3.536  1.3682 -1.0685 -0.6949
17658TIP3   OH274464   4.040   5.158   4.422  0.8673  0.2166  0.2809
17658TIP3    H174465   4.016   5.250   4.435  0.5918 -0.0361  1.7300
17658TIP3    H274466   4.108   5.142   4.488  0.8999 -0.6150  0.0530
17659TIP3   OH274467   4.684   2.386   1.197  0.5989  0.1427  0.1210
17659TIP3    H174468   4.752   2.437   1.240  0.2483 -0.5345  1.5490
17659TIP3    H274469   4.674   2.426   1.111  1.9409  1.0043  0.3438
17660TIP3   OH274470   6.479   4.032   2.707  0.3469  0.0064 -0.2360
17660TIP3    H174471   6.443   4.114   2.672  0.3454  0.3231  0.4809
17660TIP3    H274472   6.540   4.060   2.775 -2.6612 -0.5716  3.0033
17661TIP3   OH274473   1.072   6.751  13.530 -0.6934  0.9831  0.0231
17661TIP3    H174474   1.141   6.737  13.594 -0.6595 -2.0387 -0.5415
17661TIP3    H274475   0.990   6.736  13.578 -1.0037  3.3319  0.3843
17662TIP3   OH274476   1.936   2.086  11.315  0.7352 -0.1269 -0.2447
17662TIP3    H174477   1.998   2.013  11.320  0.3064 -0.5648 -1.0316
17662TIP3    H274478   1.877   2.073  11.389  0.2486 -0.9847 -0.7629
17663TIP3   OH274479   6.230   1.307  12.561 -0.0205 -0.0036 -0.0665
17663TIP3    H174480   6.254   1.283  12.472 -0.9859 -0.5371 -0.1963
17663TIP3    H274481   6.139   1.336  12.555 -0.3803 -0.8712  0.8741
17664TIP3   OH274482   5.803   6.724  11.601  0.0913  0.5657 -0.7167
17664TIP3    H174483   5.812   6.817  11.624  0.1450  0.5375 -0.6221
17664TIP3    H274484   5.889   6.700  11.566  0.5259  0.2036  0.5242
17665TIP3   OH274485   4.991   0.365   4.104 -0.4372  0.2875 -0.4366
17665TIP3    H174486   5.003   0.275   4.076  0.0617  0.6197 -1.3139
17665TIP3    H274487   5.000   0.362   4.200  1.3833 -0.3289 -0.5998
17666TIP3   OH274488   1.572   0.059   0.025 -0.2000 -0.2174  0.2577
17666TIP3    H174489   1.610   0.028   0.107  1.1593  1.6425  0.3909
17666TIP3    H274490   1.624   0.135   0.001 -0.3649 -0.8461 -2.4986
17667TIP3   OH274491   0.389   0.805  12.547  0.3485 -0.8793  0.6132
17667TIP3    H174492   0.297   0.817  12.571  0.7137  0.4205  1.4559
17667TIP3    H274493   0.414   0.887  12.505  1.6464 -0.4405  2.1654
17668TIP3   OH274494   4.488   0.514  11.693 -0.2946 -0.5271 -0.3325
17668TIP3    H174495   4.464   0.603  11.665  0.0368 -0.7716 -1.4344
17668TIP3    H274496   4.498   0.521  11.788 -1.5005  0.3253 -0.2475
17669TIP3   OH274497   4.664   2.483   3.498  0.9938 -0.3296 -0.4920
17669TIP3    H174498   4.745   2.516   3.537  0.5120  0.9850 -0.5654
17669TIP3    H274499   4.666   2.389   3.516  1.7525 -0.0715  0.9533
17670TIP3   OH274500   2.833   2.073  15.599  0.0850 -0.3337  0.2350
17670TIP3    H174501   2.753   2.022  15.611  0.9847 -2.0844 -0.9458
17670TIP3    H274502   2.819   2.122  15.518  0.3675 -0.9648 -0.1979
17671TIP3   OH274503   2.210   5.493   4.811  0.0783 -0.1389 -0.7872
17671TIP3    H174504   2.241   5.503   4.721  0.4280  0.0354 -0.6504
17671TIP3    H274505   2.174   5.579   4.834 -1.2313 -0.5528 -1.2069
17672TIP3   OH274506   6.640   5.475   5.464 -0.1010 -0.1033 -0.2898
17672TIP3    H174507   6.601   5.544   5.410  0.8105 -0.5405 -1.5628
17672TIP3    H274508   6.583   5.468   5.540 -1.1989  0.8261 -1.0058
17673TIP3   OH274509   0.724   1.649  12.660 -0.4989 -0.5858 -0.3682
17673TIP3    H174510   0.633   1.639  12.690 -0.9874  0.5544 -1.3778
17673TIP3    H274511   0.719   1.716  12.592  1.1431 -0.3681 -0.3019
17674TIP3   OH274512   4.884   4.838   3.798  0.1558  0.0501  0.2972
17674TIP3    H174513   4.948   4.909   3.808  0.8599 -0.3316 -1.2601
17674TIP3    H274514   4.932   4.769   3.751 -1.2269 -0.5052 -0.3447
17675TIP3   OH274515   0.362   4.780   3.539 -0.2132  0.3060  0.1539
17675TIP3    H174516   0.362   4.868   3.500  0.8801  0.0014 -0.5673
17675TIP3    H274517   0.423   4.730   3.485 -1.4465 -1.1385  0.0378
17676TIP3   OH274518   1.861   2.522  15.208  0.1765  0.7100  0.1245
17676TIP3    H174519   1.843   2.524  15.302 -0.1252  1.9222  0.0557
17676TIP3    H274520   1.851   2.613  15.179  0.7042  0.4331 -1.0003
17677TIP3   OH274521   4.527   3.874   2.845 -0.0658 -0.2589  0.1561
17677TIP3    H174522   4.520   3.800   2.905  0.7071 -0.5214 -0.0647
17677TIP3    H274523   4.479   3.944   2.889 -0.6513 -0.8306  0.4511
17678TIP3   OH274524   2.970   3.404  12.120  0.2061 -0.1397 -0.1411
17678TIP3    H174525   2.998   3.419  12.030  0.5844  3.9683  0.4936
17678TIP3    H274526   3.046   3.362  12.162  1.5250  1.3773 -0.9006
17679TIP3   OH274527   3.053   3.342   5.317  0.0873  0.6699  0.7124
17679TIP3    H174528   3.016   3.362   5.403  0.1285  0.9488  0.6683
17679TIP3    H274529   3.142   3.379   5.321  0.5043 -0.3354  0.9576
17680TIP3   OH274530   6.628   6.723   1.095 -0.3883  0.3069 -0.2203
17680TIP3    H174531   6.583   6.673   1.163 -1.8578  1.3908 -0.3489
17680TIP3    H274532   6.561   6.783   1.061  0.7851  0.9874 -1.4233
17681TIP3   OH274533   5.899   1.945   3.379 -0.1753 -0.1282  0.5112
17681TIP3    H174534   5.937   1.880   3.321  0.6191 -0.4556  1.3774
17681TIP3    H274535   5.906   1.907   3.466 -2.5261 -0.2187  0.7427
17682TIP3   OH274536   4.924   6.636  15.593  0.2819 -0.0254 -0.5693
17682TIP3    H174537   4.982   6.562  15.577  1.3087  0.4813  0.6208
17682TIP3    H274538   4.957   6.705  15.536 -0.0892 -0.1924 -0.9887
17683TIP3   OH274539   1.113   4.396  15.255  0.2233  0.2071  0.1873
17683TIP3    H174540   1.065   4.314  15.244  0.6790 -0.0062 -0.2919
17683TIP3    H274541   1.187   4.373  15.312  0.2918  0.3112  0.1412
17684TIP3   OH274542   5.244   4.102  14.841 -0.2087  0.5335  0.4342
17684TIP3    H174543   5.217   4.097  14.933 -0.9676  1.0214  0.2419
17684TIP3    H274544   5.320   4.044  14.835 -0.3281  0.2814  1.3069
17685TIP3   OH274545   2.091   5.081   0.266  0.6320 -0.0226 -0.5892
17685TIP3    H174546   2.126   4.993   0.277 -0.6492 -0.3060  2.0531
17685TIP3    H274547   2.062   5.084   0.174  1.4574 -2.0380 -0.9678
17686TIP3   OH274548   5.580   4.182  14.636 -0.1518  0.2597 -0.3437
17686TIP3    H174549   5.545   4.171  14.547 -0.4776 -1.0750 -0.0806
17686TIP3    H274550   5.528   4.253  14.673 -0.3163  0.5322 -1.0676
17687TIP3   OH274551   6.292   0.881  13.050  0.4640 -0.1581  0.9468
17687TIP3    H174552   6.296   0.939  13.126 -1.4189 -0.9718  1.7396
17687TIP3    H274553   6.260   0.936  12.979  1.5455  0.4382  0.9028
17688TIP3   OH274554   3.929   1.926   5.982 -0.0253 -0.2835  0.0271
17688TIP3    H174555   3.907   1.998   6.041 -1.6502 -1.4622  0.9139
17688TIP3    H274556   4.020   1.944   5.956  0.9110  0.0947  3.1593
17689TIP3   OH274557   1.047   2.223  15.182 -0.8668  0.3791  0.1704
17689TIP3    H174558   1.101   2.261  15.252 -3.1009  1.8783  1.1894
17689TIP3    H274559   0.964   2.204  15.225 -1.8839  0.1330 -1.8343
17690TIP3   OH274560   1.141   3.106   2.488  0.0444  0.1893  0.0547
17690TIP3    H174561   1.079   3.147   2.549  1.8662  2.3684  0.5901
17690TIP3    H274562   1.090   3.090   2.409 -1.5153  0.6788  0.9153
17691TIP3   OH274563   1.393   2.673  10.653 -0.3582  0.3758 -0.0169
17691TIP3    H174564   1.311   2.711  10.622 -0.1165  0.8492 -0.0866
17691TIP3    H274565   1.455   2.746  10.653 -0.0548  0.1245  0.4743
17692TIP3   OH274566   4.066   5.612   5.630  0.8168  0.2118 -0.0681
17692TIP3    H174567   3.996   5.595   5.693  1.4199  0.5879  0.7250
17692TIP3    H274568   4.133   5.659   5.680  1.9643 -0.7772 -0.6059
17693TIP3   OH274569   3.514   4.888   5.546  0.7419 -0.1938  0.6855
17693TIP3    H174570   3.495   4.794   5.537  1.0913 -0.4116  1.9725
17693TIP3    H274571   3.581   4.892   5.614 -0.0041  1.0630  1.3796
17694TIP3   OH274572   5.024   2.797   4.093 -0.0093 -0.0278 -0.0748
17694TIP3    H174573   4.932   2.781   4.073  0.1083  0.7257 -1.2533
17694TIP3    H274574   5.028   2.889   4.119  0.5357  0.2021 -0.9194
17695TIP3   OH274575   3.186   6.201   5.744 -0.3983 -0.6216  0.2993
17695TIP3    H174576   3.272   6.222   5.780 -0.0320 -2.7534  0.7962
17695TIP3    H274577   3.197   6.206   5.649  0.0977 -0.3028  0.3722
17696TIP3   OH274578   5.888   1.570   3.585  0.1147  0.6124 -0.2702
17696TIP3    H174579   5.845   1.583   3.501 -0.4872  0.9538  0.0881
17696TIP3    H274580   5.979   1.596   3.569  0.3454 -0.6556 -1.1752
17697TIP3   OH274581   5.857   2.534  12.437 -0.2679  0.0189  0.3416
17697TIP3    H174582   5.847   2.473  12.509 -1.6359  0.4343  0.5507
17697TIP3    H274583   5.893   2.482  12.365 -0.6227 -0.8381  0.7697
17698TIP3   OH274584   2.972   0.128  11.591  0.5295  0.6578 -0.0843
17698TIP3    H174585   2.982   0.125  11.496  0.4265 -2.3372 -0.1136
17698TIP3    H274586   2.932   0.043  11.612  2.8167  0.1713  2.8571
17699TIP3   OH274587   4.365   2.415  11.293  0.1126 -0.2005 -0.2963
17699TIP3    H174588   4.353   2.389  11.202 -2.2284 -0.8044  0.1263
17699TIP3    H274589   4.283   2.459  11.316 -0.2001 -1.8973  2.1008
17700TIP3   OH274590   5.147   4.892  13.697 -0.1076  0.0803 -0.0763
17700TIP3    H174591   5.220   4.950  13.721 -0.6520  0.3652  0.9170
17700TIP3    H274592   5.069   4.938  13.725 -0.5897 -0.8768  0.1904
17701TIP3   OH274593   5.003   3.844   6.296  0.6260 -0.0103  0.6269
17701TIP3    H174594   4.977   3.768   6.348  0.2978  0.9052  1.8671
17701TIP3    H274595   5.093   3.863   6.324  1.0990 -0.5851 -0.4766
17702TIP3   OH274596   5.136   2.155   4.515 -0.4690 -0.6873 -0.2677
17702TIP3    H174597   5.077   2.101   4.462 -0.3232  0.6448 -1.8464
17702TIP3    H274598   5.174   2.217   4.453  2.8768 -1.6639  0.6052
17703TIP3   OH274599   1.117   1.356  12.611 -0.2806 -0.6940 -0.1379
17703TIP3    H174600   1.073   1.405  12.681  0.5863 -3.3216  2.4319
17703TIP3    H274601   1.205   1.392  12.608 -0.9507  0.9460 -1.5429
17704TIP3   OH274602   6.806   3.863  13.022  0.2841  1.0636 -0.0320
17704TIP3    H174603   6.859   3.936  13.055  0.4735  2.0884 -2.4180
17704TIP3    H274604   6.849   3.785  13.056 -1.1246  1.9097  4.4115
17705TIP3   OH274605   3.158   6.600  17.072  0.1114 -0.1769 -0.0593
17705TIP3    H174606   3.197   6.681  17.039 -0.7459 -0.4270 -1.8092
17705TIP3    H274607   3.090   6.628  17.133  0.2798  0.3850 -0.1266
17706TIP3   OH274608   2.310   3.145  11.408 -0.5930  0.1031 -0.8084
17706TIP3    H174609   2.300   3.059  11.368  0.2418  0.4966 -1.9186
17706TIP3    H274610   2.232   3.156  11.462 -1.5115 -0.6744 -1.9342
17707TIP3   OH274611   1.641   4.593  13.302  0.1371  0.2202  0.2704
17707TIP3    H174612   1.597   4.515  13.268 -0.1324  1.1358 -1.6404
17707TIP3    H274613   1.651   4.650  13.225  2.3522  1.1304  1.1405
17708TIP3   OH274614   0.140   5.077  11.150  0.0960  0.1505 -0.3562
17708TIP3    H174615   0.112   5.078  11.242 -0.7809  1.3165 -0.6153
17708TIP3    H274616   0.170   5.166  11.133 -0.9801  0.3139 -1.5483
17709TIP3   OH274617   5.152   1.892   3.119 -0.4921  0.3349  0.0793
17709TIP3    H174618   5.118   1.859   3.036  2.8066  1.0010 -1.7441
17709TIP3    H274619   5.179   1.814   3.167  1.5136 -0.0132 -1.4682
17710TIP3   OH274620   5.107   6.112   0.430  0.3832 -0.5784 -0.0361
17710TIP3    H174621   5.134   6.168   0.503  1.7687 -1.2248 -0.0230
17710TIP3    H274622   5.182   6.056   0.413 -0.6343 -1.8127 -0.6686
17711TIP3   OH274623   5.199   1.171   5.723 -0.3837 -0.5472 -0.2089
17711TIP3    H174624   5.145   1.205   5.794  0.1684  0.8098 -0.4065
17711TIP3    H274625   5.157   1.204   5.643  0.3094 -0.0877 -0.3943
17712TIP3   OH274626   2.693   4.170   4.488 -0.2576  0.2033 -0.3771
17712TIP3    H174627   2.614   4.119   4.475 -0.2868  0.5648 -1.8517
17712TIP3    H274628   2.763   4.115   4.452 -0.0396  0.4640 -0.3554
17713TIP3   OH274629   4.606   6.735  14.157  0.3501  0.2009 -0.4670
17713TIP3    H174630   4.677   6.733  14.092 -0.3464  0.3535 -1.2528
17713TIP3    H274631   4.529   6.707  14.108 -0.0726 -0.3099  0.4657
17714TIP3   OH274632   1.524   2.780   4.243 -0.0457  0.0068 -0.6351
17714TIP3    H174633   1.573   2.721   4.186 -0.1618 -1.0430  0.3091
17714TIP3    H274634   1.542   2.748   4.332 -0.2859  1.2744 -0.1039
17715TIP3   OH274635   0.760   0.083  16.290 -0.1389  0.2578  0.8689
17715TIP3    H174636   0.689   0.147  16.276 -0.3519 -0.3640 -1.4447
17715TIP3    H274637   0.840   0.135  16.288 -0.3366  0.5478 -0.5778
17716TIP3   OH274638   4.965   4.322   5.505 -0.1905 -0.0445  0.6640
17716TIP3    H174639   5.034   4.358   5.561  0.3648 -0.3174  0.1771
17716TIP3    H274640   4.957   4.385   5.433  1.9637 -1.5727 -1.0981
17717TIP3   OH274641   6.621   5.741   0.551  0.1974  0.1534  0.0390
17717TIP3    H174642   6.595   5.648   0.546  0.0383  0.1067  1.3278
17717TIP3    H274643   6.717   5.739   0.549  0.1819  0.1140 -1.8208
17718TIP3   OH274644   0.781   1.923  11.126 -0.1602  0.3410 -0.2288
17718TIP3    H174645   0.751   1.999  11.076 -0.8945 -0.0425 -0.3880
17718TIP3    H274646   0.765   1.849  11.067  0.6245  0.0683 -0.1064
17719TIP3   OH274647   6.492   1.303  11.262  0.3143 -0.1987 -0.3034
17719TIP3    H174648   6.541   1.221  11.248 -0.9065 -0.5675 -3.3513
17719TIP3    H274649   6.499   1.348  11.178 -0.8564  1.8389  0.6494
17720TIP3   OH274650   5.680   1.823  12.955  0.3376 -0.0706 -0.3835
17720TIP3    H174651   5.772   1.848  12.953  0.0026  1.2708 -0.0676
17720TIP3    H274652   5.678   1.741  13.004  1.5834 -1.2477 -2.1803
17721TIP3   OH274653   1.524   0.779   6.150  0.2796 -0.2060  0.0314
17721TIP3    H174654   1.483   0.858   6.186 -0.0225 -0.5732  0.5000
17721TIP3    H274655   1.509   0.785   6.055  0.3991  0.3792  0.0474
17722TIP3   OH274656   1.813   2.610  13.513  0.3638 -0.3715 -0.2220
17722TIP3    H174657   1.722   2.628  13.536  1.0488  0.4374  2.0665
17722TIP3    H274658   1.851   2.697  13.496  0.9922 -0.5931  0.0221
17723TIP3   OH274659   6.270   0.176   5.283 -0.0726  0.1322 -0.6620
17723TIP3    H174660   6.230   0.130   5.209 -1.0168 -0.5755  0.2787
17723TIP3    H274661   6.268   0.113   5.355  1.2120  0.6699 -0.1254
17724TIP3   OH274662   1.494   1.359   4.108 -0.2379  0.5154 -0.1502
17724TIP3    H174663   1.446   1.384   4.187  0.2205 -0.7239  0.5632
17724TIP3    H274664   1.428   1.359   4.039 -0.8485  0.7511  0.4159
17725TIP3   OH274665   1.629   0.163  16.875 -0.3419  0.1222 -0.5956
17725TIP3    H174666   1.655   0.084  16.828 -0.3883 -0.9263  1.0315
17725TIP3    H274667   1.688   0.167  16.950 -3.0335 -0.8916  1.8035
17726TIP3   OH274668   1.794   2.589   3.068 -0.6905 -0.4139  0.1903
17726TIP3    H174669   1.735   2.536   3.122 -0.5634 -1.3468 -0.5617
17726TIP3    H274670   1.765   2.573   2.978 -1.8203  2.2386 -0.0077
17727TIP3   OH274671   5.546   2.801   4.144 -0.5168 -0.1483 -0.1858
17727TIP3    H174672   5.499   2.812   4.061 -0.3152  1.0920 -0.1677
17727TIP3    H274673   5.613   2.735   4.125 -2.5573 -2.3935 -0.0481
17728TIP3   OH274674   4.547   0.226   5.285 -0.0855 -0.5005  0.2267
17728TIP3    H174675   4.596   0.298   5.325 -1.0685 -0.1465  0.8163
17728TIP3    H274676   4.613   0.176   5.238  0.8293  0.0417  0.8965
17729TIP3   OH274677   1.302   2.878   2.429  0.6375  0.0756  0.5145
17729TIP3    H174678   1.229   2.820   2.448  0.6886 -0.1713 -0.0297
17729TIP3    H274679   1.264   2.966   2.429  0.1121 -0.1432 -0.8749
17730TIP3   OH274680   4.759   5.633  16.307  0.2154  0.3945  0.5748
17730TIP3    H174681   4.706   5.582  16.369 -1.0823 -1.1594 -1.6592
17730TIP3    H274682   4.839   5.582  16.296 -0.3908 -0.4035 -0.4202
17731TIP3   OH274683   4.424   1.725  12.991 -0.0130  0.2911  0.0096
17731TIP3    H174684   4.341   1.772  12.998 -0.6450 -0.8836  0.6418
17731TIP3    H274685   4.466   1.737  13.076 -0.6180 -1.0402  0.5309
17732TIP3   OH274686   1.366   6.780   1.149  0.4701 -0.0899  0.5012
17732TIP3    H174687   1.418   6.732   1.084  2.0258 -0.7449  2.1406
17732TIP3    H274688   1.374   6.728   1.229 -1.3153  0.7417  1.2808
17733TIP3   OH274689   0.879   4.378   0.779 -0.4548  0.4297  0.4512
17733TIP3    H174690   0.913   4.289   0.791  0.0138  0.2198 -1.9358
17733TIP3    H274691   0.888   4.419   0.865  1.7653 -1.0145  0.9885
17734TIP3   OH274692   4.828   4.307  16.856  0.0773 -0.1695 -0.1678
17734TIP3    H174693   4.869   4.288  16.772 -0.8588 -0.2615 -0.6215
17734TIP3    H274694   4.867   4.389  16.884  0.8273 -0.4394 -0.4008
17735TIP3   OH274695   0.391   5.941  13.695  0.3543  0.8996 -0.5337
17735TIP3    H174696   0.367   5.851  13.720  2.0153  0.3618 -0.7310
17735TIP3    H274697   0.308   5.982  13.670 -0.7247  0.0642  1.4734
17736TIP3   OH274698   5.428   0.719   6.029 -0.5349 -0.1125 -0.3359
17736TIP3    H174699   5.390   0.756   5.949 -0.0802 -1.0747 -1.0244
17736TIP3    H274700   5.358   0.725   6.094 -0.7967  1.0128 -0.6944
17737TIP3   OH274701   6.061   5.503  12.099  0.2896 -0.0200  0.0662
17737TIP3    H174702   6.001   5.552  12.156 -0.0867 -1.2509  0.7721
17737TIP3    H274703   6.100   5.437  12.157  1.0271 -0.3421 -0.7830
17738TIP3   OH274704   6.258   0.086  12.818 -0.2204  0.6024 -0.4667
17738TIP3    H174705   6.172   0.111  12.784 -0.2811  1.4029  0.2590
17738TIP3    H274706   6.321   0.129  12.759 -0.3070  0.0221 -0.9928
17739TIP3   OH274707   3.856   2.047   5.699 -0.2391 -0.1300 -0.4667
17739TIP3    H174708   3.840   1.980   5.766  0.0464  0.9195  0.6796
17739TIP3    H274709   3.918   2.108   5.739  0.4580  0.1876 -1.9332
17740TIP3   OH274710   0.870   0.486   3.888 -0.3449 -0.0627 -0.2820
17740TIP3    H174711   0.929   0.461   3.960  0.2071 -2.5724 -1.4887
17740TIP3    H274712   0.920   0.552   3.839  0.8227 -0.9796 -0.3787
17741TIP3   OH274713   2.367   0.556  13.253  0.1978 -0.0310 -0.3627
17741TIP3    H174714   2.435   0.609  13.294  0.2854  0.3196 -0.9453
17741TIP3    H274715   2.285   0.593  13.284  0.2615  0.3223 -0.6122
17742TIP3   OH274716   4.547   2.721   4.852  0.1352  0.1529  0.2782
17742TIP3    H174717   4.595   2.800   4.874  0.8907 -0.4768  0.9599
17742TIP3    H274718   4.596   2.650   4.894  0.2569 -0.8402 -1.4258
17743TIP3   OH274719   0.364   5.205  16.168 -0.0231  0.8588 -0.2069
17743TIP3    H174720   0.406   5.272  16.220  2.4952 -0.3476 -0.5384
17743TIP3    H274721   0.324   5.253  16.095  1.5187  2.0322 -0.3268
17744TIP3   OH274722   3.992   6.601   4.982 -0.2069 -0.7499  0.4336
17744TIP3    H174723   4.061   6.536   4.993  0.3967 -0.1181  0.4359
17744TIP3    H274724   4.017   6.649   4.903  1.0023  1.4385  2.0339
17745TIP3   OH274725   5.594   4.093  11.455 -0.2850 -0.3294  0.3426
17745TIP3    H174726   5.651   4.159  11.417 -0.1417 -0.9004 -0.4516
17745TIP3    H274727   5.570   4.129  11.541  1.2782 -0.1010  0.7073
17746TIP3   OH274728   0.618   6.354  14.540  0.0651  0.0057  0.2993
17746TIP3    H174729   0.626   6.359  14.445 -0.3738  0.3679  0.2745
17746TIP3    H274730   0.568   6.433  14.564 -0.2243 -0.3161  0.7794
17747TIP3   OH274731   6.393   5.275  14.796 -0.1556 -0.6709 -0.1368
17747TIP3    H174732   6.299   5.290  14.812 -0.0899 -1.6446  1.4060
17747TIP3    H274733   6.398   5.188  14.759  0.2118 -1.2059  1.1123
17748TIP3   OH274734   6.047   5.608   4.723 -0.1888  0.2680  0.0390
17748TIP3    H174735   5.967   5.562   4.698 -0.8414  1.3760  0.0442
17748TIP3    H274736   6.036   5.696   4.688 -0.2195  1.2643  2.4374
17749TIP3   OH274737   4.954   1.530  14.421  0.4833  0.3411 -0.2243
17749TIP3    H174738   4.927   1.534  14.513  2.6683 -0.1628  0.5010
17749TIP3    H274739   5.001   1.612  14.406  2.8305 -0.8581  0.0963
17750TIP3   OH274740   2.154   1.571   3.797  0.0560  0.0352  0.1091
17750TIP3    H174741   2.094   1.642   3.823  0.6244  0.6022 -0.1069
17750TIP3    H274742   2.225   1.575   3.861  0.8060  0.5933 -0.7515
17751TIP3   OH274743   0.456   2.217   5.513  0.4874  0.4601  0.0507
17751TIP3    H174744   0.409   2.237   5.432 -0.2194  0.2121  0.3819
17751TIP3    H274745   0.475   2.302   5.552  1.2276  0.5943 -0.5907
17752TIP3   OH274746   6.569   3.278  15.208 -0.0378 -0.1202  0.4542
17752TIP3    H174747   6.482   3.244  15.188 -0.3973  0.3299  1.1773
17752TIP3    H274748   6.627   3.202  15.202 -0.4812 -0.4242 -0.0274
17753TIP3   OH274749   2.712   1.222   5.078 -0.3145 -0.1149 -0.6299
17753TIP3    H174750   2.705   1.133   5.113  0.1665  0.5207  1.2152
17753TIP3    H274751   2.804   1.231   5.052 -0.2710 -0.0482 -0.4578
17754TIP3   OH274752   5.027   0.093   4.676 -0.3749 -0.0271 -0.5139
17754TIP3    H174753   4.958   0.057   4.620 -0.4523 -1.1395  0.2698
17754TIP3    H274754   5.050   0.022   4.735  0.3903  0.8160  0.2392
17755TIP3   OH274755   1.453   1.462  13.868  0.6605  0.1354 -0.4178
17755TIP3    H174756   1.490   1.401  13.931  1.6774  0.9276 -0.2192
17755TIP3    H274757   1.432   1.540  13.919  1.9041  0.9495 -1.1143
17756TIP3   OH274758   3.204   5.613   2.677  0.2627 -0.2107  0.3369
17756TIP3    H174759   3.231   5.702   2.699 -1.9863  0.2577  1.4761
17756TIP3    H274760   3.267   5.556   2.721  1.0082  0.8063  0.6013
17757TIP3   OH274761   2.316   0.107  17.059 -0.3116 -0.9084 -0.4133
17757TIP3    H174762   2.393   0.142  17.104 -1.1554  1.8062 -0.9060
17757TIP3    H274763   2.280   0.042  17.119  1.8046 -1.5562  0.2402
17758TIP3   OH274764   6.776   6.424   2.472 -0.3547 -0.7927  0.0801
17758TIP3    H174765   6.684   6.403   2.488 -0.5831  0.1719  0.0836
17758TIP3    H274766   6.824   6.369   2.535 -1.0232 -0.0141  1.3158
17759TIP3   OH274767   0.243   6.422   2.596 -0.5295 -0.2611 -0.4182
17759TIP3    H174768   0.243   6.440   2.501 -0.4774  1.0675 -0.1884
17759TIP3    H274769   0.333   6.397   2.615 -0.9560 -2.4830 -1.0259
17760TIP3   OH274770   0.168   3.103   4.406 -0.0682  0.4440  0.0358
17760TIP3    H174771   0.160   3.025   4.461 -1.0027 -0.1424 -0.8766
17760TIP3    H274772   0.180   3.175   4.467 -0.1311 -0.3032  0.9515
17761TIP3   OH274773   1.975   0.747   5.185 -0.0522 -0.6777  0.2351
17761TIP3    H174774   1.888   0.786   5.172  0.2183 -0.3461 -0.5863
17761TIP3    H274775   2.003   0.721   5.097  1.2590  0.4348  0.3006
17762TIP3   OH274776   6.066   3.819   3.198  0.4525 -0.6233  0.5058
17762TIP3    H174777   6.074   3.914   3.187 -1.8243 -0.5369 -1.4236
17762TIP3    H274778   5.971   3.804   3.204  0.8081 -2.7035  1.8266
17763TIP3   OH274779   3.043   5.091   3.587  0.2479  0.6098  0.0227
17763TIP3    H174780   3.119   5.142   3.614 -2.1487  2.1881  4.8835
17763TIP3    H274781   3.059   5.003   3.623  0.6776  0.2851 -0.9288
17764TIP3   OH274782   1.285   1.935  11.808  0.6334 -0.2026 -0.1369
17764TIP3    H174783   1.199   1.936  11.851  1.1547  0.1986  0.9527
17764TIP3    H274784   1.342   1.890  11.871  0.9657 -1.5870 -1.3865
17765TIP3   OH274785   2.995   0.461   6.237  0.2661  0.2232 -0.1650
17765TIP3    H174786   2.914   0.481   6.284 -0.3555 -0.0703 -1.0789
17765TIP3    H274787   3.053   0.535   6.257 -0.5024  0.8228 -0.1133
17766TIP3   OH274788   4.102   3.350   4.314 -0.0765 -0.4341  0.6359
17766TIP3    H174789   4.146   3.409   4.374 -0.0005 -0.2793  0.4269
17766TIP3    H274790   4.171   3.294   4.280 -0.0950 -0.4158  0.5682
17767TIP3   OH274791   5.788   4.214  16.081  0.2778 -0.5112  0.4106
17767TIP3    H174792   5.751   4.149  16.141  0.3706 -0.7847  0.1728
17767TIP3    H274793   5.819   4.163  16.007 -1.1557 -0.0562 -0.5532
17768TIP3   OH274794   1.947   5.869  13.985 -0.1667  0.5977 -0.2292
17768TIP3    H174795   1.983   5.837  14.068  1.6672 -0.7313 -1.4573
17768TIP3    H274796   1.852   5.856  13.994 -0.0833  1.0205  1.8450
17769TIP3   OH274797   2.690   5.046   1.119  0.3775 -0.0995 -0.5045
17769TIP3    H174798   2.614   5.040   1.062 -0.9987  1.4449  1.0319
17769TIP3    H274799   2.708   5.140   1.123  0.2553 -0.1333  1.7571
17770TIP3   OH274800   6.449   4.574   4.831 -0.5851 -0.2794  0.0684
17770TIP3    H174801   6.482   4.656   4.868  0.1259  0.7865 -2.6739
17770TIP3    H274802   6.355   4.576   4.847 -0.5884  1.1417 -0.0285
17771TIP3   OH274803   2.087   4.258  14.529  0.4385 -0.2299  0.3324
17771TIP3    H174804   2.006   4.270  14.579  1.7138  2.9838  1.9148
17771TIP3    H274805   2.154   4.244  14.596  1.5207 -0.6683 -0.8089
17772TIP3   OH274806   4.908   6.180   4.844 -0.1488  0.1197  0.4543
17772TIP3    H174807   4.920   6.119   4.916  0.4074  0.3622  0.5791
17772TIP3    H274808   4.924   6.266   4.883  1.5117  0.1573 -0.2320
17773TIP3   OH274809   0.095   3.896   2.483  0.2801 -0.1091 -0.0824
17773TIP3    H174810   0.051   3.811   2.485 -1.6420  0.7921 -0.8676
17773TIP3    H274811   0.167   3.884   2.421  1.4544 -1.7471  1.5343
17774TIP3   OH274812   0.160   5.514   1.196 -0.0153 -0.5122  0.4032
17774TIP3    H174813   0.149   5.587   1.257  0.1604 -0.9201  0.9229
17774TIP3    H274814   0.254   5.496   1.197  0.0165 -0.4028 -0.1319
17775TIP3   OH274815   0.520   3.212  16.637  0.0066 -0.9504 -0.6306
17775TIP3    H174816   0.533   3.212  16.732 -0.4156 -0.1242 -0.5646
17775TIP3    H274817   0.558   3.295  16.607  1.6040 -1.9208 -1.4090
17776TIP3   OH274818   1.128   1.380  11.836  0.0657  0.5517 -0.4165
17776TIP3    H174819   1.168   1.421  11.759  1.1820  0.7692  0.2575
17776TIP3    H274820   1.169   1.424  11.911 -1.3287  0.6692  0.3200
17777TIP3   OH274821   6.114   4.197  13.262  0.3400 -0.0061 -0.8630
17777TIP3    H174822   6.032   4.217  13.217  1.0401  0.2724 -2.0475
17777TIP3    H274823   6.165   4.277  13.255  0.7768 -0.2251 -0.2534
17778TIP3   OH274824   1.790   6.668   4.171 -0.1159  0.4734  0.0821
17778TIP3    H174825   1.793   6.624   4.256 -1.9354  0.3936  0.1426
17778TIP3    H274826   1.840   6.749   4.185  1.2614 -0.4300  0.6303
17779TIP3   OH274827   3.455   6.209  16.239 -0.2209  0.4885 -0.3966
17779TIP3    H174828   3.433   6.189  16.148  2.7574  1.2606 -1.3949
17779TIP3    H274829   3.387   6.270  16.268 -1.3908 -0.0044 -1.9942
17780TIP3   OH274830   3.428   5.421   5.692 -0.1839 -0.3478  0.6434
17780TIP3    H174831   3.477   5.340   5.685  3.6993  1.8725 -1.0887
17780TIP3    H274832   3.434   5.445   5.784 -1.2546 -1.8496  1.1433
17781TIP3   OH274833   2.874   2.126   1.002 -0.1692  0.1078 -0.1725
17781TIP3    H174834   2.938   2.168   1.058 -0.5148  0.9124 -0.3561
17781TIP3    H274835   2.799   2.109   1.059 -0.6334  1.1874 -0.4148
17782TIP3   OH274836   1.635   6.696  15.129  0.6296  0.1628 -0.0224
17782TIP3    H174837   1.573   6.699  15.202  1.7971  0.8882  0.9780
17782TIP3    H274838   1.668   6.786  15.122  1.2094 -0.1060 -0.8510
17783TIP3   OH274839   3.028   1.276   0.351  0.1207 -0.5723  0.0492
17783TIP3    H174840   3.001   1.366   0.365 -1.1234 -1.0856  1.2252
17783TIP3    H274841   2.987   1.227   0.423  0.1242 -2.1916 -0.9961
17784TIP3   OH274842   5.453   5.176  15.101 -0.0731 -0.0387  0.1352
17784TIP3    H174843   5.513   5.192  15.028  0.1116  1.2661  0.5489
17784TIP3    H274844   5.377   5.134  15.061  0.4666 -0.3074 -0.6384
17785TIP3   OH274845   6.373   0.304   3.723 -0.5284 -0.1779 -0.0239
17785TIP3    H174846   6.366   0.243   3.650 -0.1276 -0.2347 -0.0163
17785TIP3    H274847   6.298   0.362   3.714  0.1446  0.5481 -1.1495
17786TIP3   OH274848   3.770   6.634   3.492  0.0268  0.1695  0.7557
17786TIP3    H174849   3.830   6.561   3.474  1.5181  1.9691 -2.5063
17786TIP3    H274850   3.822   6.694   3.545  0.5189  0.8910 -0.5032
17787TIP3   OH274851   6.189   4.455  12.872 -0.5743 -0.8838 -0.3359
17787TIP3    H174852   6.254   4.446  12.802  0.3837 -1.6385  0.6287
17787TIP3    H274853   6.122   4.512  12.834  0.4041 -0.4674 -1.5212
17788TIP3   OH274854   3.390   2.771   3.726  0.5997 -0.3413  0.1504
17788TIP3    H174855   3.388   2.863   3.752 -0.5858 -0.2636 -0.1427
17788TIP3    H274856   3.462   2.733   3.776  0.3338  0.4813  1.1898
17789TIP3   OH274857   6.696   4.425  11.601  0.2247  0.1981 -0.0971
17789TIP3    H174858   6.660   4.416  11.689  0.0743 -1.0008 -0.2735
17789TIP3    H274859   6.668   4.346  11.555  1.7239  0.0078 -0.7224
17790TIP3   OH274860   3.110   6.454  10.954  0.1792 -0.1512  0.0989
17790TIP3    H174861   3.066   6.512  10.892  1.3469  0.1797 -0.4481
17790TIP3    H274862   3.161   6.394  10.899  0.5839 -0.3845  0.7222
17791TIP3   OH274863   3.154   4.709  15.237  0.4046 -0.1885 -0.1955
17791TIP3    H174864   3.217   4.723  15.307 -0.1643  1.0910  0.0912
17791TIP3    H274865   3.193   4.752  15.160  0.0717  0.2756 -0.1128
17792TIP3   OH274866   4.403   0.572  16.924  0.3019 -0.0182 -0.6290
17792TIP3    H174867   4.364   0.659  16.927  0.3290 -0.0475  0.8014
17792TIP3    H274868   4.497   0.588  16.918  0.2461  0.0348 -1.6087
17793TIP3   OH274869   6.491   3.301   3.688 -0.4848  0.0608  0.1760
17793TIP3    H174870   6.473   3.385   3.731  1.3471  1.2507 -1.2263
17793TIP3    H274871   6.533   3.248   3.756 -2.2122 -0.0045  1.2541
17794TIP3   OH274872   0.751   5.795   5.880 -0.3929 -0.0062  0.1175
17794TIP3    H174873   0.783   5.858   5.944 -0.2951  1.7492 -1.5758
17794TIP3    H274874   0.659   5.818   5.867 -0.4875 -0.5211 -0.1826
17795TIP3   OH274875   4.218   2.952  11.694  0.3863 -0.0405  0.2068
17795TIP3    H174876   4.271   3.017  11.647  2.4257 -0.6053  1.6286
17795TIP3    H274877   4.272   2.924  11.767 -0.8980 -2.5470  0.3042
17796TIP3   OH274878   6.658   3.448  12.746  0.4727 -0.2427  0.3869
17796TIP3    H174879   6.655   3.515  12.815  1.3915 -0.7350  0.9253
17796TIP3    H274880   6.576   3.399  12.758 -1.5682  2.3396 -1.6980
17797TIP3   OH274881   4.309   0.540   3.616  0.0176  0.6489  0.2882
17797TIP3    H174882   4.218   0.571   3.613 -1.1428 -2.1863 -4.4162
17797TIP3    H274883   4.359   0.607   3.569 -0.7189 -0.1017 -1.6562
17798TIP3   OH274884   5.815   5.424  11.629 -0.7158  0.2838  0.1842
17798TIP3    H174885   5.771   5.509  11.629 -0.5191  0.3930  0.8927
17798TIP3    H274886   5.879   5.431  11.558 -1.0037  0.5622 -0.0548
17799TIP3   OH274887   3.941   3.657  12.574  0.1056 -0.2921  0.0185
17799TIP3    H174888   4.001   3.625  12.641 -1.2684 -1.1518  0.9132
17799TIP3    H274889   3.974   3.744  12.550  1.7439 -0.8019  0.3626
17800TIP3   OH274890   0.112   0.697  15.952  0.3065  0.3454  0.4482
17800TIP3    H174891   0.173   0.701  16.026  0.5291 -0.2897  0.3060
17800TIP3    H274892   0.047   0.632  15.979  0.1374  0.4377  0.2658
17801TIP3   OH274893   0.144   6.204  16.387  0.0771  0.3388  0.1134
17801TIP3    H174894   0.096   6.246  16.458 -0.8853  0.8583 -0.8111
17801TIP3    H274895   0.207   6.270  16.358  0.9088 -0.1054  0.8978
17802TIP3   OH274896   0.994   1.685  15.321 -0.4243 -1.0836  0.0142
17802TIP3    H174897   1.025   1.749  15.257 -0.6919 -1.3760 -0.4112
17802TIP3    H274898   0.948   1.737  15.387  4.5871  0.0482  3.1603
17803TIP3   OH274899   0.406   5.288   1.425  0.2250 -0.5660  0.2940
17803TIP3    H174900   0.319   5.254   1.407 -0.5643  1.7826 -0.7357
17803TIP3    H274901   0.393   5.355   1.492  1.2898 -0.4107  0.3671
17804TIP3   OH274902   4.064   2.577   3.734  0.0921  0.1265  0.0058
17804TIP3    H174903   4.069   2.670   3.711 -0.4410 -0.1689 -1.4177
17804TIP3    H274904   4.020   2.536   3.659  0.5524 -1.3168  0.4872
17805TIP3   OH274905   0.923   5.743  15.331 -0.7214  0.4227 -0.8256
17805TIP3    H174906   0.922   5.648  15.324  1.4223  0.3189 -0.2970
17805TIP3    H274907   0.834   5.770  15.307 -1.7232 -1.7662  0.1652
17806TIP3   OH274908   0.089   2.264  16.186  0.1737  0.0905  0.4072
17806TIP3    H174909   0.142   2.339  16.214  1.4247 -0.2669 -0.9079
17806TIP3    H274910   0.119   2.192  16.241  1.2316 -0.1586 -0.4744
17807TIP3   OH274911   1.096   3.523   0.060 -0.2967 -0.1276  0.1547
17807TIP3    H174912   1.184   3.535   0.095 -0.4932  1.4899  0.2017
17807TIP3    H274913   1.039   3.526   0.137 -0.2905 -3.7251  0.4413
17808TIP3   OH274914   3.706   5.673   4.000 -0.1204 -0.5951 -0.3207
17808TIP3    H174915   3.741   5.717   4.078 -2.5227  1.5049 -0.2970
17808TIP3    H274916   3.691   5.583   4.028  0.7111 -0.3190  1.0936
17809TIP3   OH274917   1.891   6.143   4.276  0.3453  0.7739  0.5932
17809TIP3    H174918   1.970   6.142   4.221 -0.2119  1.5420 -0.2404
17809TIP3    H274919   1.925   6.138   4.366  1.2747 -0.4569  0.2093
17810TIP3   OH274920   1.792   3.052   6.331  0.3960 -0.3681  0.7335
17810TIP3    H174921   1.836   3.037   6.415  2.4715 -1.7428 -0.4854
17810TIP3    H274922   1.821   3.139   6.304  0.1624 -0.1454  1.1954
17811TIP3   OH274923   1.857   5.781   4.202 -0.0555  0.1031 -0.6676
17811TIP3    H174924   1.855   5.781   4.106 -2.0411  1.8696 -0.7013
17811TIP3    H274925   1.785   5.839   4.227  1.7986  1.4783  1.8825
17812TIP3   OH274926   1.144   4.686   2.296  0.1341 -0.7691 -0.1509
17812TIP3    H174927   1.147   4.598   2.334  1.7623 -0.1129  1.4042
17812TIP3    H274928   1.161   4.745   2.370 -0.4435  0.8375 -1.2391
17813TIP3   OH274929   5.416   6.752   3.354  0.1136  0.4654 -0.0868
17813TIP3    H174930   5.502   6.712   3.362  0.6479  1.1666 -1.9637
17813TIP3    H274931   5.356   6.678   3.342  0.8867  0.0959 -1.9703
17814TIP3   OH274932   2.960   6.431  13.320 -0.0776  0.0511 -0.2831
17814TIP3    H174933   3.013   6.459  13.394  0.7790  1.8866 -1.5060
17814TIP3    H274934   2.998   6.347  13.293  0.1242 -0.2237  0.8093
17815TIP3   OH274935   4.666   0.091  15.514  0.0741 -0.1040 -0.0734
17815TIP3    H174936   4.742   0.120  15.462  0.0416  0.8451  0.3917
17815TIP3    H274937   4.634   0.014  15.467  1.0105 -0.2128 -0.5721
17816TIP3   OH274938   1.787   0.398   4.102  0.3296  0.4539  0.2177
17816TIP3    H174939   1.717   0.449   4.061 -0.4860 -0.3696  0.5354
17816TIP3    H274940   1.852   0.462   4.129  0.2775  1.1261 -1.1963
17817TIP3   OH274941   2.944   4.230  14.533  0.6856  0.2519  0.2398
17817TIP3    H174942   2.932   4.325  14.541  0.3850  0.4753 -2.3325
17817TIP3    H274943   3.013   4.220  14.468 -0.4732 -1.3177 -0.8000
17818TIP3   OH274944   0.602   4.500  13.362  0.9775 -0.3359 -0.0515
17818TIP3    H174945   0.679   4.509  13.307  0.5986  1.6620 -0.3333
17818TIP3    H274946   0.608   4.572  13.424 -1.0726  0.4191 -0.6439
17819TIP3   OH274947   3.221   0.754  13.068  0.5402 -0.4226  0.5901
17819TIP3    H174948   3.173   0.706  13.001 -0.1536 -0.1063  0.8590
17819TIP3    H274949   3.202   0.708  13.149 -0.7893  0.7621  0.9805
17820TIP3   OH274950   5.907   1.367   6.624  0.2607 -0.2933 -0.3819
17820TIP3    H174951   5.828   1.419   6.608  1.3481  1.1551 -1.2995
17820TIP3    H274952   5.979   1.423   6.597  1.4911 -2.5572 -2.2406
17821TIP3   OH274953   1.486   3.126   6.200 -0.0482 -0.8237  0.0705
17821TIP3    H174954   1.529   3.173   6.271 -0.7253 -2.3236  1.5545
17821TIP3    H274955   1.397   3.162   6.198 -0.7212 -2.2507  1.5363
17822TIP3   OH274956   4.960   3.754  12.965 -0.7078  0.8991  0.0105
17822TIP3    H174957   4.920   3.774  12.880 -1.0800 -0.2231 -0.0840
17822TIP3    H274958   5.025   3.687  12.946  0.4451  1.8844  0.3513
17823TIP3   OH274959   1.954   3.921  13.499 -0.1754 -0.6912  0.6190
17823TIP3    H174960   1.919   3.994  13.550 -0.9890 -1.0652  0.6027
17823TIP3    H274961   2.045   3.914  13.528  0.5000  1.5203 -0.7275
17824TIP3   OH274962   2.982   0.139   5.577  0.9944  1.0141  0.5644
17824TIP3    H174963   2.974   0.166   5.486 -1.2697  0.6165  0.5807
17824TIP3    H274964   2.961   0.046   5.577 -0.9648  1.3788  1.6525
17825TIP3   OH274965   5.203   4.902  11.379 -0.1823  0.2198  0.2242
17825TIP3    H174966   5.239   4.975  11.429  0.0714  0.0719  0.2602
17825TIP3    H274967   5.261   4.828  11.399 -1.5264 -0.5084  1.7281
17826TIP3   OH274968   1.038   5.852  12.115  0.3283 -0.0925 -0.1017
17826TIP3    H174969   1.098   5.815  12.050  1.0223  0.8521 -0.0150
17826TIP3    H274970   0.951   5.824  12.086  0.4331  1.6532 -2.4156
17827TIP3   OH274971   6.540   2.047   5.325  0.0906  0.3717  0.3308
17827TIP3    H174972   6.576   2.055   5.413 -0.9386 -0.8459  0.8965
17827TIP3    H274973   6.602   2.095   5.270  0.5746  1.4548  1.7453
17828TIP3   OH274974   2.327   3.275   5.702 -0.2976  0.0360 -0.6616
17828TIP3    H174975   2.394   3.312   5.644  0.3054  0.1559  0.0958
17828TIP3    H274976   2.273   3.350   5.726 -0.0190  0.1499 -0.3782
17829TIP3   OH274977   1.150   4.998   5.190  0.6293 -0.3264  0.2714
17829TIP3    H174978   1.175   4.986   5.282 -0.2456 -1.9754  0.3398
17829TIP3    H274979   1.101   4.919   5.169  1.9494 -0.5883 -2.0344
17830TIP3   OH274980   4.616   1.685   2.976 -0.5243  0.0085  0.3350
17830TIP3    H174981   4.533   1.727   2.996  1.1085  3.1942  1.1172
17830TIP3    H274982   4.639   1.638   3.057 -1.4095 -0.6646  0.2021
17831TIP3   OH274983   3.607   6.751   1.643 -0.0023 -0.7242  0.3817
17831TIP3    H174984   3.538   6.816   1.632  1.1788  0.7139  1.1506
17831TIP3    H274985   3.664   6.764   1.568  0.1208 -1.0287  0.4224
17832TIP3   OH274986   1.097   5.650   4.480 -0.3909  0.1959 -0.1160
17832TIP3    H174987   1.118   5.620   4.391 -1.7075  0.9232 -0.6990
17832TIP3    H274988   1.160   5.721   4.496 -0.4152  0.3383 -0.6331
17833TIP3   OH274989   0.994   1.743   3.651 -0.1020 -0.4431 -0.2634
17833TIP3    H174990   0.921   1.786   3.608  0.3112 -0.7429 -1.3036
17833TIP3    H274991   0.953   1.689   3.718 -0.8768 -0.8307 -1.0181
17834TIP3   OH274992   5.507   4.544  14.474  0.3430  0.4106 -0.2430
17834TIP3    H174993   5.438   4.608  14.490  0.3972 -0.0212  2.0268
17834TIP3    H274994   5.464   4.459  14.485  1.1267  0.1324  0.8031
17835TIP3   OH274995   1.489   2.553   1.680  0.7022 -0.4786 -0.5786
17835TIP3    H174996   1.544   2.531   1.605  1.1510 -0.6518 -0.1985
17835TIP3    H274997   1.454   2.639   1.660  1.4180 -0.2007 -0.6476
17836TIP3   OH274998   3.606   1.924  17.184  0.1216  0.7559 -0.1129
17836TIP3    H174999   3.518   1.919  17.148  0.1678  1.1570 -0.2901
17836TIP3    H275000   3.613   1.847  17.241 -0.0280  0.2412 -0.7837
17837TIP3   OH275001   4.309   4.838  16.593 -0.0271 -0.1177  0.2979
17837TIP3    H175002   4.276   4.890  16.666 -2.5656  0.7165 -1.3224
17837TIP3    H275003   4.342   4.903  16.530  0.0069 -0.6824 -0.2801
17838TIP3   OH275004   5.326   1.528  15.080  0.0599  0.1640 -0.3603
17838TIP3    H175005   5.401   1.522  15.021  0.2428  0.9253 -0.2106
17838TIP3    H275006   5.250   1.533  15.023  0.2591  1.2532 -0.5513
17839TIP3   OH275007   1.128   2.702   1.596 -0.5655  0.7327  0.8749
17839TIP3    H175008   1.125   2.670   1.686  1.5496  0.6684  0.9709
17839TIP3    H275009   1.089   2.633   1.544  0.3830 -0.3161  1.5077
17840TIP3   OH275010   0.470   4.759   5.353 -0.6526 -0.1321 -0.2980
17840TIP3    H175011   0.397   4.801   5.307 -1.8037 -1.6803  0.0262
17840TIP3    H275012   0.433   4.730   5.436  0.3658 -0.8081 -0.0564
17841TIP3   OH275013   5.974   3.698   1.247 -0.2817  0.4039  0.1521
17841TIP3    H175014   5.880   3.697   1.265 -0.7048 -2.9850 -1.4312
17841TIP3    H275015   5.981   3.713   1.153  0.9488  2.4847  0.5192
17842TIP3   OH275016   4.088   4.740   0.944 -0.4532 -0.4487 -0.2366
17842TIP3    H175017   4.045   4.660   0.973 -0.2360 -1.5280 -2.7095
17842TIP3    H275018   4.023   4.785   0.890  0.0048  0.1959 -0.2754
17843TIP3   OH275019   1.671   0.272   5.248  0.4876 -0.4710  0.3934
17843TIP3    H175020   1.721   0.298   5.325 -2.0443 -0.0181  2.0105
17843TIP3    H275021   1.672   0.176   5.250 -0.1748 -0.4732  1.4780
17844TIP3   OH275022   6.592   1.961   6.461  0.3675  0.0460 -0.7829
17844TIP3    H175023   6.593   1.874   6.422  1.0741  0.8015 -2.5585
17844TIP3    H275024   6.681   1.975   6.491  0.5164  0.5452 -1.4428
17845TIP3   OH275025   3.253   6.606  12.564 -0.1207 -0.5385 -0.1066
17845TIP3    H175026   3.172   6.556  12.561  0.4867 -1.6276  0.8514
17845TIP3    H275027   3.321   6.543  12.540  0.4902  0.2523 -0.5013
17846TIP3   OH275028   4.916   1.281   2.419  0.1205  0.5134 -0.0787
17846TIP3    H175029   4.821   1.271   2.425  0.2172 -0.0861  0.6424
17846TIP3    H275030   4.951   1.214   2.478  1.0049  0.4596 -0.6382
17847TIP3   OH275031   4.908   6.242   0.290 -0.7673 -0.0814  0.0949
17847TIP3    H175032   4.901   6.170   0.226  0.3381 -1.0256  0.9933
17847TIP3    H275033   4.977   6.213   0.350 -1.8642  0.7238  1.7893
17848TIP3   OH275034   0.495   1.158   4.831 -0.9709 -0.0218 -0.2608
17848TIP3    H175035   0.525   1.228   4.890 -1.5135 -0.9875  1.2348
17848TIP3    H275036   0.401   1.175   4.821 -0.9293 -0.0144 -0.6322
17849TIP3   OH275037   4.902   4.093   3.642 -0.2222  0.0876 -0.1769
17849TIP3    H175038   4.922   4.090   3.735 -0.1161  0.1921 -0.1958
17849TIP3    H275039   4.920   4.004   3.611  0.5363  0.2617 -0.2575
17850TIP3   OH275040   1.221   3.176   1.512 -0.1474  0.0420 -0.1152
17850TIP3    H175041   1.300   3.222   1.537 -1.0855  1.8574 -0.3179
17850TIP3    H275042   1.199   3.122   1.588 -0.7937  2.4721  1.5300
17851TIP3   OH275043   3.289   5.544   1.458  0.1295  0.2045 -0.3969
17851TIP3    H175044   3.318   5.453   1.453 -0.8853 -0.1062 -1.1040
17851TIP3    H275045   3.202   5.539   1.499  0.4071  0.9412  0.3100
17852TIP3   OH275046   0.248   3.679   5.483 -0.4724 -0.1650 -0.2812
17852TIP3    H175047   0.175   3.631   5.446  0.5129 -2.1041  0.1491
17852TIP3    H275048   0.322   3.618   5.479  0.7078  1.0998  0.8700
17853TIP3   OH275049   5.788   4.336   3.987  0.1573  0.2669  0.4065
17853TIP3    H175050   5.815   4.387   4.063  0.5800  0.3100  0.2324
17853TIP3    H275051   5.729   4.394   3.939 -0.5436  0.0405  0.9763
17854TIP3   OH275052   2.572   1.338   5.720  0.1154  0.5321 -0.0573
17854TIP3    H175053   2.503   1.404   5.720 -0.1168  0.4250  2.9866
17854TIP3    H275054   2.527   1.255   5.735  0.7661  0.2349  0.2882
17855TIP3   OH275055   3.639   1.266   4.407  0.4160  0.0382 -0.2759
17855TIP3    H175056   3.562   1.298   4.359  0.5465 -0.4428 -0.8230
17855TIP3    H275057   3.662   1.184   4.363  0.8965 -0.1151  0.2486
17856TIP3   OH275058   2.721   1.666  16.820  1.2989 -0.0233  0.5294
17856TIP3    H175059   2.735   1.573  16.834  1.7194  0.0887  0.8586
17856TIP3    H275060   2.626   1.674  16.804  1.3482 -0.5755 -0.0750
17857TIP3   OH275061   6.191   0.862  10.608  0.2444 -0.3452  0.4799
17857TIP3    H175062   6.122   0.912  10.566  0.4350 -0.9633 -0.6055
17857TIP3    H275063   6.167   0.770  10.594  0.1460 -0.5890  2.0107
17858TIP3   OH275064   2.670   1.021  15.554 -0.0016 -0.4737  0.6742
17858TIP3    H175065   2.659   0.975  15.471  1.3393 -0.0714  0.2520
17858TIP3    H275066   2.626   1.105  15.540  1.6963  0.3021 -0.2729
17859TIP3   OH275067   3.566   6.473   0.892 -0.4995  0.5353  0.3004
17859TIP3    H175068   3.584   6.560   0.928 -3.1788  1.7962 -1.0596
17859TIP3    H275069   3.564   6.486   0.797 -0.3796 -1.1583  0.0291
17860TIP3   OH275070   4.184   2.389   5.178  0.1904  0.0508  0.6819
17860TIP3    H175071   4.191   2.437   5.095 -1.8141 -1.5071 -0.4793
17860TIP3    H275072   4.148   2.452   5.239  1.3187  1.1172  0.2942
17861TIP3   OH275073   4.615   4.225   1.529 -0.3670 -0.2252 -0.7297
17861TIP3    H175074   4.536   4.171   1.537 -0.7139 -0.0850 -2.7485
17861TIP3    H275075   4.585   4.314   1.549 -0.1562 -0.5089  0.9479
17862TIP3   OH275076   1.918   1.488  15.339 -0.6255  0.3710  0.0247
17862TIP3    H175077   1.963   1.415  15.382 -0.9445 -0.5574 -1.1498
17862TIP3    H275078   1.825   1.474  15.358 -0.9137 -0.8102 -1.9688
17863TIP3   OH275079   1.181   6.378   4.459  0.6247  0.3002  0.2892
17863TIP3    H175080   1.121   6.424   4.517 -0.8789 -0.5123 -0.5566
17863TIP3    H275081   1.185   6.433   4.381 -4.8748 -2.7443 -2.7755
17864TIP3   OH275082   4.840   3.574  11.421  0.0955 -0.4313 -0.2144
17864TIP3    H175083   4.909   3.524  11.463  0.7404 -0.1213 -0.8794
17864TIP3    H275084   4.760   3.547  11.465  0.4666 -1.8161 -0.3521
17865TIP3   OH275085   3.091   6.706   6.502  0.1333  0.4211 -0.1006
17865TIP3    H175086   3.009   6.660   6.522 -0.1969  0.7789 -0.6378
17865TIP3    H275087   3.145   6.640   6.459 -0.4640  0.6136 -1.1674
17866TIP3   OH275088   3.095   2.796   5.014  0.3986 -0.3570  0.6129
17866TIP3    H175089   3.089   2.700   5.015  0.3390 -0.3529  0.9322
17866TIP3    H275090   3.008   2.825   5.040  0.3195 -0.2110  0.1783
17867TIP3   OH275091   6.481   0.311   1.202  0.1208 -0.1486 -0.0517
17867TIP3    H175092   6.528   0.350   1.276  1.0267 -1.4584  0.1039
17867TIP3    H275093   6.506   0.364   1.127 -0.1219  0.6703  0.4325
17868TIP3   OH275094   4.327   2.293  11.544 -0.1889 -0.2199 -0.3757
17868TIP3    H175095   4.356   2.203  11.552  0.9878  0.1467 -0.2862
17868TIP3    H275096   4.362   2.322  11.459  1.9821  1.0043  0.8475
17869TIP3   OH275097   0.601   0.919   2.485  0.0024 -0.1310 -0.1980
17869TIP3    H175098   0.644   0.991   2.439  0.9928 -0.2605  0.4966
17869TIP3    H275099   0.634   0.925   2.575  1.1819 -2.2852 -0.4266
17870TIP3   OH275100   2.462   1.374  16.785  0.0583  0.1517  0.6253
17870TIP3    H175101   2.521   1.323  16.841  0.5384  0.3728  0.3194
17870TIP3    H275102   2.461   1.461  16.824 -0.1665  0.1175  0.7005
17871TIP3   OH275103   5.881   5.309   5.248 -0.5049  0.2483 -0.2010
17871TIP3    H175104   5.872   5.391   5.297 -0.2535  0.3136 -0.2620
17871TIP3    H275105   5.839   5.244   5.303  0.0758  0.2616  0.2670
17872TIP3   OH275106   2.777   2.422   3.824  0.6190  0.0635  0.0534
17872TIP3    H175107   2.856   2.450   3.777 -0.6730  3.0695 -0.5717
17872TIP3    H275108   2.783   2.326   3.826  1.8587 -0.2022 -4.3889
17873TIP3   OH275109   0.850   1.009   1.181  0.3485  0.1325  0.0440
17873TIP3    H175110   0.928   0.955   1.167  0.6593  0.4833  0.4154
17873TIP3    H275111   0.884   1.097   1.195 -0.1593  0.4701 -0.7227
17874TIP3   OH275112   6.190   3.904  15.345  0.0393 -0.1178 -0.1895
17874TIP3    H175113   6.268   3.849  15.344 -0.9753 -1.7586  1.7160
17874TIP3    H275114   6.132   3.865  15.280  0.5011  0.6367 -1.0646
17875TIP3   OH275115   3.347   3.835   0.650 -0.0692 -0.5008 -0.0806
17875TIP3    H175116   3.394   3.787   0.718 -2.2595 -0.2126  1.7506
17875TIP3    H275117   3.315   3.767   0.590 -1.4066 -1.2019  1.3609
17876TIP3   OH275118   4.943   0.560   2.691  0.5081  0.1133  0.3259
17876TIP3    H175119   5.017   0.548   2.751 -1.6043  0.2175  3.1977
17876TIP3    H275120   4.868   0.523   2.738 -1.3093  0.1029 -2.3779
17877TIP3   OH275121   5.882   2.585  15.583 -0.5127 -0.2963  0.3606
17877TIP3    H175122   5.948   2.561  15.517 -1.8820 -1.8809 -0.5187
17877TIP3    H275123   5.933   2.602  15.662  0.9369 -2.7851  0.0996
17878TIP3   OH275124   2.564   0.284   5.748 -0.2824 -0.0120  0.0151
17878TIP3    H175125   2.508   0.265   5.824  2.3535 -0.3732  2.0255
17878TIP3    H275126   2.652   0.295   5.785  1.3659 -1.3009 -3.1130
17879TIP3   OH275127   2.804   4.724  15.355 -0.3974  0.1833 -0.2409
17879TIP3    H175128   2.872   4.713  15.422 -0.1678  0.9997 -0.3225
17879TIP3    H275129   2.761   4.807  15.378 -1.8963 -0.6957  0.2670
17880TIP3   OH275130   3.131   0.943   6.123 -0.1547  0.0861  0.4883
17880TIP3    H175131   3.131   1.003   6.048  0.2644 -1.0985 -0.4863
17880TIP3    H275132   3.040   0.944   6.154  0.2363  2.8140  1.8524
17881TIP3   OH275133   0.433   0.480   4.232  0.0984  0.3204  0.8489
17881TIP3    H175134   0.456   0.524   4.150  0.2353  1.3279  1.4155
17881TIP3    H275135   0.483   0.525   4.299  0.7825 -1.1585  1.3859
17882TIP3   OH275136   5.765   2.471   1.994 -0.4652 -0.2109  0.0810
17882TIP3    H175137   5.854   2.446   1.968 -1.0411 -1.7152 -0.5971
17882TIP3    H275138   5.735   2.529   1.924  0.5728  1.8074  1.2153
17883TIP3   OH275139   4.073   5.977  11.881 -0.2621  0.7775  0.0526
17883TIP3    H175140   4.117   6.041  11.937  1.1551 -0.7394  0.7515
17883TIP3    H275141   3.999   6.025  11.844  1.5936  3.2780 -0.6764
17884TIP3   OH275142   2.209   2.723  14.851 -0.4753  0.2368  0.1629
17884TIP3    H175143   2.194   2.629  14.865 -0.3529  0.1474 -0.2943
17884TIP3    H275144   2.122   2.758  14.828 -0.6831  0.3903  1.1567
17885TIP3   OH275145   2.752   3.829   4.499 -0.1914 -0.5955 -0.0682
17885TIP3    H175146   2.718   3.836   4.589  0.8081 -2.1992  0.4636
17885TIP3    H275147   2.842   3.800   4.509  0.5781  1.0924 -1.5561
17886TIP3   OH275148   4.508   3.446  15.577 -0.3213  0.1624  0.0901
17886TIP3    H175149   4.546   3.493  15.502  0.5469 -0.7001 -0.0411
17886TIP3    H275150   4.417   3.429  15.551 -0.4438  1.1420 -0.1497
17887TIP3   OH275151   2.300   5.547  12.453  0.3549 -0.2156 -0.5261
17887TIP3    H175152   2.239   5.543  12.527 -1.1340 -0.5280 -1.7240
17887TIP3    H275153   2.333   5.457  12.445 -0.5078 -0.5051 -1.0329
17888TIP3   OH275154   4.882   1.546  13.415 -0.1809  0.2766 -0.2819
17888TIP3    H175155   4.951   1.542  13.481  0.1410  0.6520 -0.5909
17888TIP3    H275156   4.849   1.456  13.410 -0.9355  0.4396  1.1454
17889TIP3   OH275157   4.417   1.694  14.032 -0.0934  0.6281 -0.0377
17889TIP3    H175158   4.506   1.659  14.027  1.2530  3.7133  0.5382
17889TIP3    H275159   4.389   1.704  13.941 -0.1541 -0.8987 -0.2180
17890TIP3   OH275160   0.309   0.964  15.903  0.4711 -0.2991 -0.0237
17890TIP3    H175161   0.402   0.941  15.908 -0.0026 -2.4845 -0.4561
17890TIP3    H275162   0.264   0.881  15.892 -1.3120  0.8951 -3.1722
17891TIP3   OH275163   5.534   1.515  16.999 -0.2002  0.2855  0.2529
17891TIP3    H175164   5.607   1.526  17.059  0.5042 -0.0726 -0.5189
17891TIP3    H275165   5.472   1.459  17.046  0.5169 -0.3167  0.5037
17892TIP3   OH275166   0.369   4.784  15.040  0.3161 -0.5358 -0.2899
17892TIP3    H175167   0.316   4.864  15.042  1.7143  0.4484 -0.7916
17892TIP3    H275168   0.329   4.731  14.970 -0.6830 -0.3406  0.1121
17893TIP3   OH275169   0.812   0.949  11.445  0.1507 -0.1930 -0.1116
17893TIP3    H175170   0.745   0.987  11.388  1.1641 -0.1712 -1.3400
17893TIP3    H275171   0.843   1.021  11.498  0.8577  0.3440 -1.2233
17894TIP3   OH275172   0.272   2.366   2.909 -0.0202 -0.3574 -0.7088
17894TIP3    H175173   0.343   2.418   2.870 -0.2320  1.2742  0.9174
17894TIP3    H275174   0.192   2.413   2.886 -0.1598  0.6049  1.4378
17895TIP3   OH275175   6.381   6.119   0.246  0.1379 -0.6122  0.0852
17895TIP3    H175176   6.453   6.155   0.195  0.6306  2.3940  2.6096
17895TIP3    H275177   6.424   6.055   0.304  0.6699  0.4129  0.8607
17896TIP3   OH275178   3.160   2.721   4.218 -0.0698  0.1541  0.1177
17896TIP3    H175179   3.249   2.713   4.251  0.1787  1.1011 -0.2792
17896TIP3    H275180   3.155   2.811   4.184 -1.0136 -0.0501 -0.3242
17897TIP3   OH275181   6.088   4.556   4.593 -0.1666  0.0666 -0.0781
17897TIP3    H175182   6.117   4.552   4.502  0.1695  1.2034 -0.0378
17897TIP3    H275183   6.145   4.494   4.639  1.1789  1.1015 -0.2773
17898TIP3   OH275184   1.184   5.594  12.923 -0.8547  0.2384  0.2862
17898TIP3    H175185   1.207   5.682  12.892 -1.0652  1.0633  2.3208
17898TIP3    H275186   1.215   5.535  12.854 -0.6814  1.8932 -1.1097
17899TIP3   OH275187   2.279   5.058  17.083  0.3076 -0.0830  0.0337
17899TIP3    H175188   2.208   4.995  17.094 -0.0699 -0.0513 -1.7964
17899TIP3    H275189   2.235   5.143  17.074  0.7571  0.3295  1.5749
17900TIP3   OH275190   6.053   1.105  16.151  0.0131 -0.0128  0.1857
17900TIP3    H175191   5.977   1.052  16.176 -0.7669  0.6618 -0.6741
17900TIP3    H275192   6.016   1.182  16.108  1.1996 -0.8151 -2.5167
17901TIP3   OH275193   3.910   5.774  11.951 -0.1527  0.0407  0.0144
17901TIP3    H175194   3.966   5.729  12.015  1.0051  1.0787 -0.2127
17901TIP3    H275195   3.957   5.856  11.933 -1.9261  1.1300  0.0719
17902TIP3   OH275196   3.518   1.233   2.765  0.2501 -0.3396  0.0964
17902TIP3    H175197   3.510   1.222   2.860  0.3468 -0.2287  0.1182
17902TIP3    H275198   3.430   1.256   2.735  0.0488 -1.1317  0.0530
17903TIP3   OH275199   0.239   6.339  15.874 -0.0075  0.7589  0.4277
17903TIP3    H175200   0.223   6.365  15.964  1.3603 -0.2751  1.0046
17903TIP3    H275201   0.320   6.385  15.850  0.4484 -0.1117  0.2484
17904TIP3   OH275202   2.484   3.806  13.631  0.2440  0.0765  0.3982
17904TIP3    H175203   2.554   3.872  13.628  1.3543 -1.0815  0.3784
17904TIP3    H275204   2.519   3.735  13.684 -1.2838 -0.1489  1.1722
17905TIP3   OH275205   5.117   5.252  13.888 -0.3567 -0.0986 -0.1101
17905TIP3    H175206   5.143   5.238  13.979 -0.7713 -3.5124 -0.3881
17905TIP3    H275207   5.187   5.211  13.836  0.1103  2.1837 -1.4020
17906TIP3   OH275208   0.229   2.549   5.142  0.3358 -0.1226  0.3046
17906TIP3    H175209   0.290   2.584   5.078 -1.7783 -0.1401 -1.8788
17906TIP3    H275210   0.194   2.626   5.187  0.0837  0.1199 -0.2914
17907TIP3   OH275211   3.008   6.153  15.185 -0.0129 -0.0654  0.2768
17907TIP3    H175212   3.092   6.112  15.166 -0.2860 -0.1349 -0.8560
17907TIP3    H275213   2.948   6.080  15.204  0.1547 -0.0186  1.0329
17908TIP3   OH275214   2.571   6.583   3.305 -0.4155  0.3529  0.2333
17908TIP3    H175215   2.500   6.619   3.251 -2.0565 -2.5748  0.2217
17908TIP3    H275216   2.529   6.514   3.356  2.1590 -0.4432  1.4274
17909TIP3   OH275217   4.745   0.631  15.853 -0.0778  0.1173  0.2117
17909TIP3    H175218   4.835   0.648  15.881  0.2299  0.0797 -0.7230
17909TIP3    H275219   4.693   0.636  15.934  0.4847  2.0143  0.5018
17910TIP3   OH275220   3.418   2.184  13.346  0.2786  0.3001  0.2048
17910TIP3    H175221   3.380   2.217  13.264  0.0501  1.9303  0.9262
17910TIP3    H275222   3.507   2.159  13.322 -0.2679 -0.7222 -0.8578
17911TIP3   OH275223   5.168   4.231  14.620  0.3508 -0.4533 -0.7850
17911TIP3    H175224   5.087   4.187  14.596 -0.4771  0.1184  0.8211
17911TIP3    H275225   5.197   4.186  14.699 -0.1166  1.3384  0.4648
17912TIP3   OH275226   5.481   5.171   5.274  0.5151  0.5325 -0.1004
17912TIP3    H175227   5.452   5.191   5.185 -0.1101  0.9823  0.1998
17912TIP3    H275228   5.425   5.098   5.301  0.6653  0.4339 -0.0583
17913TIP3   OH275229   3.771   3.099   5.141  0.2650  0.2497  0.3078
17913TIP3    H175230   3.789   3.014   5.102  0.6444  0.6179 -0.3264
17913TIP3    H275231   3.848   3.118   5.194  0.6106  0.6293 -0.3177
17914TIP3   OH275232   0.561   3.864  12.612  0.0022 -0.2738 -0.0069
17914TIP3    H175233   0.551   3.788  12.556  2.9948 -0.6719 -0.1508
17914TIP3    H275234   0.556   3.939  12.553 -0.8503 -0.4350 -0.1602
17915TIP3   OH275235   0.648   5.336   3.258 -0.0969 -0.2116  0.3496
17915TIP3    H175236   0.681   5.424   3.278 -0.8086  0.7627 -2.4290
17915TIP3    H275237   0.560   5.334   3.294 -0.3261  0.4745 -0.1625
17916TIP3   OH275238   6.282   5.002   2.588 -0.1710  0.5826  0.1589
17916TIP3    H175239   6.187   4.986   2.585 -0.0571 -0.0523 -1.8522
17916TIP3    H275240   6.293   5.081   2.534  0.5387 -0.0883 -0.7069
17917TIP3   OH275241   2.555   1.407   5.236 -0.1098  0.4957 -0.1681
17917TIP3    H175242   2.594   1.494   5.243 -0.1996  0.5015  0.2897
17917TIP3    H275243   2.606   1.363   5.168 -0.8506  1.3248 -1.2929
17918TIP3   OH275244   1.832   2.535  17.121 -0.8427 -0.3636 -0.4898
17918TIP3    H175245   1.741   2.544  17.091 -0.3274 -0.7615 -2.3042
17918TIP3    H275246   1.844   2.440  17.131 -0.6353 -0.3087 -0.2247
17919TIP3   OH275247   3.532   2.365  12.887 -0.1638 -0.0514 -0.1271
17919TIP3    H175248   3.546   2.292  12.827 -1.0723 -0.8065  0.5421
17919TIP3    H275249   3.562   2.332  12.972  0.5822  0.8023 -0.0506
17920TIP3   OH275250   2.661   5.573  13.023 -0.6418 -0.4366 -0.6130
17920TIP3    H175251   2.684   5.544  12.935  0.5491 -1.9595  0.1332
17920TIP3    H275252   2.708   5.512  13.080 -1.7880  0.1991  1.0693
17921TIP3   OH275253   1.209   5.491   0.065 -0.1132  0.1821  0.6134
17921TIP3    H175254   1.214   5.442   0.147  1.2941  0.8643  0.9737
17921TIP3    H275255   1.293   5.472   0.022 -0.1895  1.0644  0.0586
17922TIP3   OH275256   4.533   3.718  10.844  0.1028  0.3058  0.3201
17922TIP3    H175257   4.504   3.628  10.829  0.5964 -0.0722  1.4977
17922TIP3    H275258   4.475   3.771  10.791 -1.6834 -0.5326  1.3427
17923TIP3   OH275259   1.114   5.336  12.005 -0.5063 -0.7312  0.7381
17923TIP3    H175260   1.158   5.311  11.924  0.6326  0.0814  1.0789
17923TIP3    H275261   1.055   5.263  12.024 -0.5482 -1.0873 -0.6294
17924TIP3   OH275262   6.028   2.922   2.104 -0.0939  0.0650 -0.5506
17924TIP3    H175263   5.984   2.852   2.153  0.0948  0.0396 -0.4121
17924TIP3    H275264   6.011   2.902   2.012 -0.1057 -0.1201 -0.5086
17925TIP3   OH275265   3.475   2.211  10.888  0.1758 -0.6040  0.1492
17925TIP3    H175266   3.418   2.172  10.955  0.1673 -0.5488  0.1739
17925TIP3    H275267   3.521   2.136  10.850 -0.1892 -0.6955 -0.1280
17926TIP3   OH275268   4.292   2.251   0.783  0.0718 -0.0753  0.6877
17926TIP3    H175269   4.235   2.261   0.707  1.1934  0.4582 -0.0996
17926TIP3    H275270   4.231   2.250   0.858 -0.9664  0.4999 -0.1174
17927TIP3   OH275271   3.305   2.366  15.022 -0.0240  0.1510  0.5765
17927TIP3    H175272   3.252   2.422  15.078 -0.3391  0.9607 -0.5107
17927TIP3    H275273   3.361   2.426  14.974 -0.0338 -0.4985 -0.2615
17928TIP3   OH275274   2.471   1.423  13.487  0.6385 -0.4116  0.6955
17928TIP3    H175275   2.502   1.440  13.576 -2.0816 -0.4362  1.7393
17928TIP3    H275276   2.440   1.333  13.489 -0.5475 -0.0336  0.1021
17929TIP3   OH275277   5.707   5.670  11.749 -0.0193 -0.3544 -0.0972
17929TIP3    H175278   5.699   5.694  11.842  1.5813  0.0329 -0.0379
17929TIP3    H275279   5.710   5.754  11.703  0.7931 -0.5092 -0.3405
17930TIP3   OH275280   2.800   5.666  11.348 -0.0825 -0.2630  0.7250
17930TIP3    H175281   2.891   5.677  11.377 -0.4248 -0.1491  1.8306
17930TIP3    H275282   2.774   5.753  11.317  0.4855 -0.5303 -0.5698
17931TIP3   OH275283   4.603   2.837   6.035 -0.3399 -0.0124 -0.3024
17931TIP3    H175284   4.646   2.805   5.955 -0.7402 -0.7206 -0.2430
17931TIP3    H275285   4.515   2.799   6.031 -1.1440  1.7885 -0.6566
17932TIP3   OH275286   5.905   3.661  16.303  0.3950 -0.5278  0.0714
17932TIP3    H175287   5.999   3.649  16.305  0.3330 -0.9683  0.5520
17932TIP3    H275288   5.870   3.574  16.287  0.1111 -0.1453 -1.5712
17933TIP3   OH275289   5.488   2.343   5.525 -0.8570  0.2302  0.1674
17933TIP3    H175290   5.500   2.400   5.601 -0.0096  0.4483 -0.1132
17933TIP3    H275291   5.493   2.402   5.450  0.9841 -0.3015 -0.1789
17934TIP3   OH275292   6.504   0.537   1.862  0.1615  0.3074  0.2954
17934TIP3    H175293   6.411   0.523   1.881  0.3693 -0.0241  1.1142
17934TIP3    H275294   6.510   0.631   1.843 -0.5083  0.1343 -0.8379
17935TIP3   OH275295   2.733   0.720   5.520 -0.1293  0.3124 -0.8189
17935TIP3    H175296   2.775   0.664   5.455  1.0354 -1.0221  0.9827
17935TIP3    H275297   2.803   0.744   5.581 -1.4937 -0.1397  1.0442
17936TIP3   OH275298   2.293   1.362   5.330 -0.1304 -0.8719 -0.0222
17936TIP3    H175299   2.353   1.413   5.275 -0.8306 -1.0161 -0.9177
17936TIP3    H275300   2.349   1.327   5.399  0.3345  1.4456  0.8888
17937TIP3   OH275301   5.588   3.176  14.457  0.2254 -0.3827  0.3915
17937TIP3    H175302   5.673   3.216  14.439  0.2373 -0.6076 -0.0653
17937TIP3    H275303   5.566   3.206  14.545 -0.7124  2.3177 -0.6588
17938TIP3   OH275304   1.555   3.908   5.026  0.2919  0.0100 -0.0637
17938TIP3    H175305   1.491   3.908   5.096 -0.1819 -1.2078 -0.4704
17938TIP3    H275306   1.614   3.835   5.048 -1.9952 -2.9118 -2.7394
17939TIP3   OH275307   0.527   5.289   1.792 -0.2911 -0.0966 -0.7117
17939TIP3    H175308   0.528   5.218   1.727  0.6619  0.7661 -1.6881
17939TIP3    H275309   0.548   5.367   1.741  0.1314  0.6627  0.5898
17940TIP3   OH275310   4.135   4.565   6.259  0.6387  0.2020 -0.1631
17940TIP3    H175311   4.130   4.620   6.337 -0.2590 -1.5728  1.1021
17940TIP3    H275312   4.211   4.509   6.274  0.0870 -0.5812 -0.2517
17941TIP3   OH275313   2.183   5.201   4.226  0.4517 -0.6315  0.2102
17941TIP3    H175314   2.246   5.156   4.282 -0.0101 -1.2597  0.2347
17941TIP3    H275315   2.231   5.220   4.146  1.6432  1.7525  1.3782
17942TIP3   OH275316   4.613   4.712  13.309 -0.0279  0.2518  0.2637
17942TIP3    H175317   4.632   4.687  13.218  0.7263 -0.5676  0.6301
17942TIP3    H275318   4.623   4.808  13.310 -0.3566  0.3063 -0.5788
17943TIP3   OH275319   1.875   3.100   4.199  0.3966 -0.0442  0.1149
17943TIP3    H175320   1.808   3.162   4.226 -0.3107 -0.3967 -0.7835
17943TIP3    H275321   1.893   3.122   4.107 -0.3533 -1.5676 -0.4355
17944TIP3   OH275322   4.131   0.612   0.664 -0.2747 -0.4031  0.0429
17944TIP3    H175323   4.069   0.540   0.655 -1.6989  0.6258  1.0923
17944TIP3    H275324   4.214   0.577   0.633 -0.9768 -2.4086  0.2978
17945TIP3   OH275325   2.344   1.350   3.901 -0.4848  0.1872 -0.5712
17945TIP3    H175326   2.319   1.272   3.851 -0.9985 -0.4019  0.5777
17945TIP3    H275327   2.429   1.375   3.866 -0.7281 -0.3447 -1.5790
17946TIP3   OH275328   3.657   3.724  12.873  0.7214 -1.0116 -0.4394
17946TIP3    H175329   3.647   3.629  12.871 -0.3745 -0.8937 -1.9871
17946TIP3    H275330   3.746   3.739  12.904  1.6706 -2.5955 -2.2628
17947TIP3   OH275331   5.731   6.746   2.559  0.6622  0.0694 -0.2005
17947TIP3    H175332   5.812   6.786   2.589 -0.0956  1.1376  0.5079
17947TIP3    H275333   5.698   6.697   2.635  2.5757 -3.7952 -1.5737
17948TIP3   OH275334   3.565   0.490   2.680 -0.1386 -0.0437  0.1420
17948TIP3    H175335   3.519   0.573   2.689  0.7740  0.4185  0.7836
17948TIP3    H275336   3.616   0.499   2.599 -2.0573 -1.0284 -1.2452
17949TIP3   OH275337   4.726   2.824  14.920  0.4890 -0.0083  0.3809
17949TIP3    H175338   4.770   2.771  14.987 -1.4633 -1.7357  0.4041
17949TIP3    H275339   4.633   2.806  14.934 -0.2923  3.3398  0.2427
17950TIP3   OH275340   1.899   5.021   1.962  0.0259 -0.3377 -0.6853
17950TIP3    H175341   1.901   5.106   2.008 -1.5152 -1.2891  1.3313
17950TIP3    H275342   1.986   4.984   1.977 -0.0657 -0.1157  0.5192
17951TIP3   OH275343   6.678   4.267  17.092  0.0916 -0.2017 -0.4118
17951TIP3    H175344   6.749   4.213  17.056 -0.9119 -0.9706 -1.2789
17951TIP3    H275345   6.616   4.204  17.129  0.4564  0.5124  1.5712
17952TIP3   OH275346   6.383   4.585   3.881 -0.1754  0.2247  0.2146
17952TIP3    H175347   6.346   4.597   3.969 -1.6947 -0.9296 -0.2346
17952TIP3    H275348   6.406   4.492   3.877 -2.7600 -0.4305 -1.5348
17953TIP3   OH275349   6.539   5.482  11.580 -0.0884 -0.0059 -0.1947
17953TIP3    H175350   6.447   5.490  11.605  0.0938 -0.0695  0.5050
17953TIP3    H275351   6.554   5.555  11.521 -0.3941  0.4386  0.2728
17954TIP3   OH275352   3.389   4.723   1.311 -0.1953  0.2343  0.0013
17954TIP3    H175353   3.451   4.733   1.238  0.0196  0.2885  0.1909
17954TIP3    H275354   3.402   4.801   1.364 -0.3217  0.1732  0.1211
17955TIP3   OH275355   3.568   3.438   1.603  0.1215  0.5376  0.0886
17955TIP3    H175356   3.474   3.434   1.590  0.0414  1.1568  0.4611
17955TIP3    H275357   3.581   3.506   1.669  0.8539  0.7589 -0.2717
17956TIP3   OH275358   2.427   2.854  14.946  0.4708 -0.3103  0.4525
17956TIP3    H175359   2.478   2.798  15.003  1.9354  0.4936 -0.0268
17956TIP3    H275360   2.357   2.797  14.912  0.5164 -1.1909  1.7853
17957TIP3   OH275361   1.298   5.594   0.711 -0.6118 -0.2486 -0.0568
17957TIP3    H175362   1.335   5.580   0.799 -1.1042  2.2485  0.6264
17957TIP3    H275363   1.206   5.568   0.719 -0.7343  0.2753  0.2697
17958TIP3   OH275364   0.407   1.889  12.017  0.3167  0.3458  0.1883
17958TIP3    H175365   0.423   1.829  12.089 -0.6601  0.8115  0.8109
17958TIP3    H275366   0.317   1.869  11.989  0.8826 -0.2396 -1.3006
17959TIP3   OH275367   4.821   3.432   5.336 -0.9674 -0.0209 -0.4888
17959TIP3    H175368   4.756   3.502   5.335  0.3725  1.3552  1.3848
17959TIP3    H275369   4.813   3.394   5.423  0.4575 -0.0598 -0.3505
17960TIP3   OH275370   0.631   2.879  13.045  0.0522 -0.4297 -0.0048
17960TIP3    H175371   0.708   2.924  13.079 -0.8326 -0.1667  1.8213
17960TIP3    H275372   0.608   2.817  13.114  0.2535 -2.5261 -1.7492
17961TIP3   OH275373   2.654   5.848   0.748 -0.0059 -0.2672  0.3188
17961TIP3    H175374   2.585   5.825   0.811 -2.1357  1.5400 -1.2107
17961TIP3    H275375   2.735   5.827   0.794 -1.4507 -4.8468  1.3605
17962TIP3   OH275376   4.054   3.647   0.404 -0.0129  0.0618 -0.4324
17962TIP3    H175377   4.073   3.644   0.498 -0.3918  0.5734 -0.3380
17962TIP3    H275378   4.133   3.683   0.365 -0.4901  1.4976 -0.1165
17963TIP3   OH275379   5.727   4.078  16.599  0.0452  0.0942 -0.2955
17963TIP3    H175380   5.660   4.122  16.547 -1.2677 -1.6072 -0.0950
17963TIP3    H275381   5.784   4.036  16.535 -0.7538 -0.8208 -0.4258
17964TIP3   OH275382   6.730   2.694   5.488 -0.0083 -0.0960 -0.0378
17964TIP3    H175383   6.689   2.764   5.437  1.0079 -0.2182 -1.0662
17964TIP3    H275384   6.663   2.626   5.493 -0.5395  0.4113 -0.1687
17965TIP3   OH275385   0.907   6.121  16.618  0.3916  0.7708  0.1874
17965TIP3    H175386   0.970   6.193  16.618  3.0170 -1.3839  0.4279
17965TIP3    H275387   0.956   6.046  16.648 -1.5007 -1.7311 -2.4029
17966TIP3   OH275388   4.821   3.379   1.453 -0.6273  0.0983 -0.1690
17966TIP3    H175389   4.769   3.331   1.388 -1.8721 -0.4236  1.1594
17966TIP3    H275390   4.896   3.323   1.470 -0.9915 -0.3981 -0.1774
17967TIP3   OH275391   1.102   1.756  12.736  0.3135 -0.2202 -0.5815
17967TIP3    H175392   1.187   1.761  12.779 -0.5574  1.3117  1.1441
17967TIP3    H275393   1.039   1.748  12.808 -1.1943  1.7388 -1.5577
17968TIP3   OH275394   4.745   4.095  13.511  0.1437  0.1072  0.4538
17968TIP3    H175395   4.673   4.154  13.535 -0.0124 -0.3925  1.2873
17968TIP3    H275396   4.759   4.043  13.590  0.4344 -0.8088 -0.1846
17969TIP3   OH275397   6.389   6.822   5.936 -0.6727 -0.3469 -0.0114
17969TIP3    H175398   6.392   6.857   6.025 -0.2525  0.9721 -0.5182
17969TIP3    H275399   6.458   6.756   5.934  1.0385  1.3381 -0.0209
17970TIP3   OH275400   3.483   2.560   0.488 -0.1428 -0.1144 -0.4146
17970TIP3    H175401   3.513   2.537   0.400  1.1478  0.9991 -0.2956
17970TIP3    H275402   3.559   2.544   0.544 -0.7922 -0.3164  0.4252
17971TIP3   OH275403   1.697   6.546   3.561  0.4599 -0.0317 -0.0174
17971TIP3    H175404   1.661   6.497   3.635  1.2670  0.2462  0.5716
17971TIP3    H275405   1.711   6.480   3.493  2.0687 -0.7579  0.9609
17972TIP3   OH275406   0.147   1.684  14.522 -0.0916  0.4115  0.1447
17972TIP3    H175407   0.110   1.746  14.458  0.6432  0.1118 -0.5874
17972TIP3    H275408   0.072   1.655  14.574 -0.4966  1.6996  0.3183
17973TIP3   OH275409   0.741   1.273   0.284 -0.4446 -0.1473  0.4570
17973TIP3    H175410   0.793   1.276   0.204  0.1592  3.9108  0.8103
17973TIP3    H275411   0.805   1.274   0.354 -0.9714  0.1915  0.9431
17974TIP3   OH275412   4.437   6.671   4.010 -0.6494  0.9806  0.1121
17974TIP3    H175413   4.460   6.668   4.103  1.5825  1.6835 -0.3421
17974TIP3    H275414   4.395   6.756   3.997 -0.4119  1.1419  0.3908
17975TIP3   OH275415   1.964   5.350  11.419  0.3210  0.4396  0.1025
17975TIP3    H175416   1.877   5.318  11.395 -0.3070  1.9474  0.2763
17975TIP3    H275417   1.961   5.361  11.514  1.3557 -1.2871  0.3943
17976TIP3   OH275418   0.940   4.137   2.247 -0.1857 -0.0463  0.2633
17976TIP3    H175419   0.846   4.151   2.235 -0.1477  1.0990  1.1171
17976TIP3    H275420   0.980   4.221   2.225  0.9298 -1.1961 -2.5736
17977TIP3   OH275421   2.848   0.344  16.676 -0.0153  0.2184 -0.2954
17977TIP3    H175422   2.831   0.250  16.674  1.6792 -0.2177  1.8927
17977TIP3    H275423   2.933   0.352  16.721  0.8131  2.6928 -2.0717
17978TIP3   OH275424   3.511   0.188  13.918 -0.7622  0.2276  0.3733
17978TIP3    H175425   3.511   0.272  13.965 -1.8898  1.5924 -1.8630
17978TIP3    H275426   3.603   0.170  13.901 -0.5269  3.4833 -3.0218
17979TIP3   OH275427   2.481   0.902   1.228  0.2564 -0.0190 -0.5654
17979TIP3    H175428   2.406   0.893   1.287 -0.3585  0.0704 -1.3129
17979TIP3    H275429   2.557   0.907   1.286 -0.3760  0.6138  0.2377
17980TIP3   OH275430   2.872   1.028   6.172 -0.3249 -0.3802  0.0121
17980TIP3    H175431   2.819   1.083   6.230 -1.9625 -0.7782 -1.0568
17980TIP3    H275432   2.866   1.069   6.086  0.3810 -0.9192 -0.3086
17981TIP3   OH275433   6.350   1.194  13.638  0.0904  0.0165  0.2462
17981TIP3    H175434   6.295   1.270  13.658 -0.9195 -0.6184 -0.0373
17981TIP3    H275435   6.289   1.128  13.605  0.9312 -0.9490  0.5522
17982TIP3   OH275436   1.223   2.314  12.399  0.6959  0.3335  0.3538
17982TIP3    H175437   1.168   2.247  12.439  1.0850 -1.7155 -2.2250
17982TIP3    H275438   1.166   2.356  12.334  0.9146  1.4591  0.8585
17983TIP3   OH275439   5.537   5.546  15.637  0.2439 -0.4939 -0.3460
17983TIP3    H175440   5.617   5.536  15.585  0.4202 -0.6102 -0.0573
17983TIP3    H275441   5.497   5.458  15.636  0.8152 -0.7797  0.6213
17984TIP3   OH275442   1.984   3.640  10.723 -0.4266  0.0741  0.4391
17984TIP3    H175443   1.999   3.735  10.715  1.8028 -0.1360  1.4058
17984TIP3    H275444   2.070   3.604  10.741 -0.7655 -2.4953 -2.4227
17985TIP3   OH275445   6.426   4.589   3.126 -0.2447 -0.6647 -0.2611
17985TIP3    H175446   6.517   4.568   3.104  0.6358  1.0919  1.4091
17985TIP3    H275447   6.384   4.604   3.041  1.8308  1.5095 -1.0351
17986TIP3   OH275448   1.077   5.513   1.534  0.4055 -0.9397 -0.0650
17986TIP3    H175449   1.052   5.594   1.578 -0.3330 -2.3884  2.3736
17986TIP3    H275450   1.168   5.498   1.561  0.5974 -0.8387 -0.6515
17987TIP3   OH275451   2.467   6.424   1.262 -0.6954 -0.4278  0.4889
17987TIP3    H175452   2.440   6.508   1.300  0.3104  0.0013  0.2753
17987TIP3    H275453   2.394   6.400   1.205 -0.6629  0.7144 -0.0749
17988TIP3   OH275454   0.226   0.512  16.547 -0.4121 -0.1769  0.3391
17988TIP3    H175455   0.186   0.429  16.521 -1.8333 -0.4798  3.0718
17988TIP3    H275456   0.175   0.579  16.502 -0.2076 -0.7216 -0.7290
17989TIP3   OH275457   4.214   1.253   1.973  0.0959 -0.2879  0.3333
17989TIP3    H175458   4.205   1.337   1.929  2.1650 -0.4416 -0.4830
17989TIP3    H275459   4.217   1.275   2.066  1.0094  0.5993  0.1121
17990TIP3   OH275460   0.343   2.685  15.063 -0.4977  0.4809 -0.6196
17990TIP3    H175461   0.282   2.687  14.989  1.5140  0.4447 -2.3799
17990TIP3    H275462   0.420   2.731  15.032  1.3870 -1.6615  0.5422
17991TIP3   OH275463   4.938   4.725   2.251  0.0643 -0.6523  0.2694
17991TIP3    H175464   4.919   4.735   2.344  0.6295 -1.6122  0.5015
17991TIP3    H275465   4.887   4.794   2.208 -0.4875 -0.4357  1.2524
17992TIP3   OH275466   6.398   5.186   6.348  0.5114 -0.0332  0.0423
17992TIP3    H175467   6.437   5.257   6.297 -1.7870  1.0555 -0.3217
17992TIP3    H275468   6.377   5.226   6.433 -0.5436 -0.3167 -0.0678
17993TIP3   OH275469   1.469   6.308  12.504  0.6216 -0.0628 -0.3185
17993TIP3    H175470   1.424   6.374  12.556  1.2012  1.0149 -1.1426
17993TIP3    H275471   1.520   6.258  12.568  0.1518  0.2634  0.3175
17994TIP3   OH275472   4.466   5.027   1.036  0.1904 -0.9329  0.0819
17994TIP3    H175473   4.496   4.949   1.083  2.0894  0.8825  2.1234
17994TIP3    H275474   4.381   5.048   1.076  0.5172 -0.9583  0.8059
17995TIP3   OH275475   4.249   1.902   6.830  0.1756 -0.2675  0.4296
17995TIP3    H175476   4.340   1.929   6.847  0.6777 -1.1993 -0.6457
17995TIP3    H275477   4.255   1.807   6.815 -0.9527 -0.2966  0.1049
17996TIP3   OH275478   2.641   4.245   0.184  0.4420  0.3223  0.6620
17996TIP3    H175479   2.699   4.172   0.162  2.6478  2.5083 -1.4832
17996TIP3    H275480   2.561   4.227   0.136  1.8493  0.3853 -1.8916
17997TIP3   OH275481   3.947   2.804  14.178 -0.2641  0.2970 -0.1545
17997TIP3    H175482   3.910   2.892  14.186  1.1674  1.0523 -1.3533
17997TIP3    H275483   3.996   2.806  14.096 -0.9783 -1.9381 -0.7006
17998TIP3   OH275484   1.478   1.633   4.324  0.0583  0.8004  0.2315
17998TIP3    H175485   1.406   1.671   4.274  0.2599 -0.8384 -1.4448
17998TIP3    H275486   1.459   1.539   4.325  1.5403  0.4764  0.8013
17999TIP3   OH275487   3.992   4.207   4.024 -0.1436 -0.0531 -0.5948
17999TIP3    H175488   4.081   4.202   4.061 -0.1200 -2.5805 -0.8454
17999TIP3    H275489   3.937   4.163   4.089 -0.8532 -0.4928 -1.4864
18000TIP3   OH275490   0.410   5.200   3.793 -0.2397 -0.1160  0.4428
18000TIP3    H175491   0.460   5.206   3.874 -0.8111  1.0308  0.7345
18000TIP3    H275492   0.421   5.109   3.765  0.4746 -0.3706  1.4646
18001TIP3   OH275493   3.764   4.070   1.894  0.4455  0.3173  0.0905
18001TIP3    H175494   3.828   4.017   1.941 -0.1864 -0.1203  0.4631
18001TIP3    H275495   3.725   4.126   1.960  0.5862  0.7298 -0.1726
18002TIP3   OH275496   1.491   2.533  16.228 -0.3831  0.1990  0.3026
18002TIP3    H175497   1.504   2.607  16.287  2.4945 -1.4639  2.0069
18002TIP3    H275498   1.467   2.460  16.285 -0.0436 -0.8904 -0.9038
18003TIP3   OH275499   3.453   4.216   2.923  0.2021  0.3229 -0.2240
18003TIP3    H175500   3.378   4.262   2.961 -1.4799 -1.1749 -1.5208
18003TIP3    H275501   3.525   4.234   2.983 -1.4901  0.8113  1.7977
18004TIP3   OH275502   6.710   5.743  14.452 -0.3077  0.4227  0.3669
18004TIP3    H175503   6.700   5.835  14.476 -0.9681  0.1334  1.2423
18004TIP3    H275504   6.682   5.695  14.530 -0.1613 -0.5243 -0.1552
18005TIP3   OH275505   0.868   0.839   4.429  1.0528 -0.1774 -0.4164
18005TIP3    H175506   0.962   0.857   4.432  1.0514  0.3436 -2.0645
18005TIP3    H275507   0.859   0.747   4.454  1.9253 -0.0436  0.4150
18006TIP3   OH275508   5.094   1.734   5.157 -0.2554 -0.3608  0.3908
18006TIP3    H175509   5.190   1.736   5.155 -0.2392 -1.4605 -0.4544
18006TIP3    H275510   5.070   1.664   5.096 -1.5642 -0.9438  1.5397
18007TIP3   OH275511   4.300   6.209  10.942  0.4742 -0.1115 -0.1382
18007TIP3    H175512   4.377   6.256  10.973  0.5424 -0.2134 -0.1539
18007TIP3    H275513   4.324   6.180  10.853  0.0582  0.7114 -0.5301
18008TIP3   OH275514   6.184   0.018   3.632 -0.4402 -0.3800 -0.2419
18008TIP3    H175515   6.138   0.019   3.716 -0.6461  2.4927 -0.2976
18008TIP3    H275516   6.264  -0.034   3.648  0.1461  1.1346  2.1118
18009TIP3   OH275517   6.775   5.012   5.508 -0.2723 -0.1832 -0.4879
18009TIP3    H175518   6.799   5.010   5.601 -0.5462 -0.3120 -0.4190
18009TIP3    H275519   6.777   5.104   5.484  1.3995 -0.2579 -0.7725
18010TIP3   OH275520   4.544   0.154  11.747 -0.1961  0.3199  0.6564
18010TIP3    H175521   4.496   0.075  11.769  0.4818  0.2256  1.8760
18010TIP3    H275522   4.621   0.153  11.804  1.7213  0.0345 -1.7383
18011TIP3   OH275523   3.765   3.004  15.945 -0.6962  0.1410 -0.8282
18011TIP3    H175524   3.819   3.067  15.993  0.1351 -1.4063  0.3501
18011TIP3    H275525   3.679   3.046  15.941 -0.0609  1.5512 -0.4988
18012TIP3   OH275526   6.154   6.729  17.059  0.0111 -0.3033 -0.4214
18012TIP3    H175527   6.109   6.813  17.072  0.2858  0.1613 -2.1546
18012TIP3    H275528   6.242   6.754  17.030  0.5596 -1.2075  0.3982
18013TIP3   OH275529   0.184   2.043   2.659  0.1843  0.2042 -0.0127
18013TIP3    H175530   0.179   1.969   2.599  0.0580  0.1781  0.0310
18013TIP3    H275531   0.170   2.006   2.746  0.1353  0.2763  0.0106
18014TIP3   OH275532   6.173   3.983  13.016  0.6273  0.0524  0.4314
18014TIP3    H175533   6.128   4.041  12.955  0.6063 -0.4815 -0.0772
18014TIP3    H275534   6.209   4.041  13.083 -0.2389  0.5506  0.4736
18015TIP3   OH275535   5.429   2.859  16.366 -0.4763  0.2637 -0.0762
18015TIP3    H175536   5.423   2.764  16.356 -3.3200  0.3811 -0.1952
18015TIP3    H275537   5.484   2.887  16.293  0.5778 -1.2795  0.0799
18016TIP3   OH275538   1.875   4.015  13.236 -0.7364 -0.0880 -0.1275
18016TIP3    H175539   1.865   3.984  13.326 -2.1526  1.4517  0.3102
18016TIP3    H275540   1.899   3.937  13.186 -0.8617 -1.1738  1.4222
18017TIP3   OH275541   3.129   4.570   2.493  0.1597  0.4249  0.4729
18017TIP3    H175542   3.204   4.630   2.495  0.7108 -0.2661  0.8130
18017TIP3    H275543   3.155   4.497   2.548  0.3208 -1.0961 -1.5194
18018TIP3   OH275544   1.112   2.525  14.143  0.0420 -0.4000  0.3842
18018TIP3    H175545   1.017   2.523  14.132  0.2541 -0.0860 -2.0425
18018TIP3    H275546   1.126   2.576  14.223 -1.8017 -0.3476  0.7177
18019TIP3   OH275547   0.489   6.648  14.139 -0.3648 -0.0034  0.1204
18019TIP3    H175548   0.415   6.608  14.186  0.4958 -1.1773  0.5292
18019TIP3    H275549   0.567   6.615  14.184  0.4167  1.9658  0.2955
18020TIP3   OH275550   2.976   6.551  15.334 -0.1234 -0.3026  0.4246
18020TIP3    H175551   2.887   6.562  15.301  0.2569  1.3537 -0.1750
18020TIP3    H275552   3.023   6.505  15.265 -0.3283 -0.5036  0.4193
18021TIP3   OH275553   1.495   4.553  12.190  0.4039  0.2526  0.0510
18021TIP3    H175554   1.534   4.635  12.163 -0.6245  0.9511  0.5929
18021TIP3    H275555   1.422   4.579  12.247 -0.8850 -0.9659 -0.9633
18022TIP3   OH275556   6.058   2.477  15.405 -0.3490 -0.6182 -0.4396
18022TIP3    H175557   6.078   2.490  15.312  0.8538 -1.4810 -0.3287
18022TIP3    H275558   6.113   2.403  15.431 -0.2081 -0.0157  1.1034
18023TIP3   OH275559   3.791   4.523  12.881 -0.3838 -0.1128  0.5305
18023TIP3    H175560   3.882   4.535  12.854 -0.5769 -0.2360 -0.1679
18023TIP3    H275561   3.797   4.464  12.957  0.0293 -1.0933 -0.2434
18024TIP3   OH275562   3.762   3.660  17.159  0.6092 -0.4570  0.3904
18024TIP3    H175563   3.824   3.688  17.227  1.0299  0.6603 -0.4227
18024TIP3    H275564   3.684   3.635  17.207  0.0626  2.4622  1.2232
18025TIP3   OH275565   1.799   1.403   1.608 -0.0675 -0.2881 -0.2151
18025TIP3    H175566   1.851   1.324   1.599 -1.7288 -1.4934  0.2080
18025TIP3    H275567   1.745   1.405   1.529 -1.0614 -0.3964  0.4423
18026TIP3   OH275568   2.344   5.959   3.628  0.0696 -0.5672 -0.4478
18026TIP3    H175569   2.415   5.982   3.688 -0.1896 -0.6855 -0.0935
18026TIP3    H275570   2.371   5.875   3.589  0.4159 -0.3029 -0.7861
18027TIP3   OH275571   0.377   6.286  16.273 -0.8488  0.6983 -0.1007
18027TIP3    H175572   0.426   6.251  16.200  0.0576  1.6162  0.0390
18027TIP3    H275573   0.439   6.284  16.347 -1.7372 -0.1994  0.6460
18028TIP3   OH275574   2.773   1.645  14.731  0.0313 -0.0952  0.3846
18028TIP3    H175575   2.680   1.644  14.754  0.2674  0.2598  1.3571
18028TIP3    H275576   2.815   1.696  14.800  0.9593 -0.2917 -0.0242
18029TIP3   OH275577   0.871   4.703   3.437 -0.2738  0.7033  0.1399
18029TIP3    H175578   0.879   4.643   3.363  2.5304  1.2505 -0.1338
18029TIP3    H275579   0.838   4.784   3.400 -2.0039  0.0175  0.1208
18030TIP3   OH275580   0.605   6.700   4.102 -0.1971  0.0592 -0.4020
18030TIP3    H175581   0.648   6.693   4.017  1.3390 -2.2334  0.4573
18030TIP3    H275582   0.675   6.725   4.163 -0.8816 -0.0544  0.4551
18031TIP3   OH275583   4.712   5.132  12.659 -0.1383  0.5327 -0.0736
18031TIP3    H175584   4.661   5.212  12.648  0.1001  0.8317  0.8981
18031TIP3    H275585   4.787   5.159  12.712  0.5729 -0.0894 -0.7344
18032TIP3   OH275586   2.154   5.633  16.033 -0.0866  0.2439  0.2066
18032TIP3    H175587   2.173   5.722  16.062  0.2028  0.7792 -1.5117
18032TIP3    H275588   2.234   5.584  16.050  1.3996  1.3824 -2.7059
18033TIP3   OH275589   5.111   6.786  15.193  0.2085 -0.1264  0.0047
18033TIP3    H175590   5.120   6.786  15.098 -2.0539 -1.8498 -0.2988
18033TIP3    H275591   5.025   6.825  15.210  1.4762  2.2075  1.5508
18034TIP3   OH275592   0.862   6.812   5.966 -0.4034  1.3205 -0.3925
18034TIP3    H175593   0.903   6.749   6.024  1.2001  1.4750 -1.3241
18034TIP3    H275594   0.778   6.832   6.008  1.0990  2.1964  2.4194
18035TIP3   OH275595   6.133   0.478   3.673  0.3290 -0.1256  0.1834
18035TIP3    H175596   6.074   0.517   3.608 -1.0093 -1.5898  0.4516
18035TIP3    H275597   6.111   0.522   3.755  2.2700  1.9830 -0.3263
18036TIP3   OH275598   2.309   1.118   3.763  0.4306 -0.0392  0.2777
18036TIP3    H175599   2.215   1.113   3.746  0.5118 -0.5301 -0.0335
18036TIP3    H275600   2.333   1.031   3.794  0.7644  0.1132  0.4500
18037TIP3   OH275601   2.631   4.353   3.716  0.1359 -0.2519  0.7379
18037TIP3    H175602   2.578   4.287   3.761 -1.1081 -0.9754 -1.5652
18037TIP3    H275603   2.710   4.361   3.769 -0.8374 -1.6245  2.5249
18038TIP3   OH275604   1.105   0.741  14.204  0.3526 -0.2947 -0.4657
18038TIP3    H175605   1.050   0.678  14.250  0.1305  1.7886  2.4149
18038TIP3    H275606   1.058   0.824  14.215  3.3140  1.3342  0.9075
18039TIP3   OH275607   3.543   0.473   3.113 -0.2568 -0.6570 -0.6144
18039TIP3    H175608   3.474   0.535   3.093 -0.2008 -0.4378 -0.1563
18039TIP3    H275609   3.502   0.387   3.103 -0.3575 -0.5483 -1.1671
18040TIP3   OH275610   0.403   6.377  11.090 -0.2624  0.4712 -0.2911
18040TIP3    H175611   0.427   6.284  11.094 -2.4002 -0.1572 -1.2065
18040TIP3    H275612   0.426   6.404  11.002 -3.0186 -0.2426 -1.3191
18041TIP3   OH275613   2.955   6.699   5.636  0.2635 -0.1007  0.2117
18041TIP3    H175614   2.860   6.706   5.645 -0.2085 -2.6491 -1.4874
18041TIP3    H275615   2.976   6.615   5.676  1.6036 -0.1423 -0.5424
18042TIP3   OH275616   1.723   6.513  10.824  0.4092  0.2512 -0.1062
18042TIP3    H175617   1.728   6.417  10.825 -0.1024  0.1647 -2.0136
18042TIP3    H275618   1.745   6.537  10.734 -2.0044  1.7653 -0.3741
18043TIP3   OH275619   4.857   1.440   2.189  0.3402  0.0066 -0.0233
18043TIP3    H175620   4.878   1.383   2.115  1.4618  2.5225 -1.8075
18043TIP3    H275621   4.861   1.383   2.265 -1.3803 -2.8472 -1.8863
18044TIP3   OH275622   2.792   5.075   3.105  0.0203  0.4037  0.4878
18044TIP3    H175623   2.848   5.105   3.176 -0.7830 -0.3822  1.4788
18044TIP3    H275624   2.704   5.104   3.128 -0.4706 -1.0017  0.5345
18045TIP3   OH275625   2.944   3.351  12.733 -0.6064 -0.1669 -0.1811
18045TIP3    H175626   2.860   3.307  12.737 -0.9911  0.5970  0.3282
18045TIP3    H275627   2.957   3.372  12.641 -0.1048 -1.9173 -0.5322
18046TIP3   OH275628   3.761   4.884   5.294 -0.1794  0.0997  0.3009
18046TIP3    H175629   3.695   4.853   5.356 -2.5276 -0.6094 -2.3593
18046TIP3    H275630   3.721   4.961   5.253  0.7590 -0.1609 -1.1872
18047TIP3   OH275631   3.215   4.669   3.996 -0.4157 -0.2661 -0.0270
18047TIP3    H175632   3.219   4.676   3.901  2.3500  1.2986  0.1009
18047TIP3    H275633   3.158   4.740   4.024 -2.4008 -1.5890 -0.5023
18048TIP3   OH275634   1.579   6.681  11.003  0.3508 -0.1613  0.4998
18048TIP3    H175635   1.628   6.629  10.939 -1.3803 -0.4314 -0.6884
18048TIP3    H275636   1.487   6.670  10.977 -0.2314  1.6613  1.6128
18049TIP3   OH275637   3.136   6.607   0.479  0.8341  0.3827  0.6234
18049TIP3    H175638   3.125   6.575   0.568 -0.3024 -1.0571  0.0166
18049TIP3    H275639   3.050   6.640   0.454  0.6368 -0.8810 -0.5121
18050TIP3   OH275640   5.762   2.349  17.172 -0.0161 -0.4183 -0.4914
18050TIP3    H175641   5.706   2.384  17.241 -0.6655 -2.6261  0.1936
18050TIP3    H275642   5.736   2.397  17.093 -1.5893 -0.0992  0.1766
18051TIP3   OH275643   4.297   2.539   0.172  0.3624  0.2106 -0.0760
18051TIP3    H175644   4.226   2.525   0.235  0.5318 -0.6382 -0.0677
18051TIP3    H275645   4.371   2.492   0.208  0.9398  1.0676 -0.1047
18052TIP3   OH275646   6.563   5.230  11.246  0.0508  0.5803 -0.3929
18052TIP3    H175647   6.467   5.232  11.253 -0.1857 -0.8146 -2.5309
18052TIP3    H275648   6.581   5.269  11.161  1.4209  0.8572  0.0048
18053TIP3   OH275649   1.400   2.822  11.015  0.2784  0.4687 -0.1493
18053TIP3    H175650   1.455   2.846  10.940 -1.4468  1.3898 -1.1690
18053TIP3    H275651   1.461   2.819  11.089  1.9822 -0.1881 -1.5117
18054TIP3   OH275652   6.562   2.976  17.038 -0.2169  0.4898 -0.1368
18054TIP3    H175653   6.594   2.886  17.050  1.1621  1.0313  0.5246
18054TIP3    H275654   6.587   3.021  17.119  0.1452  1.7398 -0.9107
18055TIP3   OH275655   3.864   2.617  12.337 -0.0624 -0.1539 -0.2176
18055TIP3    H175656   3.817   2.692  12.371 -0.0769 -0.5162  0.5817
18055TIP3    H275657   3.828   2.604  12.249  0.1440  0.9326 -0.4687
18056TIP3   OH275658   0.982   4.450  13.308 -0.2851  0.3239 -0.1407
18056TIP3    H175659   0.952   4.500  13.384  1.0872  0.8404  0.0780
18056TIP3    H275660   0.944   4.363  13.321 -0.8429  0.6650  0.6457
18057TIP3   OH275661   4.004   4.337   1.716 -0.4071 -0.5023  0.1973
18057TIP3    H175662   3.989   4.305   1.805  0.6006 -1.8862 -0.0972
18057TIP3    H275663   4.098   4.329   1.703 -0.3537  0.9709 -0.5413
18058TIP3   OH275664   6.010   6.335   2.533  0.1462 -0.2711 -0.0318
18058TIP3    H175665   5.925   6.374   2.552 -0.1464 -1.8388  2.2137
18058TIP3    H275666   6.028   6.360   2.442 -1.9169  1.4722 -0.0377
18059TIP3   OH275667   6.183   2.976   5.356  0.4895 -0.5959  0.0277
18059TIP3    H175668   6.150   3.063   5.380  0.3134 -0.5032 -0.5554
18059TIP3    H275669   6.239   2.951   5.430 -1.1682 -0.9369  1.2398
18060TIP3   OH275670   0.860   4.057   5.012 -0.3818 -0.1591 -0.6008
18060TIP3    H175671   0.930   3.993   5.011  0.3746  0.5700  1.1065
18060TIP3    H275672   0.904   4.141   5.000 -1.3232  0.1037 -2.4971
18061TIP3   OH275673   4.293   5.175  14.101  0.3473  0.0128 -0.3055
18061TIP3    H175674   4.307   5.269  14.087 -1.9304  0.3564 -0.6188
18061TIP3    H275675   4.348   5.133  14.035 -0.9260  1.2527 -2.2412
18062TIP3   OH275676   5.978   4.147   3.449 -0.3624 -0.2733 -0.4502
18062TIP3    H175677   6.008   4.238   3.443  0.0102 -0.3895 -0.3225
18062TIP3    H275678   6.054   4.098   3.478  0.0202 -0.9459 -2.4150
18063TIP3   OH275679   4.832   2.484   4.500 -0.2362  0.0517 -0.1264
18063TIP3    H175680   4.894   2.425   4.543 -1.7057  0.4244  2.7741
18063TIP3    H275681   4.804   2.436   4.422  1.1879 -1.5717  0.2943
18064TIP3   OH275682   3.927   5.596  16.087  0.1950 -0.4741 -0.4219
18064TIP3    H175683   3.924   5.682  16.130  0.8447 -0.1803 -0.9403
18064TIP3    H275684   3.942   5.534  16.158  1.0795 -0.0081 -0.1874
18065TIP3   OH275685   1.050   3.428   0.919 -0.5210  0.2139  0.0583
18065TIP3    H175686   1.137   3.455   0.891 -0.4664 -0.0488 -0.0272
18065TIP3    H275687   1.015   3.505   0.965  0.1055  0.0219  0.8816
18066TIP3   OH275688   4.829   2.985  13.243  0.5690 -0.3219  0.0691
18066TIP3    H175689   4.779   2.916  13.287 -1.6370  1.5743  0.7364
18066TIP3    H275690   4.810   2.974  13.150 -1.8338  0.7955  0.3563
18067TIP3   OH275691   4.857   2.256   0.678  0.0641 -0.2038 -0.3557
18067TIP3    H175692   4.769   2.221   0.670 -0.3985  0.3918  1.4890
18067TIP3    H275693   4.879   2.244   0.771  1.4294  0.7639 -0.5226
18068TIP3   OH275694   0.748   3.736   1.186  0.6466  0.1852 -0.5015
18068TIP3    H175695   0.675   3.797   1.193 -0.8206 -1.5983  0.3495
18068TIP3    H275696   0.753   3.715   1.093 -1.3749 -1.3019 -0.3286
18069TIP3   OH275697   0.202   3.451  15.537  0.0021 -0.2178  0.3496
18069TIP3    H175698   0.142   3.519  15.505 -1.5095 -0.9637  1.4252
18069TIP3    H275699   0.144   3.385  15.575  1.4761 -1.6560  0.2005
18070TIP3   OH275700   2.390   5.797   4.369 -0.0927 -0.6799 -0.1177
18070TIP3    H175701   2.335   5.818   4.444  0.7029 -1.9041  0.8393
18070TIP3    H275702   2.466   5.753   4.406 -0.4310 -2.7991 -1.7800
18071TIP3   OH275703   2.933   3.025   6.168 -0.2269  0.1261 -0.8416
18071TIP3    H175704   2.901   3.115   6.168 -0.8023 -0.0515 -2.2073
18071TIP3    H275705   3.025   3.032   6.192 -0.8269  0.8234  1.4829
18072TIP3   OH275706   6.124   0.348  14.019  0.1665  0.1576  0.7704
18072TIP3    H175707   6.189   0.278  14.030 -0.0445 -0.0340  0.8175
18072TIP3    H275708   6.042   0.302  14.002 -0.1455  0.3616  1.6487
18073TIP3   OH275709   0.755   4.940   3.845 -0.3808  0.6812 -0.4259
18073TIP3    H175710   0.697   4.889   3.902 -0.6031  1.2106 -0.1684
18073TIP3    H275711   0.841   4.935   3.886 -0.1013 -0.5681 -1.1019
18074TIP3   OH275712   1.888   1.043  10.926 -0.6953  0.4380 -0.0942
18074TIP3    H175713   1.884   1.039  11.022  0.1609 -2.2614 -0.0808
18074TIP3    H275714   1.979   1.062  10.907 -0.7235  0.2934 -0.3737
18075TIP3   OH275715   5.831   4.463  12.306  0.6527 -0.7608 -0.0491
18075TIP3    H175716   5.910   4.424  12.343  0.8719 -2.1879 -1.8933
18075TIP3    H275717   5.861   4.505  12.225 -0.2348 -0.0166  0.0002
18076TIP3   OH275718   3.405   5.539   5.198  0.4717  0.2514  0.2624
18076TIP3    H175719   3.428   5.615   5.145 -1.1831  0.9049  0.4232
18076TIP3    H275720   3.426   5.565   5.287 -1.4184  1.1276  0.4995
18077TIP3   OH275721   6.169   2.259   5.708  0.3873  0.2623 -0.3376
18077TIP3    H175722   6.172   2.249   5.803  0.5316 -0.1553 -0.3809
18077TIP3    H275723   6.200   2.348   5.691  0.4897  0.2896  0.0011
18078TIP3   OH275724   6.516   4.804   5.000  0.0470 -0.0589 -0.8670
18078TIP3    H175725   6.506   4.733   5.065 -1.0624  0.1638 -0.7661
18078TIP3    H275726   6.507   4.884   5.051  1.4634  0.1741 -0.9592
18079TIP3   OH275727   4.557   3.658   3.034 -0.1213 -0.6418 -0.0658
18079TIP3    H175728   4.643   3.687   3.064  0.7510  0.1093 -2.9415
18079TIP3    H275729   4.566   3.563   3.025  1.0217 -0.4079 -1.8771
18080TIP3   OH275730   3.532   0.466   2.241  0.6534  0.6590  0.3132
18080TIP3    H175731   3.503   0.534   2.180  0.9995  0.9008  0.4104
18080TIP3    H275732   3.564   0.396   2.185  1.8373  1.2586  0.1963
18081TIP3   OH275733   1.638   1.509   2.883 -0.4023  0.7875  0.2174
18081TIP3    H175734   1.678   1.571   2.944  0.6282  1.9768 -1.5663
18081TIP3    H275735   1.700   1.436   2.879  0.0214  1.1537 -0.1034
18082TIP3   OH275736   1.803   5.909   1.378 -0.3610  0.6514  0.4024
18082TIP3    H175737   1.832   5.977   1.317 -1.4558  1.1831  0.4546
18082TIP3    H275738   1.881   5.888   1.429  0.8507 -0.4399 -1.7030
18083TIP3   OH275739   4.273   0.167   0.000  0.2744 -0.2212  0.3671
18083TIP3    H175740   4.267   0.254  -0.038  4.1791 -0.3362 -1.0435
18083TIP3    H275741   4.359   0.166   0.044 -0.8452 -2.5239  2.8125
18084TIP3   OH275742   2.330   3.526   4.117 -0.2756  0.0794  0.1558
18084TIP3    H175743   2.408   3.469   4.113  0.5075  1.1650 -2.0995
18084TIP3    H275744   2.361   3.606   4.158 -0.1417  0.5219 -0.7669
18085TIP3   OH275745   4.415   3.074   4.503 -0.4217  0.2876 -0.4261
18085TIP3    H175746   4.501   3.109   4.479 -2.2455  4.5055 -1.8564
18085TIP3    H275747   4.374   3.144   4.555 -2.6716 -1.9808  1.1130
18086TIP3   OH275748   0.649   4.081  15.428 -0.3580  0.6796  0.1708
18086TIP3    H175749   0.633   3.989  15.411 -0.0942  0.5436  0.6330
18086TIP3    H275750   0.591   4.103  15.501 -0.4958  0.9047 -0.0042
18087TIP3   OH275751   3.593   6.822   0.506 -0.3425 -0.5981 -0.3005
18087TIP3    H175752   3.513   6.831   0.557  0.4034  2.2109  0.5842
18087TIP3    H275753   3.572   6.758   0.438 -2.5238 -1.7307  1.3259
18088TIP3   OH275754   0.964   0.023  13.021 -0.4435 -0.4701  0.1283
18088TIP3    H175755   0.915   0.102  12.999  1.0475  0.1753 -1.0272
18088TIP3    H275756   0.994   0.037  13.111  0.5016  0.6767 -0.3421
18089TIP3   OH275757   0.389   1.369  13.542 -0.0845  0.6289 -0.2913
18089TIP3    H175758   0.326   1.436  13.567 -0.0442  0.4916  0.1864
18089TIP3    H275759   0.427   1.340  13.625  0.4245  0.5327 -0.5576
18090TIP3   OH275760   2.922   4.042   5.141 -0.6679 -0.2983  0.5115
18090TIP3    H175761   2.853   4.007   5.084 -0.1860 -1.3243  0.5236
18090TIP3    H275762   2.898   4.133   5.156 -0.8377  0.0001 -1.3145
18091TIP3   OH275763   4.783   2.250   5.602 -0.7611  0.5458 -0.4444
18091TIP3    H175764   4.727   2.172   5.598  2.5710 -2.0433 -0.6226
18091TIP3    H275765   4.791   2.279   5.511 -0.9446  0.2755 -0.5473
18092TIP3   OH275766   4.629   2.901   1.924  0.3094  0.2989 -0.2811
18092TIP3    H175767   4.539   2.925   1.949  0.9036  0.6719  1.6436
18092TIP3    H275768   4.620   2.813   1.888 -0.8051  0.2513  0.0536
18093TIP3   OH275769   4.979   5.728  17.167 -0.0276 -0.2203 -0.4520
18093TIP3    H175770   4.916   5.695  17.232  0.1683  0.1001 -0.0983
18093TIP3    H275771   5.028   5.650  17.141 -0.6363 -0.4933 -0.8098
18094TIP3   OH275772   5.108   3.728   2.641 -0.0911 -0.0624  0.0051
18094TIP3    H175773   5.065   3.702   2.560  0.3379  0.5809 -0.4333
18094TIP3    H275774   5.036   3.739   2.704 -0.3127 -2.4589  0.2985
18095TIP3   OH275775   2.408   2.001  13.648 -0.1622 -0.3678 -0.4297
18095TIP3    H175776   2.396   2.094  13.627  1.1114  0.3465  1.6615
18095TIP3    H275777   2.395   1.996  13.742 -0.7300 -2.4488 -0.5741
18096TIP3   OH275778   2.593   6.614   6.103 -0.0451  0.0323 -0.1444
18096TIP3    H175779   2.548   6.641   6.182 -1.4378  1.2985 -1.3003
18096TIP3    H275780   2.561   6.674   6.035  0.7840 -1.2468 -1.7548
18097TIP3   OH275781   3.073   3.598   1.143 -0.3044 -0.0190 -0.6077
18097TIP3    H175782   2.981   3.598   1.168 -0.0794  1.1820  0.3234
18097TIP3    H275783   3.087   3.685   1.106  0.3440 -0.3695 -1.2087
18098TIP3   OH275784   3.843   5.208   5.864  0.0873  0.1084 -0.3794
18098TIP3    H175785   3.920   5.198   5.808 -0.3150 -0.4086 -0.8418
18098TIP3    H275786   3.795   5.125   5.856 -0.6434  0.5097 -0.2818
18099TIP3   OH275787   3.990   4.725  13.239 -0.1316 -0.5272  0.4813
18099TIP3    H175788   3.903   4.690  13.259 -0.7995  0.2898 -0.8521
18099TIP3    H275789   3.973   4.811  13.200  1.1982 -0.8110 -0.8219
18100TIP3   OH275790   0.718   5.707  15.113  0.4299  0.4128 -0.9339
18100TIP3    H175791   0.678   5.620  15.112 -1.1331  1.0833 -0.9841
18100TIP3    H275792   0.648   5.765  15.145  1.8619  1.4519  0.5039
18101TIP3   OH275793   6.452   2.851  16.189 -0.6494  0.1118 -0.3179
18101TIP3    H175794   6.377   2.882  16.137 -2.8298 -0.9221  1.9863
18101TIP3    H275795   6.476   2.925  16.244 -2.1286 -0.4685  1.1750
18102TIP3   OH275796   2.458   6.119  11.079 -0.0150 -0.2193 -0.1417
18102TIP3    H175797   2.411   6.201  11.093 -0.9849 -0.8749  0.6745
18102TIP3    H275798   2.447   6.099  10.986 -0.5002  0.1520 -0.1653
18103TIP3   OH275799   2.330   2.520   1.548 -0.0554 -0.1459  0.6797
18103TIP3    H175800   2.323   2.535   1.453  0.1766 -1.0378  0.5155
18103TIP3    H275801   2.424   2.520   1.565 -0.0834 -0.4984  0.8282
18104TIP3   OH275802   1.707   3.002  13.609 -0.7451  0.5716  0.0203
18104TIP3    H175803   1.669   3.078  13.564  0.9127  0.6740 -1.2829
18104TIP3    H275804   1.720   3.031  13.699 -0.0197  1.9007 -0.4914
18105TIP3   OH275805   1.803   2.983  11.259  0.1575  0.6512  0.2412
18105TIP3    H175806   1.887   2.980  11.214  1.6337  0.7403  2.7745
18105TIP3    H275807   1.757   3.057  11.221  1.5146  1.0285 -0.7207
18106TIP3   OH275808   4.955   4.172   3.156  0.0864  0.1722  0.1654
18106TIP3    H175809   4.895   4.151   3.084 -0.2320  0.9206  0.2001
18106TIP3    H275810   5.023   4.226   3.115  0.7611 -0.6829  0.1238
18107TIP3   OH275811   4.884   5.131   2.781  0.1510 -0.0180  0.2057
18107TIP3    H175812   4.872   5.131   2.876  1.0493  1.3728  0.3332
18107TIP3    H275813   4.872   5.222   2.755 -0.9238 -0.5083 -1.1434
18108TIP3   OH275814   1.001   3.513   3.821  0.5423  0.0893 -0.1614
18108TIP3    H175815   1.007   3.432   3.771  1.2124  0.1269 -0.1550
18108TIP3    H275816   1.036   3.580   3.762  1.3063  0.1404  0.3346
18109TIP3   OH275817   6.722   3.925   1.105 -0.4459  0.3472 -0.4221
18109TIP3    H175818   6.710   4.017   1.128 -0.7207  0.1138  0.4103
18109TIP3    H275819   6.637   3.884   1.125  0.7381 -0.8078  2.9161
18110TIP3   OH275820   1.353   4.506   4.872  0.1262  0.2042  0.0631
18110TIP3    H175821   1.423   4.572   4.875  1.4889 -1.1280 -0.7504
18110TIP3    H275822   1.397   4.426   4.842 -1.1068 -1.5428  2.5479
18111TIP3   OH275823   2.959   0.520  14.242  0.4959  0.0049  0.5995
18111TIP3    H175824   2.935   0.449  14.302 -0.0411 -0.2919  0.0537
18111TIP3    H275825   3.021   0.479  14.182 -0.0582 -0.1095  0.0869
18112TIP3   OH275826   4.691   4.706  14.599  0.1338 -0.6056  0.4669
18112TIP3    H175827   4.694   4.686  14.692  1.2166  1.4216  0.9253
18112TIP3    H275828   4.781   4.693  14.569  0.2579  0.7964  0.1951
18113TIP3   OH275829   5.512   4.155  14.377  0.5770  0.1666 -0.1574
18113TIP3    H175830   5.471   4.173  14.292  1.1917 -0.6338 -0.6465
18113TIP3    H275831   5.589   4.101  14.355 -0.6757 -2.2944  1.0887
18114TIP3   OH275832   2.864   5.792   0.919  0.1970  0.3609 -1.0331
18114TIP3    H175833   2.911   5.855   0.974 -1.3629  0.2645  0.4843
18114TIP3    H275834   2.934   5.743   0.875  1.5033  1.0885  0.1302
18115TIP3   OH275835   5.795   0.178   0.736  0.3960  0.1675  0.1280
18115TIP3    H175836   5.866   0.191   0.672  0.8274 -0.2466  0.5128
18115TIP3    H275837   5.718   0.160   0.683  1.0214 -1.5287 -0.2682
18116TIP3   OH275838   3.832   5.880   6.490  0.0030  0.6485  0.0341
18116TIP3    H175839   3.836   5.975   6.474 -0.2686  0.5198 -0.8875
18116TIP3    H275840   3.750   5.852   6.449 -0.3468  0.1404  1.0578
18117TIP3   OH275841   0.535   2.764  14.482  0.2856  0.4248  0.1235
18117TIP3    H175842   0.511   2.687  14.534 -0.5162 -0.8066 -1.9522
18117TIP3    H275843   0.625   2.748  14.455 -0.6166 -1.0562 -2.2903
18118TIP3   OH275844   3.032   3.279   1.094  0.0606  0.0709 -0.0210
18118TIP3    H175845   3.070   3.325   1.019 -1.0135 -1.9054 -1.9048
18118TIP3    H275846   2.970   3.341   1.131 -0.0542  0.7956 -1.3499
18119TIP3   OH275847   6.029   0.015   2.160 -0.6948  0.2590  0.3231
18119TIP3    H175848   6.123   0.002   2.170 -0.2357  2.5525 -0.3943
18119TIP3    H275849   5.990  -0.037   2.231  1.2427  0.9591  2.0254
18120TIP3   OH275850   1.000   1.170  13.153  0.3211 -0.5688  0.0074
18120TIP3    H175851   1.018   1.116  13.231 -0.8603 -2.0039 -0.6656
18120TIP3    H275852   0.991   1.107  13.082 -0.2123  0.5953 -0.9919
18121TIP3   OH275853   2.071   6.363   1.426  0.5928  0.3780 -0.4893
18121TIP3    H175854   2.073   6.410   1.509  0.0891  1.6324 -1.1367
18121TIP3    H275855   2.146   6.304   1.429  0.3710  0.1344  0.9875
18122TIP3   OH275856   1.860   4.777   4.584  0.6252 -0.5063 -0.7294
18122TIP3    H175857   1.912   4.855   4.564 -1.1907  0.7437 -0.8334
18122TIP3    H275858   1.774   4.797   4.547  0.0538 -2.4880 -0.5440
18123TIP3   OH275859   2.879   0.078   2.709 -0.1138 -0.2733 -0.0397
18123TIP3    H175860   2.924   0.161   2.725  0.4855 -0.8928  1.8509
18123TIP3    H275861   2.810   0.077   2.776 -1.3210 -0.4771 -1.2651
18124TIP3   OH275862   5.881   6.035   5.451 -0.4909  0.2245  0.0410
18124TIP3    H175863   5.920   6.035   5.539 -2.1209  0.8372  0.7996
18124TIP3    H275864   5.798   6.082   5.461 -0.3915  0.9377 -1.9887
18125TIP3   OH275865   5.613   6.622   2.780 -0.3193 -0.0214  0.3767
18125TIP3    H175866   5.646   6.591   2.864 -1.2254 -1.3245  0.2863
18125TIP3    H275867   5.544   6.684   2.803 -0.2152  0.0162  0.5909
18126TIP3   OH275868   2.740   6.696  16.956 -0.3631 -0.8575  0.2097
18126TIP3    H175869   2.799   6.650  16.896  0.4769  1.3523 -0.7553
18126TIP3    H275870   2.658   6.705  16.907 -0.8166 -1.9808  0.7176
18127TIP3   OH275871   5.171   2.705   2.284 -0.2231  0.2155 -0.5883
18127TIP3    H175872   5.231   2.732   2.214  0.3018 -0.6638 -0.4895
18127TIP3    H275873   5.114   2.640   2.242  0.7253 -1.0498  0.0298
18128TIP3   OH275874   2.888   4.136   0.314 -0.6431 -0.0374  0.3276
18128TIP3    H175875   2.858   4.118   0.403  0.8438  0.0293  0.8752
18128TIP3    H275876   2.842   4.071   0.260  0.2414 -1.7076  1.4858
18129TIP3   OH275877   1.844   2.250  17.175  0.2913  0.1140 -0.5510
18129TIP3    H175878   1.847   2.218  17.085  1.1427 -0.7789 -0.2126
18129TIP3    H275879   1.824   2.173  17.228  2.7471 -0.0209  0.3100
18130TIP3   OH275880   2.255   0.978  14.132 -0.3033 -0.1436  0.4788
18130TIP3    H175881   2.208   0.940  14.058 -1.5227  1.2903  0.4911
18130TIP3    H275882   2.291   0.902  14.178  1.8955 -1.0636 -2.4127
18131TIP3   OH275883   4.937   2.305  14.569 -0.1318 -0.2558 -0.4796
18131TIP3    H175884   4.903   2.372  14.628 -0.9922  0.1420 -1.3955
18131TIP3    H275885   5.024   2.335  14.545  0.6105 -0.8775  1.2613
18132TIP3   OH275886   5.737   0.070   1.250  0.0142  0.1971 -0.0108
18132TIP3    H175887   5.826   0.107   1.248  1.2899 -2.6707 -1.9157
18132TIP3    H275888   5.686   0.128   1.193  1.0775  0.8822 -0.2930
18133TIP3   OH275889   0.632   1.356   3.306  0.0309 -0.4276 -0.0052
18133TIP3    H175890   0.640   1.316   3.218  2.4709 -0.2733  0.0662
18133TIP3    H275891   0.580   1.293   3.356  0.0985 -1.3878 -1.0956
18134TIP3   OH275892   4.437   6.522  11.667  0.1658 -0.6212 -0.1593
18134TIP3    H175893   4.383   6.552  11.594 -0.2605  0.8738  0.7301
18134TIP3    H275894   4.512   6.480  11.625 -0.3149 -0.2446 -1.4536
18135TIP3   OH275895   0.437   0.834   0.370  0.3630 -0.2298  0.2007
18135TIP3    H175896   0.363   0.846   0.429 -0.2109  0.2586 -0.5951
18135TIP3    H275897   0.508   0.802   0.426  0.4570  2.1216  1.5657
18136TIP3   OH275898   5.957   2.212  14.312 -0.0244  0.5160  0.0832
18136TIP3    H175899   5.939   2.151  14.383  0.4981 -1.1264 -1.1428
18136TIP3    H275900   5.870   2.235  14.278 -0.3376  2.0012  1.7342
18137TIP3   OH275901   5.324   2.873   1.755  0.0941  0.2079  0.1987
18137TIP3    H175902   5.336   2.968   1.757  1.2785  0.1486 -1.5731
18137TIP3    H275903   5.260   2.855   1.824 -0.9309  2.3867 -0.1131
18138TIP3   OH275904   6.775   0.139  14.584 -0.7275  0.8881  0.5097
18138TIP3    H175905   6.854   0.176  14.624  0.0778  0.3852 -0.5617
18138TIP3    H275906   6.759   0.193  14.507 -0.2339 -0.2083 -0.3979
18139TIP3   OH275907   4.913   4.115  12.971 -0.4057 -0.2778  0.1845
18139TIP3    H175908   4.873   4.052  12.911  0.9242  0.5368 -1.6603
18139TIP3    H275909   4.884   4.088  13.058  0.6754 -3.8790 -0.4218
18140TIP3   OH275910   5.968   6.351   1.312 -0.1783 -0.2596  0.0205
18140TIP3    H175911   6.054   6.371   1.275 -0.1751 -0.1829  0.0676
18140TIP3    H275912   5.930   6.437   1.332 -0.8478 -0.2216 -1.3187
18141TIP3   OH275913   0.512   2.856  16.287 -0.3278 -0.1821 -0.2676
18141TIP3    H175914   0.498   2.765  16.261 -0.0217 -0.9070  1.8829
18141TIP3    H275915   0.549   2.850  16.375  3.8314  1.8518 -1.5875
18142TIP3   OH275916   6.718   5.217   0.143 -0.2662 -0.5571  0.3404
18142TIP3    H175917   6.705   5.300   0.098  0.2978 -0.1567  0.9028
18142TIP3    H275918   6.720   5.152   0.072  1.7256  0.1698 -0.3657
18143TIP3   OH275919   6.197   1.033  15.930  0.3206  0.1671 -0.2848
18143TIP3    H175920   6.261   1.084  15.978  0.0820  1.6935 -1.5226
18143TIP3    H275921   6.140   0.996  15.998  1.8444 -0.3770  0.7586
18144TIP3   OH275922   1.322   5.101  11.309  0.0183  0.2155  0.1731
18144TIP3    H175923   1.359   5.183  11.343 -0.3909  0.0255  1.1161
18144TIP3    H275924   1.236   5.125  11.275 -0.9769 -0.1236  2.2807
18145TIP3   OH275925   3.031   2.903  10.758  0.1638  0.3531  0.6110
18145TIP3    H175926   2.946   2.876  10.793  0.8585 -1.1431  1.2484
18145TIP3    H275927   3.010   2.969  10.692 -1.6704 -1.6189 -0.9044
18146TIP3   OH275928   2.192   4.577  12.329  0.4438 -0.1044  0.4190
18146TIP3    H175929   2.168   4.502  12.385 -0.8104  0.0421  0.1076
18146TIP3    H275930   2.224   4.537  12.249  2.2374 -0.3182  1.1847
18147TIP3   OH275931   5.725   5.528  15.058 -0.2285 -0.3211 -0.0031
18147TIP3    H175932   5.695   5.450  15.013 -1.6435  0.6827 -0.8731
18147TIP3    H275933   5.727   5.596  14.991  1.7149  0.2450  0.5573
18148TIP3   OH275934   5.900   4.034  16.874  0.2748  0.3299  0.3595
18148TIP3    H175935   5.837   4.077  16.816 -0.7947 -2.7509 -0.9421
18148TIP3    H275936   5.956   3.983  16.815 -1.2703 -3.4679  1.9020
18149TIP3   OH275937   5.165   5.727  16.000  0.1020 -0.6568  0.2568
18149TIP3    H175938   5.108   5.676  16.057 -1.2959  0.3655 -0.1672
18149TIP3    H275939   5.129   5.816  16.004  0.7521 -0.2970 -1.2185
18150TIP3   OH275940   5.105   3.211   1.179 -0.7452 -0.4910 -0.3063
18150TIP3    H175941   5.179   3.166   1.138 -1.3329 -0.0490 -1.9091
18150TIP3    H275942   5.072   3.148   1.243 -0.1056 -1.4229 -0.8710
18151TIP3   OH275943   4.002   0.612   1.639 -0.0075  0.3611 -0.4452
18151TIP3    H175944   3.916   0.601   1.680  1.0311 -2.5901  1.2445
18151TIP3    H275945   4.012   0.535   1.583  1.2540  1.0288 -1.1923
18152TIP3   OH275946   5.310   3.924  14.581  0.3030 -0.4408  0.1852
18152TIP3    H175947   5.369   3.899  14.509  0.8148 -2.1752  1.1564
18152TIP3    H275948   5.368   3.958  14.648 -0.1707  1.1168 -0.1631
18153TIP3   OH275949   0.626   2.873  15.345  1.2319 -0.2052  0.1778
18153TIP3    H175950   0.678   2.845  15.420  0.3061 -2.2328  0.1471
18153TIP3    H275951   0.564   2.801  15.331 -0.0767  1.1145 -1.1667
18154TIP3   OH275952   0.602   4.427   5.922  0.5545 -0.7296  0.3645
18154TIP3    H175953   0.647   4.488   5.864 -1.3436  0.1688 -0.2544
18154TIP3    H275954   0.583   4.351   5.867  0.4264 -0.6646  0.3161
18155TIP3   OH275955   5.648   1.407   0.863 -0.5462 -0.9127 -0.3384
18155TIP3    H175956   5.644   1.362   0.947 -2.2049 -0.3994 -0.1091
18155TIP3    H275957   5.656   1.500   0.885 -0.5292 -0.8121 -0.7508
18156TIP3   OH275958   3.053   0.286   2.467  0.2266  0.0582  0.5706
18156TIP3    H175959   3.097   0.270   2.551  3.6366 -0.3918 -1.1227
18156TIP3    H275960   3.038   0.380   2.466  2.1998  0.4284  0.8702
18157TIP3   OH275961   0.725   3.851   3.618  0.5614 -0.0361  0.3973
18157TIP3    H175962   0.756   3.762   3.605  0.8374 -0.0615  1.1674
18157TIP3    H275963   0.635   3.841   3.651  0.6764 -0.0416  0.7148
18158TIP3   OH275964   3.072   3.797   0.363  0.2396  0.2612  0.3533
18158TIP3    H175965   2.986   3.797   0.405 -0.8551  0.9792 -1.7537
18158TIP3    H275966   3.112   3.879   0.392  0.4727 -0.3260  1.7720
18159TIP3   OH275967   5.579   2.414  15.605 -0.1492  0.6436 -0.2132
18159TIP3    H175968   5.666   2.414  15.646  1.8218  0.3668 -3.9123
18159TIP3    H275969   5.589   2.473  15.530 -4.0464  2.6951  0.6727
18160TIP3   OH275970   0.600   3.154  11.498  0.4855  0.1531  0.3151
18160TIP3    H175971   0.650   3.229  11.465  1.3410  0.0717  1.3797
18160TIP3    H275972   0.521   3.192  11.536  1.5607  0.7025  2.1198
18161TIP3   OH275973   3.671   5.495   2.126  0.1057 -0.2079  0.0380
18161TIP3    H175974   3.594   5.438   2.123  0.0388 -0.2089  1.1895
18161TIP3    H275975   3.638   5.580   2.097 -0.2259 -0.3168  0.0850
18162TIP3   OH275976   5.686   1.136   1.495  0.4554  0.5990  0.0609
18162TIP3    H175977   5.737   1.095   1.425 -0.8723 -1.5227  0.2352
18162TIP3    H275978   5.597   1.140   1.460 -0.1609 -0.1847  1.4687
18163TIP3   OH275979   0.161   2.844  11.143 -0.0968  0.3976 -0.8493
18163TIP3    H175980   0.107   2.770  11.114  0.6018 -0.5305  0.1401
18163TIP3    H275981   0.122   2.920  11.100 -2.8503 -0.0833  0.5893
18164TIP3   OH275982   0.145   1.388   0.905  0.3253 -0.1581 -0.3599
18164TIP3    H175983   0.210   1.349   0.963  0.5411  0.3260 -0.2667
18164TIP3    H275984   0.185   1.471   0.878 -0.8853  0.8504  0.8722
18165TIP3   OH275985   5.560   3.786  16.890 -0.1479  0.1368  0.7427
18165TIP3    H175986   5.536   3.743  16.808  3.3932 -2.3363  0.7805
18165TIP3    H275987   5.489   3.762  16.950 -0.7123 -1.6145 -0.5330
18166TIP3   OH275988   0.814   6.636  10.394 -0.2558 -0.0343  0.4865
18166TIP3    H175989   0.823   6.716  10.342  0.2618 -0.0027  0.6166
18166TIP3    H275990   0.882   6.643  10.461 -1.0946  0.0659  1.3539
18167TIP3   OH275991   5.949   1.550  12.006  0.2387 -0.3045 -0.3769
18167TIP3    H175992   6.027   1.593  12.042  0.1826  0.5026 -1.1841
18167TIP3    H275993   5.971   1.533  11.914 -0.4861 -0.1828 -0.5773
18168TIP3   OH275994   3.333   5.818  14.663 -0.3803 -0.0197 -0.3025
18168TIP3    H175995   3.282   5.895  14.641 -1.5912 -0.9546 -0.8471
18168TIP3    H275996   3.273   5.745  14.654  0.5139 -0.9771  0.9958
18169TIP3   OH275997   0.849   0.005   0.118 -0.6530 -0.6920  0.1271
18169TIP3    H175998   0.920   0.025   0.058 -2.2048  1.2994 -1.1693
18169TIP3    H275999   0.842   0.082   0.175 -0.7110 -1.5707  1.3528
18170TIP3   OH276000   4.187   2.332   3.479 -0.6632 -0.0617  0.4280
18170TIP3    H176001   4.260   2.341   3.417 -0.3156 -0.6324  0.7455
18170TIP3    H276002   4.214   2.384   3.555 -0.9372  0.3587  0.2417
18171TIP3   OH276003   6.792   5.031  13.486 -0.0526  0.2030  0.1024
18171TIP3    H176004   6.878   5.020  13.446 -0.0401 -0.6070  0.3347
18171TIP3    H276005   6.737   4.965  13.443 -0.4581  0.4332  0.2540
18172TIP3   OH276006   6.635   1.849   1.919 -0.6937 -0.2915  0.1048
18172TIP3    H176007   6.618   1.759   1.948 -0.8632 -0.9706 -1.9561
18172TIP3    H276008   6.635   1.844   1.823  2.8398  1.2200 -0.1284
18173TIP3   OH276009   4.538   4.268   2.267  0.0811 -0.0114  0.1776
18173TIP3    H176010   4.594   4.327   2.317 -0.6720  1.1487 -0.2934
18173TIP3    H276011   4.558   4.287   2.175  1.4035 -2.0688 -0.0280
18174TIP3   OH276012   2.222   5.108  11.462 -0.1366 -0.1750  0.3492
18174TIP3    H176013   2.285   5.176  11.437  1.8105 -2.1137 -0.3549
18174TIP3    H276014   2.241   5.091  11.555 -1.7145  1.2744  0.9836
18175TIP3   OH276015   3.130   5.456   5.669 -0.2296  0.1595 -0.0246
18175TIP3    H176016   3.095   5.391   5.608 -0.8097  0.8124 -0.4153
18175TIP3    H276017   3.216   5.423   5.693 -0.7384 -1.0195  0.2227
18176TIP3   OH276018   4.381   5.380   6.000  0.0991  0.5878  0.4557
18176TIP3    H176019   4.345   5.317   6.063  0.0454  2.2398  2.1654
18176TIP3    H276020   4.475   5.362   6.000 -0.0816 -0.4288 -0.1928
18177TIP3   OH276021   1.143   2.618  11.269  0.8505  0.7765 -0.2229
18177TIP3    H176022   1.155   2.712  11.258  0.5227  0.7763 -0.6312
18177TIP3    H276023   1.142   2.604  11.363 -1.3024  1.4931 -0.0933
18178TIP3   OH276024   1.238   1.495   6.116  0.0642  0.0029  0.4139
18178TIP3    H176025   1.167   1.432   6.131  0.2360  0.1010  1.7003
18178TIP3    H276026   1.231   1.557   6.188  1.2647  0.1943  0.3842
18179TIP3   OH276027   3.921   1.184  13.012 -0.0166 -0.4657 -0.1085
18179TIP3    H176028   4.006   1.171  12.968  0.6056  1.1117  0.5763
18179TIP3    H276029   3.890   1.269  12.980 -0.7370 -0.4474  0.6143
18180TIP3   OH276030   1.029   6.531   4.626 -0.3685  0.0851 -0.7207
18180TIP3    H176031   0.937   6.540   4.603 -0.5764  0.8481  0.3161
18180TIP3    H276032   1.042   6.596   4.695  0.5672 -1.0966  0.2449
18181TIP3   OH276033   5.286   3.462  17.077  0.5967  0.0554  0.2568
18181TIP3    H176034   5.326   3.383  17.040  0.8151  0.6783 -0.9037
18181TIP3    H276035   5.346   3.532  17.051  0.9118  0.5039  2.0789
18182TIP3   OH276036   0.794   3.779  12.062  0.1159 -0.4835  0.8279
18182TIP3    H176037   0.703   3.797  12.041 -0.5163 -3.3854  0.7286
18182TIP3    H276038   0.802   3.797  12.156 -0.4687  0.0208  0.7829
18183TIP3   OH276039   0.890   3.863   2.318  0.3655 -0.0983 -0.6083
18183TIP3    H176040   0.962   3.801   2.304  1.1237  0.3203  1.1320
18183TIP3    H276041   0.920   3.944   2.275  0.0329 -0.4824 -1.5934
18184TIP3   OH276042   2.853   2.230  12.045 -0.5767  0.2098 -0.8450
18184TIP3    H176043   2.792   2.292  12.005 -1.3647 -1.6242 -2.6946
18184TIP3    H276044   2.939   2.272  12.037 -1.2453  1.6925 -0.6203
18185TIP3   OH276045   5.642   2.279   2.735  0.2197 -0.3776 -0.2858
18185TIP3    H176046   5.551   2.251   2.744  0.2306 -0.4960 -0.5325
18185TIP3    H276047   5.656   2.339   2.808 -0.2789  0.2033 -0.6514
18186TIP3   OH276048   6.503   5.358   6.174 -0.0655 -0.1279  0.6168
18186TIP3    H176049   6.585   5.405   6.159 -0.1074 -0.2016  0.1402
18186TIP3    H276050   6.498   5.295   6.102 -0.6959  0.0968  0.4535
18187TIP3   OH276051   3.879   5.615  15.048 -0.2034  0.0278 -0.0305
18187TIP3    H176052   3.812   5.636  14.984  1.1410  0.1812 -1.4367
18187TIP3    H276053   3.892   5.696  15.097 -0.6941  0.1270 -0.0628
18188TIP3   OH276054   2.333   2.764   4.782  0.2807 -0.5584  0.1885
18188TIP3    H176055   2.341   2.859   4.780  1.6909 -0.6628 -0.3200
18188TIP3    H276056   2.287   2.742   4.701  0.5716 -0.3584 -0.0320
18189TIP3   OH276057   1.545   3.336  15.510  0.3661 -0.4985 -0.1749
18189TIP3    H176058   1.639   3.353  15.519  0.7327 -2.7002  0.7158
18189TIP3    H276059   1.506   3.378  15.587  0.9335 -1.6010  0.7303
18190TIP3   OH276060   6.498   5.429   0.265 -0.7626 -0.1066  0.0196
18190TIP3    H176061   6.575   5.437   0.323 -0.1199 -0.4485 -0.7650
18190TIP3    H276062   6.467   5.340   0.279 -0.0019 -0.5249 -0.8844
18191TIP3   OH276063   0.061   2.596   1.919 -0.1287  0.3373  0.2945
18191TIP3    H176064   0.099   2.567   2.002  0.2330 -0.0279  0.0052
18191TIP3    H276065  -0.026   2.627   1.943 -0.9736 -1.9554  0.5000
18192TIP3   OH276066   1.473   1.974   4.421 -0.3055 -0.0352 -0.5960
18192TIP3    H176067   1.491   1.971   4.327 -2.6110 -0.7179 -1.0601
18192TIP3    H276068   1.401   2.036   4.431  1.7708  2.3332  1.1328
18193TIP3   OH276069   2.713   3.633  12.867 -0.6788 -0.0976 -0.2974
18193TIP3    H176070   2.690   3.726  12.859  0.2387  0.2048  0.4526
18193TIP3    H276071   2.806   3.632  12.886 -0.4044 -1.2434 -1.5469
18194TIP3   OH276072   1.638   0.981  15.881  0.0142 -0.1669  0.2509
18194TIP3    H176073   1.587   0.920  15.934 -0.7515  1.0764  1.0167
18194TIP3    H276074   1.711   1.007  15.938  0.7017 -0.8450 -0.3091
18195TIP3   OH276075   6.493   1.932  12.329 -0.5537 -0.1404 -0.4815
18195TIP3    H176076   6.536   2.005  12.283 -1.9757  0.0403 -1.5900
18195TIP3    H276077   6.554   1.909  12.399  0.1071  1.8711 -0.3279
18196TIP3   OH276078   6.288   2.393  14.516  0.1543  0.7374  0.0397
18196TIP3    H176079   6.214   2.334  14.531 -1.2760  2.3807 -0.2191
18196TIP3    H276080   6.359   2.357  14.570 -1.0458 -0.4604  0.8812
18197TIP3   OH276081   0.616   5.609   3.574 -0.1883 -0.2888  0.6950
18197TIP3    H176082   0.709   5.604   3.550 -0.0098  0.3049  1.2240
18197TIP3    H276083   0.589   5.517   3.583  0.1232 -0.4833 -0.2721
18198TIP3   OH276084   0.939   0.470   5.046  0.2438  0.0623  0.1004
18198TIP3    H176085   0.884   0.547   5.030  3.0707  3.0854  3.0404
18198TIP3    H276086   0.933   0.456   5.141  0.8076 -2.6170 -0.1800
18199TIP3   OH276087   4.659   3.191   1.942 -0.0557 -0.0828  0.5610
18199TIP3    H176088   4.659   3.185   1.846 -2.4498 -0.7750  0.5333
18199TIP3    H276089   4.645   3.101   1.971 -0.8097  0.3219  1.4916
18200TIP3   OH276090   0.595   3.146   1.903 -0.7738  1.1037  0.0453
18200TIP3    H176091   0.582   3.176   1.814  0.6696 -1.0313 -0.9602
18200TIP3    H276092   0.689   3.156   1.919 -0.5367 -0.9658  0.3019
18201TIP3   OH276093   1.761   2.042  10.884 -0.0936  0.1227 -0.7045
18201TIP3    H176094   1.682   2.075  10.927 -1.6631  0.2979 -3.5089
18201TIP3    H276095   1.790   2.113  10.828  1.4655 -0.3365 -0.5299
18202TIP3   OH276096   5.678   2.445  14.619  0.3860  0.2187  0.0435
18202TIP3    H176097   5.704   2.474  14.531  1.3424 -1.4881 -0.2816
18202TIP3    H276098   5.737   2.492  14.678  1.2578 -0.2976 -0.3993
18203TIP3   OH276099   0.825   5.773  17.166  0.1520 -0.0051  0.2862
18203TIP3    H176100   0.809   5.769  17.261  0.8965  0.9747  0.4688
18203TIP3    H276101   0.830   5.682  17.139 -1.8260 -0.3455  0.8673
18204TIP3   OH276102   0.684   2.150   2.827  0.2906 -0.0286 -1.0107
18204TIP3    H176103   0.691   2.113   2.915  1.0112  2.0698 -0.1421
18204TIP3    H276104   0.626   2.090   2.781 -0.9424 -0.6228  1.1908
18205TIP3   OH276105   5.710   1.705   1.201  0.6181 -0.2118  0.2187
18205TIP3    H176106   5.705   1.684   1.108 -2.9457 -1.8485  0.6263
18205TIP3    H276107   5.693   1.799   1.206 -1.3799 -0.4918 -0.7047
18206TIP3   OH276108   1.077   6.441   1.348  0.3010  0.0787  0.1981
18206TIP3    H176109   1.018   6.471   1.417 -0.2928 -0.1819 -0.1970
18206TIP3    H276110   1.151   6.402   1.396 -0.0024  0.0933  0.6886
18207TIP3   OH276111   2.069   0.482  14.667 -0.2265  0.4371  0.0383
18207TIP3    H176112   2.146   0.523  14.626  0.9202 -1.4007  0.2278
18207TIP3    H276113   1.998   0.497  14.606  0.4306  1.6076 -0.4724
18208TIP3   OH276114   2.345   6.068   0.827 -0.6495  0.5615 -0.4080
18208TIP3    H176115   2.409   6.032   0.888 -1.4101  0.4454  0.3444
18208TIP3    H276116   2.288   6.123   0.881 -1.8821 -0.2438 -0.8252
18209TIP3   OH276117   3.294   6.450  13.495  0.1037 -0.4719 -0.1236
18209TIP3    H176118   3.287   6.384  13.426 -0.9601 -0.7630  0.2380
18209TIP3    H276119   3.284   6.534  13.449 -0.4686 -0.6557 -0.3429
18210TIP3   OH276120   3.250   4.838   3.504  0.0038  0.0462 -1.0752
18210TIP3    H176121   3.155   4.848   3.501 -0.1502 -0.5435  0.4904
18210TIP3    H276122   3.267   4.757   3.456 -0.2482  0.2968 -1.5959
18211TIP3   OH276123   2.758   6.301  16.322 -0.2621 -0.6370 -0.4152
18211TIP3    H176124   2.736   6.371  16.384 -0.8478 -2.2646  1.3325
18211TIP3    H276125   2.840   6.328  16.282 -0.2322  0.8145  0.5659
18212TIP3   OH276126   5.996   4.706  11.844 -0.8290 -0.4075  0.2701
18212TIP3    H176127   5.946   4.788  11.841  2.1371  1.5714 -2.2812
18212TIP3    H276128   6.063   4.722  11.911 -0.3798 -0.8039 -0.0725
18213TIP3   OH276129   6.404   2.823   4.274  0.1224 -0.1747  0.1087
18213TIP3    H176130   6.471   2.772   4.321  0.8081 -0.8758 -1.5276
18213TIP3    H276131   6.356   2.870   4.342  0.3231 -2.0157  1.5840
18214TIP3   OH276132   6.676   4.897  11.693  0.2101 -1.1606 -0.5160
18214TIP3    H176133   6.626   4.833  11.643 -0.4297 -0.8745 -0.2479
18214TIP3    H276134   6.743   4.845  11.739 -1.5801 -1.9532  1.3508
18215TIP3   OH276135   1.744   3.952  13.969 -0.5729 -0.0921  0.0473
18215TIP3    H176136   1.677   3.964  13.901  1.7341  1.9490 -2.0868
18215TIP3    H276137   1.702   3.982  14.049 -2.9650 -1.1971 -0.7009
18216TIP3   OH276138   6.147   0.534   5.229 -0.4323  0.1385 -0.2843
18216TIP3    H176139   6.105   0.586   5.160  0.2574  2.1108  0.7296
18216TIP3    H276140   6.215   0.591   5.265 -1.2778 -0.5018  2.5640
18217TIP3   OH276141   1.422   3.747  14.998 -0.3705 -0.3768 -0.3982
18217TIP3    H176142   1.333   3.765  15.028 -0.6608  0.8788 -1.8576
18217TIP3    H276143   1.411   3.693  14.920  0.1945 -0.9914 -0.0605
18218TIP3   OH276144   5.568   0.856  12.723 -0.6185 -0.2786 -0.5901
18218TIP3    H176145   5.627   0.840  12.797  0.6058  1.2901 -1.1786
18218TIP3    H276146   5.545   0.948  12.730 -0.5841 -0.1309 -2.0992
18219TIP3   OH276147   6.516   5.510   4.389  0.3836  0.1207  0.9148
18219TIP3    H176148   6.494   5.593   4.346  0.1902  0.0235  0.8268
18219TIP3    H276149   6.432   5.468   4.404  0.5615 -2.0669 -2.9706
18220TIP3   OH276150   3.782   3.440   4.878 -0.1453  0.1309 -0.5100
18220TIP3    H176151   3.714   3.377   4.899  0.5400 -0.2867  0.5725
18220TIP3    H276152   3.737   3.523   4.869 -0.7775 -0.0922  0.4508
18221TIP3   OH276153   3.474   3.578  15.413 -0.3966 -0.0539  0.3695
18221TIP3    H176154   3.502   3.578  15.321 -0.9234 -0.6185  0.2029
18221TIP3    H276155   3.378   3.573  15.408 -0.4626  0.5751  0.9429
18222TIP3   OH276156   5.188   6.267   1.422 -0.0270  0.2985  0.7383
18222TIP3    H176157   5.154   6.180   1.444  0.2989  0.0446  0.2697
18222TIP3    H276158   5.283   6.259   1.436 -0.0358  0.6731  1.0000
18223TIP3   OH276159   4.592   4.142  16.831  0.5841  0.1572 -0.4507
18223TIP3    H176160   4.678   4.165  16.866  0.3529  1.7322 -0.8355
18223TIP3    H276161   4.610   4.093  16.751  1.2113  2.3482 -1.7461
18224TIP3   OH276162   6.053   5.016  15.068  0.9484  0.4531  0.1100
18224TIP3    H176163   5.971   5.065  15.064  0.3428 -0.6379 -1.3609
18224TIP3    H276164   6.039   4.951  15.138 -0.0226 -0.6961 -1.1135
18225TIP3   OH276165   4.780   4.278  12.659 -0.1595  0.0083  0.4403
18225TIP3    H176166   4.699   4.227  12.654  2.1765 -4.0763  0.0753
18225TIP3    H276167   4.800   4.281  12.753  0.4230 -1.0185  0.3505
18226TIP3   OH276168   0.836   4.555   1.942 -0.2623 -0.2748 -0.1206
18226TIP3    H176169   0.919   4.520   1.972 -0.3264 -1.1366 -0.9094
18226TIP3    H276170   0.785   4.478   1.915 -0.6069  0.3638 -1.3901
18227TIP3   OH276171   3.095   4.738  15.905 -0.3017  0.1650  0.4736
18227TIP3    H176172   3.148   4.811  15.871  0.0632 -0.6194 -0.7097
18227TIP3    H276173   3.029   4.723  15.837 -0.7562 -0.2105  0.9956
18228TIP3   OH276174   5.074   4.943  15.814 -0.0492 -0.4237 -0.0092
18228TIP3    H176175   5.043   5.025  15.853  0.2538 -0.1101 -0.4142
18228TIP3    H276176   5.169   4.946  15.826  0.3265  0.6711 -2.5732
18229TIP3   OH276177   0.868   4.731   2.352  0.0011  0.1876  0.0112
18229TIP3    H176178   0.953   4.755   2.388 -0.5757 -1.1942  2.4652
18229TIP3    H276179   0.813   4.808   2.366  0.3007  0.3570  0.2656
18230TIP3   OH276180   4.025   4.058   3.190 -0.3416  0.7000 -0.2120
18230TIP3    H176181   4.019   4.116   3.266  2.1990 -2.1313  2.4336
18230TIP3    H276182   4.115   4.067   3.160  0.1321 -1.7217  0.2752
18231TIP3   OH276183   5.457   6.532  11.357 -0.0427  0.3446 -0.5710
18231TIP3    H176184   5.457   6.437  11.343  0.0027  0.1128  0.8674
18231TIP3    H276185   5.367   6.552  11.382  0.3957  0.3472  1.0823
18232TIP3   OH276186   5.584   2.104  14.455  0.2465 -0.5455 -0.8090
18232TIP3    H176187   5.522   2.035  14.430 -0.6429  0.1086 -0.4813
18232TIP3    H276188   5.619   2.136  14.372 -0.0586 -0.7480 -1.0191
18233TIP3   OH276189   2.630   6.666   0.646  0.3137  0.3286 -0.2181
18233TIP3    H176190   2.552   6.687   0.595  0.9773  1.0065 -1.0059
18233TIP3    H276191   2.667   6.752   0.669 -0.4376  0.0608  2.2176
18234TIP3   OH276192   1.105   6.309  16.325  0.1874 -0.0716 -0.1209
18234TIP3    H176193   1.079   6.337  16.412  0.7863 -1.7064  0.6206
18234TIP3    H276194   1.066   6.222  16.314  1.5189 -0.6273 -0.7703
18235TIP3   OH276195   6.744   3.806  16.068 -0.1749 -0.6078 -0.3778
18235TIP3    H176196   6.713   3.757  16.144  0.7582  0.8219  0.9944
18235TIP3    H276197   6.665   3.842  16.029 -0.5730 -0.0398  0.8834
18236TIP3   OH276198   3.619   3.971   5.768 -0.1236  0.0887 -0.3617
18236TIP3    H176199   3.539   4.015   5.794 -0.2750 -0.0037 -0.6628
18236TIP3    H276200   3.624   3.894   5.825 -1.8051 -1.5364 -2.2571
18237TIP3   OH276201   2.513   3.207  14.643 -0.0131  0.4881  0.0623
18237TIP3    H176202   2.598   3.174  14.672  0.3598  1.6465  0.3238
18237TIP3    H276203   2.507   3.295  14.681 -1.2134  0.5190 -0.1711
18238TIP3   OH276204   0.660   3.274   3.262 -0.4288 -0.2635  0.4812
18238TIP3    H176205   0.603   3.350   3.271 -1.3205 -0.7253 -0.8356
18238TIP3    H276206   0.748   3.310   3.256 -0.7454  0.5954  0.8296
18239TIP3   OH276207   4.452   4.701  15.462  0.2204  0.7260  0.1228
18239TIP3    H176208   4.465   4.607  15.445  0.3140  1.0733 -1.9348
18239TIP3    H276209   4.493   4.715  15.547  2.2240 -0.6710 -0.5346
18240TIP3   OH276210   2.138   4.888   1.989 -0.0493  0.0297 -0.2379
18240TIP3    H176211   2.227   4.908   1.959  1.5340 -5.3081 -0.2198
18240TIP3    H276212   2.149   4.870   2.083 -1.3463  0.1369 -0.0568
18241TIP3   OH276213   0.249   6.805  16.394  0.1641 -0.1893  0.3836
18241TIP3    H176214   0.295   6.734  16.349 -0.8298 -1.4113  1.2335
18241TIP3    H276215   0.287   6.885  16.357  0.7647 -1.1420 -1.1663
18242TIP3   OH276216   5.306   1.335   3.538  0.0583 -0.3838 -0.1190
18242TIP3    H176217   5.213   1.354   3.551  0.4765  0.4611  2.0629
18242TIP3    H276218   5.330   1.388   3.463 -1.2193 -0.6356 -0.7439
18243TIP3   OH276219   6.273   6.107  14.465  0.0807  0.1058 -0.4653
18243TIP3    H176220   6.315   6.055  14.533  0.2102  0.1166 -0.5366
18243TIP3    H276221   6.248   6.044  14.398  2.0167  0.3473 -1.4846
18244TIP3   OH276222   3.757   0.814   5.645  0.2260 -0.7477  0.6269
18244TIP3    H176223   3.797   0.882   5.699  1.9613  0.9960 -2.5517
18244TIP3    H276224   3.822   0.745   5.641  0.2857 -0.6832  0.4614
18245TIP3   OH276225   0.630   1.350  10.784  0.9210 -0.2535 -0.3052
18245TIP3    H176226   0.556   1.305  10.743  1.2981 -1.9012  0.7325
18245TIP3    H276227   0.703   1.337  10.723  0.5419  0.8348 -1.0266
18246TIP3   OH276228   0.096   1.691  12.980 -0.0681  0.5046  0.0281
18246TIP3    H176229   0.148   1.689  13.060  0.0621 -1.1831 -0.0507
18246TIP3    H276230   0.160   1.707  12.910  0.1318 -0.0471  0.0790
18247TIP3   OH276231   3.705   1.274  15.744 -0.1701 -0.6070 -0.0941
18247TIP3    H176232   3.767   1.347  15.738  1.2761 -1.8105 -0.2858
18247TIP3    H276233   3.620   1.316  15.759  0.7389  1.0744  0.6221
18248TIP3   OH276234   1.026   0.695  12.898  0.9232  0.4149 -0.3119
18248TIP3    H176235   1.003   0.632  12.966 -1.0067  2.5179  1.1546
18248TIP3    H276236   0.946   0.704  12.845  0.6620  2.5244  0.3411
18249TIP3   OH276237   6.747   5.915  13.635 -0.1924  0.2672  0.0380
18249TIP3    H176238   6.761   5.863  13.555  0.5612  0.8547 -0.2308
18249TIP3    H276239   6.661   5.954  13.624 -1.6907 -2.4656  1.1424
18250TIP3   OH276240   3.720   4.902   3.554 -0.5687  0.8865  0.1475
18250TIP3    H176241   3.721   4.811   3.584  1.0900  0.8878  0.1787
18250TIP3    H276242   3.737   4.896   3.460 -0.3387  1.1583  0.1686
18251TIP3   OH276243   3.556   4.043   1.113  0.5893 -0.5856 -0.5230
18251TIP3    H176244   3.628   4.100   1.138  1.1667 -0.6699 -1.8923
18251TIP3    H276245   3.539   3.990   1.191  1.2334  0.2240  0.1835
18252TIP3   OH276246   1.478   6.302  13.418 -0.0653  0.1522  0.0500
18252TIP3    H176247   1.408   6.250  13.458 -0.6208  0.2762 -0.7463
18252TIP3    H276248   1.545   6.308  13.486 -0.6451 -0.3280  0.6757
18253TIP3   OH276249   6.445   0.299  13.615 -0.6541 -0.2173 -0.5501
18253TIP3    H176250   6.416   0.217  13.653  1.6805 -0.4945  0.8766
18253TIP3    H276251   6.445   0.361  13.688 -0.2578  0.4513 -1.0972
18254TIP3   OH276252   2.944   3.633   3.312 -0.2209 -0.1520  0.0283
18254TIP3    H176253   2.915   3.678   3.391  0.2626  0.4256 -0.1162
18254TIP3    H276254   3.001   3.562   3.344 -0.5872 -0.3556  0.2315
18255TIP3   OH276255   1.450   2.932   0.986  0.2272 -0.3908 -0.4880
18255TIP3    H176256   1.400   2.852   0.972 -0.0519 -0.2224 -0.4601
18255TIP3    H276257   1.522   2.906   1.044  0.3575 -0.7011 -0.7842
18256TIP3   OH276258   0.935   1.268   0.478  0.1965  0.6910 -0.0938
18256TIP3    H176259   1.009   1.215   0.509 -0.0297  0.2923 -0.2336
18256TIP3    H276260   0.884   1.287   0.557 -1.3685 -1.8401 -0.4109
18257TIP3   OH276261   3.625   1.752  16.543  0.2896  0.5323  0.0386
18257TIP3    H176262   3.536   1.781  16.522  1.3506  2.6519 -2.1512
18257TIP3    H276263   3.617   1.712  16.629 -3.1420 -1.4413 -0.9788
18258TIP3   OH276264   5.226   4.190   2.059  0.1003 -0.0222 -0.2567
18258TIP3    H176265   5.137   4.185   2.093 -0.1365 -0.0088 -0.8564
18258TIP3    H276266   5.215   4.205   1.965  0.7327 -0.5160 -0.4179
18259TIP3   OH276267   4.642   0.018  12.864 -0.2114 -0.2570  0.5182
18259TIP3    H176268   4.627  -0.061  12.812 -1.0455 -0.1843  0.6462
18259TIP3    H276269   4.589   0.086  12.822  0.1797  0.1446  0.6528
18260TIP3   OH276270   5.542   5.404   6.058 -0.2994 -0.1783  0.2761
18260TIP3    H176271   5.572   5.333   6.115 -1.2399  0.0439  1.0805
18260TIP3    H276272   5.561   5.484   6.109 -1.9617 -0.0211  0.7010
18261TIP3   OH276273   1.002   3.659   4.190 -0.5532  0.1407  0.2053
18261TIP3    H176274   0.955   3.620   4.116 -0.3340 -0.1878  0.2368
18261TIP3    H276275   1.050   3.732   4.151  0.6922 -0.8882 -0.2616
18262TIP3   OH276276   3.842   2.781  13.146  0.6623 -0.0659 -0.3564
18262TIP3    H176277   3.887   2.764  13.063  1.4191 -0.2584  0.0839
18262TIP3    H276278   3.911   2.775  13.212  0.0142 -0.1822  0.3166
18263TIP3   OH276279   4.986   2.533   3.122  0.4095 -0.0940 -0.4981
18263TIP3    H176280   4.988   2.466   3.190 -0.7568 -0.7865 -1.1238
18263TIP3    H276281   4.906   2.583   3.139 -0.3143 -0.7591 -1.7830
18264TIP3   OH276282   0.917   1.563  10.487  0.0634  0.1253  0.4119
18264TIP3    H176283   0.858   1.587  10.415  0.0696 -0.6488  0.1422
18264TIP3    H276284   0.977   1.637  10.494  0.2214  0.1036 -0.5460
18265TIP3   OH276285   4.975   2.810   0.914  0.4746 -0.3456 -0.5202
18265TIP3    H176286   4.893   2.774   0.879  0.5421 -0.2902 -0.7396
18265TIP3    H276287   4.948   2.862   0.990  0.6791 -3.7063  2.0944
18266TIP3   OH276288   5.909   6.240   4.215 -0.6742 -0.4935  0.8139
18266TIP3    H176289   5.957   6.312   4.174 -0.1941  0.2719  2.6269
18266TIP3    H276290   5.824   6.279   4.238 -0.6836 -0.7000  1.1406
18267TIP3   OH276291   1.965   3.772  14.961  0.8467 -0.1466  0.2063
18267TIP3    H176292   1.987   3.683  14.987  0.2422 -0.1057  0.8757
18267TIP3    H276293   2.039   3.799  14.905  1.8531 -0.4735  1.3332
18268TIP3   OH276294   1.951   3.658   3.480  0.3892 -0.1881  0.2067
18268TIP3    H176295   1.891   3.726   3.512 -0.0256 -0.3263 -0.2550
18268TIP3    H276296   1.898   3.608   3.418  0.4227 -1.4996  1.2049
18269TIP3   OH276297   2.949   4.521   1.854  0.2576 -0.3704  0.1103
18269TIP3    H176298   2.866   4.476   1.872  0.6761  0.1305  4.0468
18269TIP3    H276299   3.006   4.454   1.817 -0.9746 -1.4624  0.1305
18270TIP3   OH276300   2.047   5.193   4.718  0.3018 -0.0022  0.3872
18270TIP3    H176301   2.059   5.199   4.812 -0.0911  3.2599  0.3623
18270TIP3    H276302   2.135   5.190   4.681  0.6924  2.8403  0.8371
18271TIP3   OH276303   6.569   1.181  14.311 -0.7212 -0.1104 -0.3305
18271TIP3    H176304   6.492   1.127  14.293 -0.1253 -0.7356 -1.0641
18271TIP3    H276305   6.536   1.251  14.368 -2.3860  1.0825 -2.6264
18272TIP3   OH276306   4.296   5.286  15.018  0.2372 -0.5444 -0.5407
18272TIP3    H176307   4.239   5.321  15.086  1.0669  1.4109 -0.7752
18272TIP3    H276308   4.243   5.286  14.939  0.4693  1.2017 -0.7431
18273TIP3   OH276309   0.311   2.507  11.691 -0.2444 -0.2918 -0.3498
18273TIP3    H176310   0.225   2.502  11.648 -0.9791  0.0989  1.0166
18273TIP3    H276311   0.310   2.591  11.737  0.6008 -0.5885  0.2380
18274TIP3   OH276312   4.647   5.354  11.054  0.2074 -0.1945 -0.4510
18274TIP3    H176313   4.657   5.268  11.094 -0.7900 -0.8520 -1.5319
18274TIP3    H276314   4.726   5.402  11.079  0.9004 -1.5107 -0.0358
18275TIP3   OH276315   6.076   5.569  15.565  0.0981 -0.0611 -0.1863
18275TIP3    H176316   6.171   5.568  15.574 -0.0045 -0.5297  1.0213
18275TIP3    H276317   6.046   5.495  15.617 -1.0166  0.9265  0.6399
18276TIP3   OH276318   4.827   1.625  14.655  0.1617  0.5786 -0.1657
18276TIP3    H176319   4.798   1.590  14.739  0.2670 -1.9472 -1.0826
18276TIP3    H276320   4.781   1.708  14.646 -0.2085  0.6744  2.1559
18277TIP3   OH276321   3.049   6.066  12.655 -0.3861  0.4224  0.1066
18277TIP3    H176322   3.133   6.051  12.611 -0.2500  0.5586  0.3101
18277TIP3    H276323   3.071   6.059  12.748  0.0210  3.2395  0.3314
18278TIP3   OH276324   3.415   4.975   2.780 -0.3982 -0.1078  0.0023
18278TIP3    H176325   3.435   5.008   2.692 -1.3103 -2.0857 -0.9932
18278TIP3    H276326   3.475   4.901   2.791 -0.6059 -0.1461  0.8753
18279TIP3   OH276327   6.427   5.903   5.919 -0.4531  0.2551 -0.7621
18279TIP3    H176328   6.517   5.913   5.888 -0.2957  2.3974  0.1899
18279TIP3    H276329   6.379   5.973   5.876 -1.6016 -0.6277 -0.9554
18280TIP3   OH276330   4.281   5.510  14.488 -0.1895 -0.3573 -0.6643
18280TIP3    H176331   4.253   5.572  14.554 -0.8846 -0.3590 -0.9425
18280TIP3    H276332   4.349   5.457  14.530  0.2230  0.4188 -0.3491
18281TIP3   OH276333   0.151   3.912  12.748 -0.0062  0.0456  0.1191
18281TIP3    H176334   0.085   3.869  12.802  0.0113  0.5298  0.5339
18281TIP3    H276335   0.153   3.860  12.667  0.0663 -0.7716  0.6303
18282TIP3   OH276336   3.613   5.185  14.160 -0.3146  0.5297  0.5891
18282TIP3    H176337   3.596   5.203  14.253  1.0920 -0.0531  0.9758
18282TIP3    H276338   3.686   5.124  14.161 -0.6040  0.1376 -0.9049
18283TIP3   OH276339   6.629   2.699  15.002  0.0255  0.0187 -0.3489
18283TIP3    H176340   6.550   2.647  14.986  0.9369 -1.0810 -1.4991
18283TIP3    H276341   6.649   2.738  14.917  0.4970  0.6178  0.0327
18284TIP3   OH276342   0.780   5.203  16.502  0.1041 -0.2741 -0.4895
18284TIP3    H176343   0.751   5.210  16.593  0.1723 -0.9138 -0.4123
18284TIP3    H276344   0.711   5.153  16.460  0.4416 -0.6371 -0.6145
18285TIP3   OH276345   6.137   0.941  11.055  0.3423  0.2458 -0.0131
18285TIP3    H176346   6.045   0.952  11.034  0.4902  1.2620 -0.1717
18285TIP3    H276347   6.175   1.028  11.046  0.8435  0.3473  2.4341
18286TIP3   OH276348   0.806   5.009  14.571 -0.2267  0.4364  0.0657
18286TIP3    H176349   0.877   5.074  14.570  0.7722 -0.6240  0.3614
18286TIP3    H276350   0.834   4.941  14.510 -0.4541 -0.5482  1.0332
18287TIP3   OH276351   2.849   0.454  13.672  0.7288  1.0139  0.4905
18287TIP3    H176352   2.800   0.447  13.754 -1.3904 -1.0509 -0.8426
18287TIP3    H276353   2.908   0.378  13.673 -0.7323 -0.1874 -0.7195
18288TIP3   OH276354   4.524   5.482  11.829  0.1640 -0.7594 -0.7342
18288TIP3    H176355   4.527   5.390  11.857 -0.1613 -0.1689  1.3628
18288TIP3    H276356   4.433   5.496  11.803 -0.8046 -0.1076  2.5644
18289TIP3   OH276357   1.664   0.278   3.645 -0.1614  0.7838  0.0498
18289TIP3    H176358   1.635   0.190   3.669 -0.3986  0.7804 -0.2481
18289TIP3    H276359   1.751   0.264   3.606 -0.1394  0.6960  0.1296
18290TIP3   OH276360   3.747   4.177  14.828  0.1930 -1.2153 -0.0030
18290TIP3    H176361   3.743   4.272  14.819 -1.0451 -1.3891 -1.7996
18290TIP3    H276362   3.841   4.156  14.824  0.4482 -0.1109  0.0784
18291TIP3   OH276363   0.529   3.194   3.910 -0.6716  0.3877  0.2017
18291TIP3    H176364   0.458   3.255   3.928 -1.2363 -0.0440 -0.5314
18291TIP3    H276365   0.589   3.206   3.984 -0.4064  2.3252 -0.2683
18292TIP3   OH276366   6.503   4.291  15.398  0.1278 -0.0663 -0.3544
18292TIP3    H176367   6.587   4.263  15.362 -0.2603  0.6098 -1.8791
18292TIP3    H276368   6.444   4.291  15.323 -0.9446  0.5651  0.4641
18293TIP3   OH276369   4.182   1.018  11.775 -0.2164  0.6433  0.4246
18293TIP3    H176370   4.207   1.063  11.695  2.0974  0.3754  0.9363
18293TIP3    H276371   4.100   0.973  11.753 -0.3102  1.6156 -1.3633
18294TIP3   OH276372   6.206   0.141  16.263  0.2559 -0.7660 -0.1982
18294TIP3    H176373   6.163   0.089  16.330  2.3415 -1.6936  0.5071
18294TIP3    H276374   6.248   0.212  16.311  0.5813 -0.6176 -0.6953
18295TIP3   OH276375   0.104   2.534  15.579  0.1270 -0.2793  0.1456
18295TIP3    H176376   0.142   2.622  15.575 -0.5891  0.0269 -0.1971
18295TIP3    H276377   0.009   2.550  15.584 -0.0349 -1.0363 -0.3818
18296TIP3   OH276378   5.299   3.757   4.484  0.3355  0.1658 -0.0131
18296TIP3    H176379   5.270   3.783   4.397  0.6280 -0.0885 -0.1898
18296TIP3    H276380   5.378   3.705   4.469  0.1212 -0.2855  0.3678
18297TIP3   OH276381   1.704   3.249  15.238 -0.1024 -0.0900 -0.5590
18297TIP3    H176382   1.625   3.200  15.260  0.7403 -1.6838 -0.9647
18297TIP3    H276383   1.674   3.318  15.180 -1.2564 -0.3949 -0.3412
18298TIP3   OH276384   6.355   4.544   4.164  0.0300  0.2722  0.3863
18298TIP3    H176385   6.432   4.516   4.114  2.5580  2.5978  2.6243
18298TIP3    H276386   6.374   4.518   4.254 -1.6184  1.2631  1.0663
18299TIP3   OH276387   5.211   6.539  16.640  0.0788 -0.3915  0.3883
18299TIP3    H176388   5.196   6.567  16.550 -0.2569 -1.6439  0.0268
18299TIP3    H276389   5.304   6.514  16.641 -0.2597 -1.7804 -0.0481
18300TIP3   OH276390   4.833   6.509  14.195  0.5915  0.4740 -0.3486
18300TIP3    H176391   4.810   6.560  14.117 -2.7001 -0.7579 -0.3360
18300TIP3    H276392   4.872   6.429  14.160  0.4481  0.5494 -0.6859
18301TIP3   OH276393   4.096   0.843  16.449 -1.4376  0.6312 -0.2687
18301TIP3    H176394   4.064   0.907  16.385 -0.7910  2.5202  1.1691
18301TIP3    H276395   4.017   0.811  16.492 -1.7780  0.5003 -0.9835
18302TIP3   OH276396   6.072   5.878  14.881 -0.4348  0.7533  0.3160
18302TIP3    H176397   5.995   5.933  14.892 -1.3332 -0.3710 -0.0877
18302TIP3    H276398   6.143   5.927  14.922 -1.7036  1.0599  2.2568
18303TIP3   OH276399   6.026   1.769   3.237  0.8371 -0.0503 -0.1754
18303TIP3    H176400   6.119   1.747   3.232  0.8717 -0.3364  1.1807
18303TIP3    H276401   5.984   1.688   3.266  0.7434  1.0725  3.2969
18304TIP3   OH276402   1.996   0.482   1.892  0.5411 -0.3535  0.4701
18304TIP3    H176403   1.977   0.477   1.798  1.2838 -0.3291  0.3097
18304TIP3    H276404   2.045   0.563   1.902  1.0360 -0.6870  0.7753
18305TIP3   OH276405   3.351   4.353  12.346  0.2779  0.1011  0.0803
18305TIP3    H176406   3.290   4.279  12.348 -1.1733  1.1483 -1.7357
18305TIP3    H276407   3.325   4.407  12.420 -0.6342  0.2302 -0.3199
18306TIP3   OH276408   6.163   0.671  16.726 -0.1487 -0.2439 -0.2033
18306TIP3    H176409   6.155   0.752  16.777 -0.0613 -0.7103  0.5654
18306TIP3    H276410   6.208   0.698  16.646 -1.1818  0.6920 -0.4960
18307TIP3   OH276411   1.640   6.649   1.858 -0.8355 -0.2125 -0.0716
18307TIP3    H176412   1.551   6.624   1.833 -0.4649 -2.7316  0.8428
18307TIP3    H276413   1.693   6.631   1.780 -0.9051 -0.1460 -0.1340
18308TIP3   OH276414   0.760   3.235  12.935  0.7984 -0.6599  0.3975
18308TIP3    H176415   0.795   3.242  12.846 -0.7078 -0.6724 -0.2219
18308TIP3    H276416   0.835   3.254  12.992  1.2301  1.9425 -0.8966
18309TIP3   OH276417   2.855   4.685  16.722  0.2505 -0.3971  0.0296
18309TIP3    H176418   2.926   4.641  16.769  1.0717 -1.2491 -1.8751
18309TIP3    H276419   2.885   4.688  16.631 -1.3642  0.9211 -0.5110
18310TIP3   OH276420   4.860   0.417   1.356  0.0325 -0.4628 -0.2602
18310TIP3    H176421   4.874   0.512   1.358  0.9603 -0.5998  0.2409
18310TIP3    H276422   4.819   0.397   1.440  0.1537 -0.5567 -0.2245
18311TIP3   OH276423   1.163   1.152  16.990  0.1515 -0.5917 -0.3971
18311TIP3    H176424   1.140   1.064  17.019 -0.9886 -0.9683 -2.2639
18311TIP3    H276425   1.080   1.199  16.989  0.5762  0.1749 -0.5278
18312TIP3   OH276426   1.151   4.035  16.883 -0.1479  0.5386 -0.0765
18312TIP3    H176427   1.192   4.103  16.937 -0.8201  0.6519  0.3017
18312TIP3    H276428   1.084   4.082  16.833 -2.8492 -0.2774  2.5088
18313TIP3   OH276429   5.639   4.408  15.892  0.2949 -0.1993 -0.0169
18313TIP3    H176430   5.599   4.330  15.932  2.2213 -1.4820 -0.4303
18313TIP3    H276431   5.725   4.415  15.934  0.7063  0.8786 -0.9790
18314TIP3   OH276432   5.064   3.197   6.578 -0.2268  0.4282 -0.3766
18314TIP3    H176433   4.981   3.190   6.624 -1.6365 -0.8533 -2.8678
18314TIP3    H276434   5.043   3.242   6.496  0.4294 -3.6049 -3.0699
18315TIP3   OH276435   1.059   4.899  14.873  0.6772  0.2273 -0.2981
18315TIP3    H176436   0.972   4.903  14.911  1.2676  1.7117  1.0062
18315TIP3    H276437   1.053   4.830  14.806 -0.9922 -0.9431  0.9798
18316TIP3   OH276438   1.963   6.408   1.187 -0.4012 -0.1913 -0.3754
18316TIP3    H176439   2.018   6.410   1.266 -0.1148 -0.1883 -0.5733
18316TIP3    H276440   1.888   6.463   1.209  0.1430  0.6013 -0.4429
18317TIP3   OH276441   5.333   5.227  16.822 -0.2390  0.2987  0.4903
18317TIP3    H176442   5.410   5.183  16.857  0.0669  2.2803  2.4666
18317TIP3    H276443   5.261   5.198  16.878 -0.7935 -0.6161 -0.6223
18318TIP3   OH276444   5.579   5.806   3.653 -0.0813 -0.0066  0.6645
18318TIP3    H176445   5.519   5.870   3.615  2.8573  2.7326  0.2353
18318TIP3    H276446   5.564   5.811   3.747 -2.0626 -1.1339  0.4594
18319TIP3   OH276447   1.335   2.301   2.175 -0.0543 -0.6700  0.0681
18319TIP3    H176448   1.390   2.291   2.253  0.2830 -0.1163 -0.0904
18319TIP3    H276449   1.258   2.350   2.206 -0.9054 -2.2044  0.4824
18320TIP3   OH276450   1.708   2.931  12.719 -0.2918  0.5425  0.0513
18320TIP3    H176451   1.721   3.012  12.768  1.3397  1.2708 -1.4581
18320TIP3    H276452   1.781   2.875  12.746 -1.4377 -0.4965  1.1232
18321TIP3   OH276453   0.665   4.699  14.622  0.3051 -0.6433  0.0977
18321TIP3    H176454   0.668   4.772  14.683  0.9122 -0.7781  0.2324
18321TIP3    H276455   0.731   4.637  14.654  0.4286 -0.8458 -0.5231
18322TIP3   OH276456   5.321   4.950   5.383 -0.1215 -0.2395 -0.5507
18322TIP3    H176457   5.326   4.988   5.471  0.3205 -0.1929 -0.5982
18322TIP3    H276458   5.229   4.923   5.374  0.2329 -1.9422  0.6161
18323TIP3   OH276459   4.799   1.371  15.579 -0.3345  0.4574 -0.3249
18323TIP3    H176460   4.776   1.389  15.670  1.3478  0.9062  0.0481
18323TIP3    H276461   4.774   1.280  15.565 -1.4312  0.6506  0.3063
18324TIP3   OH276462   0.241   5.512  10.758  0.3490 -0.4553  0.0751
18324TIP3    H176463   0.164   5.541  10.709  0.6140 -0.0991 -0.1334
18324TIP3    H276464   0.309   5.500  10.692  0.7249  0.0910  0.3558
18325TIP3   OH276465   3.228   2.316   1.464  0.6248  0.0604  0.4150
18325TIP3    H176466   3.183   2.292   1.383  1.1956  1.6528 -0.4261
18325TIP3    H276467   3.305   2.365   1.435  0.8587  0.6465  1.9240
18326TIP3   OH276468   1.606   0.442  14.620 -0.3863  0.1696  0.0941
18326TIP3    H176469   1.655   0.367  14.655 -0.2018 -0.2463 -1.0281
18326TIP3    H276470   1.534   0.403  14.570 -0.9434  0.7620  0.4221
18327TIP3   OH276471   0.490   3.412   3.034 -0.4117 -0.2522  0.4320
18327TIP3    H176472   0.451   3.437   2.951  1.2739 -0.7744 -0.5664
18327TIP3    H276473   0.518   3.322   3.022  2.2786  0.4731  0.5438
18328TIP3   OH276474   5.408   5.487   4.461  0.4153 -0.4772  0.1618
18328TIP3    H176475   5.433   5.531   4.380 -1.0529  0.9733  0.4396
18328TIP3    H276476   5.378   5.401   4.434 -1.5002  0.5182 -1.0796
18329TIP3   OH276477   3.719   6.108   4.531  0.5862  0.1616  0.7871
18329TIP3    H176478   3.735   6.184   4.587 -0.9433  1.0160  0.1402
18329TIP3    H276479   3.791   6.110   4.467  1.7460 -0.2063  2.0339
18330TIP3   OH276480   3.919   6.007  14.628 -0.2910 -0.1993  0.1462
18330TIP3    H176481   3.996   5.982  14.577 -0.6488  1.9260 -1.5697
18330TIP3    H276482   3.846   5.998  14.567 -1.0713  0.1216  1.0096
18331TIP3   OH276483   3.015   6.304   1.187  0.5651  0.1327 -0.0600
18331TIP3    H176484   2.984   6.226   1.233 -0.2907 -0.7533 -2.0191
18331TIP3    H276485   2.942   6.327   1.128  2.1940  0.1952 -2.1645
18332TIP3   OH276486   2.327   4.973   2.890  0.3482 -0.4616  0.3491
18332TIP3    H176487   2.315   4.986   2.984  1.0680 -0.9578  0.5110
18332TIP3    H276488   2.409   5.016   2.870  0.4987 -0.8766  0.0618
18333TIP3   OH276489   3.181   3.531  17.222 -0.0773  0.1161  0.5052
18333TIP3    H176490   3.144   3.616  17.249 -3.4952  0.0332 -2.9062
18333TIP3    H276491   3.124   3.466  17.264  0.7984 -0.4026  0.9068
18334TIP3   OH276492   0.725   5.947   6.149  0.2181 -0.6249 -0.0135
18334TIP3    H176493   0.731   5.862   6.192  0.8981 -1.2569 -1.3069
18334TIP3    H276494   0.805   5.992   6.174  0.2990 -0.7334 -0.0766
18335TIP3   OH276495   5.639   3.355   3.654 -0.1987 -0.7459  0.7849
18335TIP3    H176496   5.723   3.401   3.662 -0.2815 -0.2990 -0.5390
18335TIP3    H276497   5.573   3.425   3.664 -0.3227  0.1050 -3.6791
18336TIP3   OH276498   3.576   5.054  13.614  0.2232  0.5923 -0.0185
18336TIP3    H176499   3.563   4.959  13.606  0.8845  0.5723 -0.9542
18336TIP3    H276500   3.489   5.087  13.637 -0.3224 -0.1111 -0.9673
18337TIP3   OH276501   0.084   2.143   4.048  0.1992  0.0239  0.2455
18337TIP3    H176502   0.076   2.168   4.141  3.2270  1.1010  0.3271
18337TIP3    H276503   0.141   2.066   4.049 -0.7537 -0.7116 -0.6877
18338TIP3   OH276504   2.750   6.823  15.554  0.7135  0.3399 -0.2769
18338TIP3    H176505   2.658   6.817  15.528  0.8068 -0.4692 -0.4305
18338TIP3    H276506   2.750   6.882  15.629 -0.1065 -0.7179  0.5864
18339TIP3   OH276507   1.897   4.055   3.232  0.2107  1.3129  0.1368
18339TIP3    H176508   1.935   3.967   3.236 -2.3654  0.0881 -0.2195
18339TIP3    H276509   1.972   4.113   3.220  1.9575 -0.8755 -0.1841
18340TIP3   OH276510   6.171   6.523   1.217 -0.8863 -0.4451 -0.2469
18340TIP3    H176511   6.204   6.613   1.218 -0.9010 -0.4405  0.5666
18340TIP3    H276512   6.209   6.484   1.138  0.0863 -0.0753  0.0240
18341TIP3   OH276513   5.103   0.539  15.381  0.0543  0.1989 -0.3098
18341TIP3    H176514   5.033   0.604  15.388  0.1775  0.2572  0.3966
18341TIP3    H276515   5.063   0.465  15.335  0.1557  1.1047 -1.9345
18342TIP3   OH276516   3.556   1.499  11.740  0.2221  0.2546 -0.8341
18342TIP3    H176517   3.637   1.550  11.748 -0.2342  0.7059  3.0580
18342TIP3    H276518   3.486   1.563  11.749 -0.3617 -0.6645  3.4036
18343TIP3   OH276519   0.682   4.608  16.163 -0.1666  0.1962  0.2495
18343TIP3    H176520   0.709   4.533  16.110 -1.0655  0.2298 -0.2829
18343TIP3    H276521   0.735   4.680  16.130 -1.2008  0.3748 -1.1437
18344TIP3   OH276522   0.510   4.858   4.277  0.0955  0.6297  0.1820
18344TIP3    H176523   0.535   4.834   4.366  1.0755 -2.0568 -0.7109
18344TIP3    H276524   0.440   4.796   4.255  1.1805 -0.0394 -1.5396
18345TIP3   OH276525   1.632   0.847  11.164  0.5377 -0.0855 -0.5185
18345TIP3    H176526   1.698   0.787  11.202 -0.3283 -1.6793 -1.4088
18345TIP3    H276527   1.551   0.796  11.165 -0.3965  1.3553 -0.7034
18346TIP3   OH276528   1.987   5.326   6.225 -0.1846  0.3114  0.2751
18346TIP3    H176529   2.023   5.287   6.305 -0.0166  0.9361  0.5129
18346TIP3    H276530   2.002   5.420   6.235  2.5721  0.2272 -1.8173
18347TIP3   OH276531   3.874   0.122   5.102  0.2178 -0.7695 -0.2926
18347TIP3    H176532   3.898   0.043   5.151  0.5571  0.1332  1.0554
18347TIP3    H276533   3.796   0.097   5.052 -0.2690 -1.6778  0.8854
18348TIP3   OH276534   0.980   4.108  16.507  0.5144  0.2023  0.0068
18348TIP3    H176535   1.052   4.170  16.511  1.0385 -0.2210 -1.9092
18348TIP3    H276536   0.973   4.085  16.414 -1.6398 -0.2912  0.2382
18349TIP3   OH276537   5.486   6.435  15.225 -0.4315  0.1310  0.5616
18349TIP3    H176538   5.408   6.463  15.176 -1.2700 -0.3183  1.5934
18349TIP3    H276539   5.472   6.470  15.313  0.7873  0.4550  0.6368
18350TIP3   OH276540   2.595   4.648   3.370  0.1433 -0.2986  0.0489
18350TIP3    H176541   2.577   4.572   3.426 -0.6577  0.0123  0.2303
18350TIP3    H276542   2.648   4.613   3.298  0.0873 -0.9542  0.3209
18351TIP3   OH276543   3.477   2.203   3.656  0.2079  0.7017 -0.0178
18351TIP3    H176544   3.556   2.162   3.620  1.3902  3.3034 -0.6328
18351TIP3    H276545   3.463   2.158   3.740  0.5066 -1.8579 -1.2202
18352TIP3   OH276546   3.365   2.727  14.058  0.0978 -0.5674 -0.2088
18352TIP3    H176547   3.418   2.804  14.079 -1.7480  0.7583 -0.1178
18352TIP3    H276548   3.327   2.701  14.142  0.1126 -1.1080 -0.3695
18353TIP3   OH276549   4.136   4.595  10.566  0.0843 -0.1508  0.5127
18353TIP3    H176550   4.062   4.645  10.601 -0.4497 -1.0852  0.7594
18353TIP3    H276551   4.103   4.505  10.559  2.1849 -1.4279  4.0415
18354TIP3   OH276552   0.189   5.854   5.799 -0.4564  0.4130  0.2374
18354TIP3    H176553   0.190   5.948   5.780  1.0727  0.6048  1.0553
18354TIP3    H276554   0.185   5.850   5.894 -0.9230 -0.3712  0.1866
18355TIP3   OH276555   1.382   1.898  14.077  0.2047 -0.9531  0.0095
18355TIP3    H176556   1.462   1.871  14.123  2.1458  1.4001 -1.6988
18355TIP3    H276557   1.351   1.974  14.126  1.4334  0.6373 -1.5237
18356TIP3   OH276558   3.691   2.976   6.292  0.6207  0.7749  0.0672
18356TIP3    H176559   3.653   3.047   6.344 -2.2992 -2.2378  2.4945
18356TIP3    H276560   3.727   2.915   6.357  0.8610 -1.0999 -1.7028
18357TIP3   OH276561   4.504   2.732   5.699 -0.2171 -0.3625 -0.5579
18357TIP3    H176562   4.513   2.644   5.734 -1.2902  0.0863  0.9526
18357TIP3    H276563   4.594   2.764   5.688  0.1915 -1.7443 -1.4968
18358TIP3   OH276564   5.513   3.412   1.737  0.1859 -0.2038 -0.4335
18358TIP3    H176565   5.587   3.447   1.787  1.0550 -1.4202 -0.7975
18358TIP3    H276566   5.528   3.317   1.736 -0.0624 -0.2696 -2.5614
18359TIP3   OH276567   1.621   0.574   5.834  0.4461 -0.0382  0.1685
18359TIP3    H176568   1.567   0.646   5.866  1.4205  0.3201  1.0524
18359TIP3    H276569   1.604   0.502   5.895 -0.2830 -0.4892 -0.5297
18360TIP3   OH276570   5.791   3.567  15.738 -0.6442 -0.0981  0.1483
18360TIP3    H176571   5.857   3.569  15.669 -1.7791 -0.9891 -1.0077
18360TIP3    H276572   5.839   3.533  15.814  0.2969 -0.5158 -0.5938
18361TIP3   OH276573   4.650   2.611  16.455  0.1491 -0.1927  0.0020
18361TIP3    H176574   4.557   2.594  16.440 -0.3637  0.5116  2.0243
18361TIP3    H276575   4.664   2.699  16.420  0.3211 -0.6962 -1.2269
18362TIP3   OH276576   6.563   5.316   2.675  0.2785 -0.4503  0.2906
18362TIP3    H176577   6.497   5.378   2.706  0.1140 -0.8885  0.8316
18362TIP3    H276578   6.521   5.230   2.684  0.1918 -0.5894 -1.2383
18363TIP3   OH276579   4.450   1.660  12.251  0.5460  0.0323  0.3279
18363TIP3    H176580   4.386   1.590  12.236  2.0612 -1.0962 -1.2330
18363TIP3    H276581   4.512   1.621  12.313  0.4152  0.6680  0.8633
18364TIP3   OH276582   4.481   4.868   3.890 -0.1625  0.6803 -0.3401
18364TIP3    H176583   4.489   4.853   3.796  1.9900  0.1171 -0.1116
18364TIP3    H276584   4.554   4.926   3.912 -0.8488  1.1073  0.9323
18365TIP3   OH276585   3.105   1.850   3.920 -0.3063  0.2498  0.0299
18365TIP3    H176586   3.194   1.859   3.953  0.4004 -2.4121 -0.9007
18365TIP3    H276587   3.114   1.797   3.841 -2.6071  0.8868 -0.7247
18366TIP3   OH276588   4.600   3.262  12.390  0.2590  0.9913  1.0157
18366TIP3    H176589   4.623   3.316  12.465  0.8043 -1.2150  2.5446
18366TIP3    H276590   4.683   3.225  12.360  0.2508  2.8573 -1.6028
18367TIP3   OH276591   4.945   0.950   4.460  0.1534 -0.3477  0.2624
18367TIP3    H176592   4.996   1.028   4.435  0.2959 -1.4348 -3.5520
18367TIP3    H276593   4.858   0.985   4.481  0.4293  0.9513 -0.5878
18368TIP3   OH276594   0.247   1.196  17.217 -0.4863  0.3516 -0.5476
18368TIP3    H176595   0.194   1.232  17.147 -1.5471 -0.3344 -0.1331
18368TIP3    H276596   0.312   1.263  17.235 -1.2373  1.2445 -1.0460
18369TIP3   OH276597   5.416   2.126  12.345 -0.0852 -0.0382 -0.1584
18369TIP3    H176598   5.455   2.208  12.377 -0.2078  0.1561 -0.4969
18369TIP3    H276599   5.401   2.074  12.424 -0.0901  0.3068  0.0707
18370TIP3   OH276600   3.986   0.109  10.823 -0.5687  0.5176  0.3607
18370TIP3    H176601   3.910   0.167  10.818 -1.3768 -0.5907 -1.0970
18370TIP3    H276602   3.949   0.020  10.821  0.6002 -0.1216  2.9282
18371TIP3   OH276603   0.152   2.699   0.861 -0.3252 -0.2649  0.1702
18371TIP3    H176604   0.204   2.732   0.788 -0.0382  0.5562  0.7313
18371TIP3    H276605   0.062   2.724   0.839 -0.4344 -1.2897 -0.5855
18372TIP3   OH276606   4.990   4.071   5.183 -0.0597  0.2974 -0.2185
18372TIP3    H176607   5.056   4.096   5.117 -0.9528  1.5870 -0.6483
18372TIP3    H276608   4.919   4.032   5.132 -0.1374 -0.0399  0.1386
18373TIP3   OH276609   0.331   1.834   5.466 -0.4275  0.0574 -0.2416
18373TIP3    H176610   0.290   1.920   5.475  0.4504  0.3594  1.3477
18373TIP3    H276611   0.425   1.852   5.463 -0.2829 -0.6430 -3.5376
18374TIP3   OH276612   2.036   1.145  16.684 -0.3481 -0.0007 -0.1130
18374TIP3    H176613   2.043   1.089  16.762  0.5866  0.2299 -0.0243
18374TIP3    H276614   1.959   1.200  16.700 -0.9423 -0.8577  0.0548
18375TIP3   OH276615   1.637   0.033   0.757  0.3528  0.0802  0.5660
18375TIP3    H176616   1.560   0.052   0.811  0.0110 -0.4894  0.2938
18375TIP3    H276617   1.601   0.000   0.675  0.8910 -0.6172  0.5959
18376TIP3   OH276618   3.645   3.109  12.809  0.1337  0.2923 -0.8673
18376TIP3    H176619   3.653   3.153  12.893 -0.1137  0.8822 -1.1457
18376TIP3    H276620   3.588   3.166  12.757  1.9468  1.0550 -2.1582
18377TIP3   OH276621   6.185   5.286   2.572 -0.5778  0.1151 -0.0455
18377TIP3    H176622   6.251   5.283   2.502  0.2725  0.0931  0.7331
18377TIP3    H276623   6.154   5.376   2.572  0.8903  0.6527  0.8467
18378TIP3   OH276624   0.651   4.875  16.755  0.3000 -0.5917  0.0018
18378TIP3    H176625   0.562   4.907  16.740  0.1016 -1.6430 -1.3147
18378TIP3    H276626   0.703   4.953  16.772 -0.9813 -0.0095  1.5176
18379TIP3   OH276627   5.982   0.813  15.291 -0.1488 -0.1198 -0.3438
18379TIP3    H176628   6.011   0.900  15.318 -2.1828  0.6712 -0.5375
18379TIP3    H276629   5.968   0.766  15.373 -1.9873  0.7909 -0.0920
18380TIP3   OH276630   3.075   3.602   5.790 -0.0613 -0.3406 -0.5901
18380TIP3    H176631   3.093   3.645   5.873  0.0591 -1.4055 -0.0523
18380TIP3    H276632   3.079   3.673   5.725 -1.7983  0.8375  0.4808
18381TIP3   OH276633   5.375   0.403  15.759 -0.1184  0.0406  0.2461
18381TIP3    H176634   5.459   0.383  15.718 -0.6845 -1.6486 -0.1656
18381TIP3    H276635   5.345   0.320  15.796 -1.1795  0.8092  1.1961
18382TIP3   OH276636   1.589   3.460  15.089  0.1268  0.5660 -0.1136
18382TIP3    H176637   1.503   3.440  15.054  0.1981  1.3066 -0.7503
18382TIP3    H276638   1.596   3.555  15.083  0.4605  0.6440  1.1931
18383TIP3   OH276639   3.229   4.383  15.676  0.0109 -0.0537 -0.2331
18383TIP3    H176640   3.178   4.304  15.659  0.8118 -0.6756  0.1613
18383TIP3    H276641   3.198   4.446  15.611 -2.7157  0.3099  1.2606
18384TIP3   OH276642   1.893   2.965   5.043  0.3409  0.6518  0.4374
18384TIP3    H176643   1.810   2.964   5.090 -0.5726  0.3545 -1.0966
18384TIP3    H276644   1.935   2.882   5.066 -1.7686 -1.2690 -1.9959
18385TIP3   OH276645   1.556   0.170  10.216 -0.2989 -0.7324 -0.0215
18385TIP3    H176646   1.515   0.144  10.298 -1.0982 -0.5948 -0.3708
18385TIP3    H276647   1.504   0.244  10.186  0.6236 -0.1199 -0.1358
18386TIP3   OH276648   2.233   6.122  10.427  0.2779 -0.5849 -0.6720
18386TIP3    H176649   2.247   6.156  10.516  1.8900 -0.4489 -0.9385
18386TIP3    H276650   2.208   6.198  10.376 -1.6442 -0.8290 -0.1741
18387TIP3   OH276651   6.775   3.366   4.080 -0.3878 -0.6790  1.2025
18387TIP3    H176652   6.761   3.308   4.154 -1.6486 -0.9752  0.7615
18387TIP3    H276653   6.688   3.402   4.061  0.3504  1.4266  1.5095
18388TIP3   OH276654   0.580   0.545  13.768  0.2265  0.2848 -0.1133
18388TIP3    H176655   0.604   0.628  13.808  0.0069  0.6930 -0.8132
18388TIP3    H276656   0.612   0.479  13.829 -0.2530  0.8898  0.8070
18389TIP3   OH276657   2.698   6.061  17.135 -0.9667 -0.8196 -0.6956
18389TIP3    H176658   2.785   6.039  17.169 -1.0502  0.3725  0.3662
18389TIP3    H276659   2.715   6.113  17.056 -0.6972 -0.2598 -0.2756
18390TIP3   OH276660   6.193   1.686  16.860  0.6160  0.3150 -0.3977
18390TIP3    H176661   6.230   1.620  16.919 -0.0455  0.0044 -0.3193
18390TIP3    H276662   6.181   1.640  16.777 -2.2909 -0.4927  0.3329
18391TIP3   OH276663   2.690   0.255   3.353  0.5396  0.1014  0.4607
18391TIP3    H176664   2.638   0.319   3.402 -0.1448 -0.3863  0.3851
18391TIP3    H276665   2.780   0.276   3.376  0.6091  3.1538 -1.9982
18392TIP3   OH276666   6.759   0.215   4.240  0.4822 -0.0704 -0.4387
18392TIP3    H176667   6.770   0.149   4.308 -1.8088  1.4741  1.6278
18392TIP3    H276668   6.803   0.292   4.274 -0.6435  0.7193 -0.6954
18393TIP3   OH276669   2.848   4.369  11.670  0.0670  0.0528 -1.0553
18393TIP3    H176670   2.800   4.294  11.705 -0.1591  0.9952  0.7212
18393TIP3    H276671   2.915   4.387  11.735 -0.9924  2.4804 -0.5496
18394TIP3   OH276672   0.572   3.029   4.735 -0.6407 -0.4678 -0.3259
18394TIP3    H176673   0.519   3.046   4.657  0.4561 -1.4166 -1.3083
18394TIP3    H276674   0.661   3.053   4.710 -0.4528  0.4071  1.0659
18395TIP3   OH276675   6.082   6.036  13.857 -0.4814  0.4801 -0.2814
18395TIP3    H176676   6.142   6.042  13.932  0.6996  4.0718 -1.3427
18395TIP3    H276677   5.996   6.059  13.892 -0.1880  0.8150  0.2279
18396TIP3   OH276678   3.516   5.928  10.640 -0.1551  0.1571  0.3095
18396TIP3    H176679   3.574   5.995  10.605 -0.1260 -0.0720 -0.0835
18396TIP3    H276680   3.496   5.872  10.566 -1.3833  0.5925  0.2927
18397TIP3   OH276681   4.688   6.038   3.348 -0.1876 -0.2496 -0.0412
18397TIP3    H176682   4.678   5.983   3.425  0.2928 -0.8191 -0.3746
18397TIP3    H276683   4.629   6.112   3.363  1.0203  0.4558  1.5929
18398TIP3   OH276684   6.747   4.653   5.997 -0.6143  0.2107 -0.0796
18398TIP3    H176685   6.660   4.678   5.968 -0.9338 -0.1290  0.5827
18398TIP3    H276686   6.784   4.733   6.033 -0.2459  0.6202 -1.2982
18399TIP3   OH276687   4.436   3.710  13.256 -0.0228 -0.5427 -0.3773
18399TIP3    H176688   4.430   3.682  13.164 -2.0205 -2.0938  0.1538
18399TIP3    H276689   4.527   3.689  13.281  0.0805 -1.6641 -1.5499
18400TIP3   OH276690   4.642   0.377  15.857 -0.4810  0.6549 -0.1028
18400TIP3    H176691   4.598   0.355  15.774 -0.7581  0.7995  0.0032
18400TIP3    H276692   4.699   0.450  15.836 -0.8047  0.9115 -0.0925
18401TIP3   OH276693   4.891   0.297  11.366  0.7555 -0.0458 -0.6198
18401TIP3    H176694   4.973   0.305  11.317 -0.0994 -0.8719 -2.2610
18401TIP3    H276695   4.914   0.246  11.443  2.0339  0.8058 -0.4150
18402TIP3   OH276696   2.962   1.244  15.902 -0.1649  0.1551 -0.4406
18402TIP3    H176697   2.870   1.259  15.926 -0.4037  0.0817 -1.2918
18402TIP3    H276698   2.964   1.256  15.807  1.0284  1.7343 -0.2506
18403TIP3   OH276699   5.475   6.736   3.869 -0.1490 -0.3951  0.1697
18403TIP3    H176700   5.513   6.669   3.925  0.9638 -0.1009 -0.2037
18403TIP3    H276701   5.489   6.705   3.780 -0.3308 -0.0371  0.0118
18404TIP3   OH276702   4.531   2.245  12.333  0.2877 -0.3154  0.4379
18404TIP3    H176703   4.472   2.191  12.385  0.4101 -1.1002 -0.2205
18404TIP3    H276704   4.598   2.275  12.395 -1.3743  1.5166  1.4459
18405TIP3   OH276705   3.417   4.726  11.097 -0.0025  0.1286 -0.2627
18405TIP3    H176706   3.452   4.730  11.008  0.8623 -1.8989 -0.0630
18405TIP3    H276707   3.447   4.807  11.138  1.7275 -0.0415 -1.0970
18406TIP3   OH276708   1.821   3.823  16.260  0.0930  0.1998 -0.6894
18406TIP3    H176709   1.727   3.824  16.281  0.3416 -1.3261  0.6848
18406TIP3    H276710   1.837   3.733  16.232  1.1822  0.4268 -0.8053
18407TIP3   OH276711   5.043   0.695   5.714 -0.2607 -0.1798  0.4406
18407TIP3    H176712   5.015   0.708   5.623 -1.7663 -0.0423  0.9002
18407TIP3    H276713   5.137   0.715   5.712 -0.1517 -0.6282 -1.1625
18408TIP3   OH276714   5.854   4.753  17.156  0.3138  0.1144 -0.2624
18408TIP3    H176715   5.887   4.725  17.241 -1.8898  0.5889  0.8366
18408TIP3    H276716   5.828   4.672  17.112 -1.7182 -0.0049  0.9992
18409TIP3   OH276717   0.533   2.799   1.768  0.2057 -0.3741 -0.0172
18409TIP3    H176718   0.465   2.842   1.716  0.7865  0.2342 -0.2832
18409TIP3    H276719   0.614   2.814   1.719  0.5948 -0.7360  0.5084
18410TIP3   OH276720   3.962   4.162   2.389  0.1492 -0.2421  0.2904
18410TIP3    H176721   3.951   4.255   2.408  2.3728 -0.2071  1.9035
18410TIP3    H276722   3.873   4.128   2.381 -0.8976  1.3780  3.2663
18411TIP3   OH276723   0.959   2.954  10.872  0.1331 -0.0662 -0.4516
18411TIP3    H176724   0.924   2.914  10.952  1.6894 -0.9331 -0.1555
18411TIP3    H276725   0.926   2.899  10.802  0.1277 -0.3056 -0.2628
18412TIP3   OH276726   3.616   2.122   2.781 -0.0868  0.3644  0.2419
18412TIP3    H176727   3.586   2.165   2.700  1.1590 -1.1148 -1.0752
18412TIP3    H276728   3.710   2.140   2.785  0.3441 -1.6079 -0.0053
18413TIP3   OH276729   5.013   2.072  16.797 -0.0577  0.0745  0.1858
18413TIP3    H176730   5.106   2.050  16.796  0.0235  0.4243 -0.7562
18413TIP3    H276731   4.985   2.062  16.706 -0.8743  0.2537  0.4114
18414TIP3   OH276732   0.247   5.854   5.015  0.1474  0.0817  0.0077
18414TIP3    H176733   0.201   5.850   5.098  0.9013  0.0647  0.4373
18414TIP3    H276734   0.180   5.875   4.951 -0.4551  0.0191  0.6096
18415TIP3   OH276735   0.017   6.287  11.886 -0.4880 -0.5646 -0.4397
18415TIP3    H176736  -0.006   6.220  11.822  0.1624 -0.5934 -0.6503
18415TIP3    H276737  -0.005   6.369  11.843  1.2655 -0.4940 -1.3052
18416TIP3   OH276738   0.769   5.758  16.227  0.0137  0.1155  0.0546
18416TIP3    H176739   0.778   5.841  16.273  1.2025  0.5751 -0.9539
18416TIP3    H276740   0.754   5.694  16.296 -0.0754  1.0370  0.9128
18417TIP3   OH276741   3.181   0.631  15.417  0.2155  0.1462 -0.6244
18417TIP3    H176742   3.232   0.711  15.427  0.9784 -0.5030  0.9665
18417TIP3    H276743   3.247   0.561  15.412 -0.4267 -0.3966 -2.2161
18418TIP3   OH276744   6.619   5.440   1.803  0.2553 -0.6591  0.3147
18418TIP3    H176745   6.629   5.363   1.859 -1.8336 -1.6489 -0.5626
18418TIP3    H276746   6.539   5.482   1.834 -0.7267 -1.0076 -1.5832
18419TIP3   OH276747   0.687   5.907  11.206 -0.7771  0.1839  0.4916
18419TIP3    H176748   0.770   5.881  11.245 -0.3164 -0.3480 -0.8090
18419TIP3    H276749   0.673   5.847  11.134 -1.2241  1.6008 -0.6617
18420TIP3   OH276750   3.023   5.147   2.393 -0.0885  0.0682  0.1926
18420TIP3    H176751   3.082   5.194   2.335  2.3568 -2.3263  0.5288
18420TIP3    H276752   3.073   5.134   2.474 -1.4411 -1.1583  0.8932
18421TIP3   OH276753   0.059   6.129  16.018 -0.2062 -0.2394  0.3031
18421TIP3    H176754   0.132   6.069  16.001  0.5324  0.4640  0.9448
18421TIP3    H276755   0.101   6.210  16.046 -1.2007  0.5281 -0.3632
18422TIP3   OH276756   0.006   3.609   2.432 -0.4739 -0.2457  0.0608
18422TIP3    H176757  -0.082   3.593   2.467 -1.0706  0.6050 -0.9623
18422TIP3    H276758   0.014   3.548   2.359 -0.2124 -0.3247  0.1558
18423TIP3   OH276759   2.891   4.886   6.028  0.1201  0.0738  0.0725
18423TIP3    H176760   2.830   4.908   6.098  0.7971  0.2443  0.6225
18423TIP3    H276761   2.959   4.953   6.034  1.7390 -1.5787  1.1719
18424TIP3   OH276762   0.962   4.461  13.047  0.2883  0.4983 -0.2863
18424TIP3    H176763   1.032   4.518  13.016 -0.0630  1.4242  0.5827
18424TIP3    H276764   0.953   4.481  13.140 -1.4548  0.7568 -0.4711
18425TIP3   OH276765   6.321   3.604  11.815  0.9628 -0.4614 -0.3287
18425TIP3    H176766   6.236   3.573  11.785  0.5946 -0.3098  0.5187
18425TIP3    H276767   6.380   3.531  11.802  0.5205 -0.8539 -0.1572
18426TIP3   OH276768   5.475   3.966  14.798 -0.1886  0.6222  0.3882
18426TIP3    H176769   5.458   3.946  14.890  1.6043  0.0675  0.6329
18426TIP3    H276770   5.535   4.041  14.801  2.7452 -1.5315 -0.1399
18427TIP3   OH276771   0.534   2.764   3.188 -0.3499 -0.0244 -0.1480
18427TIP3    H176772   0.591   2.825   3.233 -0.1934 -0.3144  0.0523
18427TIP3    H276773   0.486   2.720   3.259 -1.4077  0.7773 -0.3386
18428TIP3   OH276774   6.456   2.283  11.229  0.4052 -0.4916  0.3048
18428TIP3    H176775   6.403   2.224  11.282 -0.2262  2.1730  2.9050
18428TIP3    H276776   6.538   2.293  11.278  0.0646  1.5546  0.5424
18429TIP3   OH276777   5.837   4.024   4.812  0.0095 -0.0171 -0.2780
18429TIP3    H176778   5.833   4.119   4.816 -2.0262  0.0672 -2.1012
18429TIP3    H276779   5.814   3.995   4.901 -0.4473  1.1951  0.0143
18430TIP3   OH276780   0.215   5.687  13.520  0.3475  0.2307  0.5594
18430TIP3    H176781   0.200   5.658  13.610  0.2231  0.2033  0.5295
18430TIP3    H276782   0.288   5.634  13.489 -1.4652 -1.8910 -0.3497
18431TIP3   OH276783   1.433   2.136   3.913 -0.2122 -0.1927 -0.0552
18431TIP3    H176784   1.483   2.092   3.845 -0.1894 -1.7292  0.9193
18431TIP3    H276785   1.491   2.205   3.945  0.4706 -0.6234 -0.3502
18432TIP3   OH276786   0.407   0.607  12.362  0.0673 -0.2133 -0.3024
18432TIP3    H176787   0.317   0.604  12.331 -0.0817 -1.4270  0.1714
18432TIP3    H276788   0.402   0.644  12.450  0.0129 -0.3873 -0.2317
18433TIP3   OH276789   2.922   2.759   4.732  0.1762 -0.2134  0.1947
18433TIP3    H176790   2.953   2.839   4.774 -0.0246 -0.5811  1.0688
18433TIP3    H276791   2.944   2.770   4.639  0.5079  0.6736  0.3707
18434TIP3   OH276792   2.602   6.475   5.813 -0.0827  0.1722  0.0862
18434TIP3    H176793   2.591   6.570   5.810  0.1001  0.1887 -0.1266
18434TIP3    H276794   2.675   6.458   5.754 -0.5192 -0.1653 -0.3625
18435TIP3   OH276795   0.382   2.275   4.423 -0.0891 -0.5992  0.9606
18435TIP3    H176796   0.299   2.300   4.383  0.1577  1.8488  1.7815
18435TIP3    H276797   0.359   2.244   4.510 -0.2325 -1.1431  0.7309
18436TIP3   OH276798   4.781   5.181  15.553 -0.1436  0.4229 -0.1930
18436TIP3    H176799   4.789   5.085  15.554 -0.5829  0.3724 -0.7876
18436TIP3    H276800   4.755   5.202  15.464 -0.2067  1.0912 -0.0241
18437TIP3   OH276801   4.474   5.279  14.514 -0.0703 -0.3690  0.3160
18437TIP3    H176802   4.483   5.309  14.423 -1.0864 -0.5042  0.1559
18437TIP3    H276803   4.560   5.244  14.536  0.1201 -0.5659 -0.6828
18438TIP3   OH276804   0.057   1.944  11.396 -0.2700  0.1675  0.3235
18438TIP3    H176805  -0.030   1.912  11.373 -0.3153  0.3329  0.2651
18438TIP3    H276806   0.083   1.999  11.323 -0.0113 -0.0804  0.2262
18439TIP3   OH276807   6.357   6.306  13.818 -0.1440  0.0039 -0.7717
18439TIP3    H176808   6.296   6.309  13.891  0.7091 -0.0342 -0.0448
18439TIP3    H276809   6.314   6.250  13.753 -0.0525 -1.6280  0.5109
18440TIP3   OH276810   3.745   0.742   2.090  0.1132  0.2252  0.2811
18440TIP3    H176811   3.754   0.782   2.177 -0.4921 -1.9037  1.3919
18440TIP3    H276812   3.821   0.772   2.041  0.5751  1.3064  1.6057
18441TIP3   OH276813   0.778   6.497   3.560  0.2474 -0.7023 -0.1140
18441TIP3    H176814   0.736   6.464   3.640 -0.2697 -0.3021 -0.2134
18441TIP3    H276815   0.752   6.589   3.556  3.8366  0.5835  1.6368
18442TIP3   OH276816   6.633   5.221   1.966  0.4830 -0.3581 -0.2648
18442TIP3    H176817   6.596   5.151   2.021  1.9507 -1.3555 -0.4901
18442TIP3    H276818   6.660   5.288   2.029 -0.7304 -0.0654 -0.0279
18443TIP3   OH276819   1.728   3.761   5.181  0.5183 -0.0533  0.1295
18443TIP3    H176820   1.785   3.690   5.211  0.8606  0.0287 -0.3118
18443TIP3    H276821   1.639   3.730   5.201  0.7448  0.2840  1.8290
18444TIP3   OH276822   6.618   3.215  13.613  0.1768 -0.3776 -0.7200
18444TIP3    H176823   6.602   3.136  13.562 -0.0138 -0.8346  0.0177
18444TIP3    H276824   6.541   3.269  13.598 -0.3993 -0.9798 -0.0891
18445TIP3   OH276825   6.719   0.961  11.055  0.2606 -0.3731 -0.1191
18445TIP3    H176826   6.701   1.022  11.126  2.1400 -0.7636  0.7456
18445TIP3    H276827   6.667   0.994  10.982  0.0860  1.4107  0.7500
18446TIP3   OH276828   5.626   5.915   2.712  0.1288  0.5100 -0.6908
18446TIP3    H176829   5.688   5.975   2.755 -0.6342  1.4260 -0.8411
18446TIP3    H276830   5.558   5.972   2.677 -2.2437 -0.6427  1.7526
18447TIP3   OH276831   5.239   2.002  16.375 -0.2443  0.0535 -0.1709
18447TIP3    H176832   5.296   1.946  16.428 -0.4931  0.3025  0.3669
18447TIP3    H276833   5.208   1.944  16.305  1.8250  0.2863 -1.3637
18448TIP3   OH276834   4.415   6.171   2.694  0.0371 -0.1232  0.6644
18448TIP3    H176835   4.330   6.188   2.734  0.8767  0.9377  2.1020
18448TIP3    H276836   4.398   6.171   2.600 -2.0046 -2.5879  0.9234
18449TIP3   OH276837   2.813   1.217  14.387  0.0875  0.1125 -0.1750
18449TIP3    H176838   2.876   1.195  14.318 -0.3374 -0.5337 -0.3627
18449TIP3    H276839   2.843   1.166  14.463 -1.0196 -1.3488 -0.6703
18450TIP3   OH276840   3.986   0.280   4.436  0.0019  0.2658 -0.4859
18450TIP3    H176841   4.018   0.190   4.445  2.0777  0.9063 -1.0265
18450TIP3    H276842   4.021   0.326   4.512  0.0783  0.9371 -0.9224
18451TIP3   OH276843   5.333   0.612   4.296  0.1519  0.3314  0.4598
18451TIP3    H176844   5.285   0.573   4.223 -2.0070  1.4058  1.2139
18451TIP3    H276845   5.345   0.703   4.270  2.6955 -0.0986 -0.1046
18452TIP3   OH276846   5.096   2.008  10.787 -0.2240  0.2678  0.2727
18452TIP3    H176847   5.020   1.979  10.838 -2.1465  2.4087 -1.1897
18452TIP3    H276848   5.122   2.091  10.828  0.1514  0.4639 -0.3496
18453TIP3   OH276849   0.886   1.631   2.794 -0.2224  0.7789  0.2910
18453TIP3    H176850   0.974   1.607   2.819 -0.6758 -0.1797  1.0112
18453TIP3    H276851   0.896   1.678   2.711  0.9858  1.0719  0.5909
18454TIP3   OH276852   0.405   1.099   2.555 -0.3107 -0.0239 -0.0204
18454TIP3    H176853   0.468   1.040   2.513  1.5019  1.1552  0.9124
18454TIP3    H276854   0.394   1.170   2.492  0.7027  0.6377  0.5076
18455TIP3   OH276855   5.847   6.398  15.586 -0.1369 -0.0159 -0.4769
18455TIP3    H176856   5.915   6.331  15.582  0.2612  0.2114  1.4043
18455TIP3    H276857   5.893   6.477  15.612 -1.0176  0.2886  0.2302
18456TIP3   OH276858   2.428   3.043   1.413  0.6569  0.2808 -0.3126
18456TIP3    H176859   2.511   3.050   1.365  0.7249  1.1332 -0.0851
18456TIP3    H276860   2.367   3.099   1.364  0.1074 -0.6256 -0.6842
18457TIP3   OH276861   1.664   4.661   1.318  0.0029  0.1412 -0.3865
18457TIP3    H176862   1.746   4.634   1.357 -0.3511 -0.6934 -0.1956
18457TIP3    H276863   1.679   4.657   1.223  0.6179  1.4162 -0.3691
18458TIP3   OH276864   1.976   3.969  12.419  0.2402  0.5627 -0.1585
18458TIP3    H176865   1.901   3.949  12.475  0.9627  0.2160  0.7017
18458TIP3    H276866   1.938   3.984  12.332 -0.9107  1.2314  0.4426
18459TIP3   OH276867   3.249   2.163   2.431 -0.1089  0.3940  0.0053
18459TIP3    H176868   3.220   2.253   2.442  0.0593  0.4029  0.4266
18459TIP3    H276869   3.218   2.137   2.345 -0.1757  0.8488 -0.1077
18460TIP3   OH276870   5.118   5.859  14.645  0.2268 -0.4593  0.5581
18460TIP3    H176871   5.062   5.784  14.623 -0.4758  0.1198  0.3176
18460TIP3    H276872   5.186   5.858  14.578  0.8744 -1.5304  1.2078
18461TIP3   OH276873   2.305   6.129   3.192 -0.1796 -0.8955  0.5529
18461TIP3    H176874   2.244   6.141   3.264 -0.5649  0.5004  0.0348
18461TIP3    H276875   2.260   6.166   3.116  1.4848  0.6647  0.2558
18462TIP3   OH276876   6.408   5.991  12.599 -0.5687 -0.2706 -0.2973
18462TIP3    H176877   6.330   5.935  12.594 -0.1223 -0.9105 -0.2074
18462TIP3    H276878   6.472   5.938  12.646  0.4689 -0.3775 -1.7770
18463TIP3   OH276879   0.826   4.785  16.458  0.1777  0.2606 -0.4931
18463TIP3    H176880   0.738   4.824  16.449 -0.2723 -0.9185 -1.3555
18463TIP3    H276881   0.826   4.747  16.546 -0.4984 -0.4982 -0.8138
18464TIP3   OH276882   0.136   3.782   3.529 -0.1357  0.4425  0.6256
18464TIP3    H176883   0.082   3.707   3.505  1.5835 -0.5742 -0.2331
18464TIP3    H276884   0.074   3.855   3.535 -1.6861 -0.7934  0.3825
18465TIP3   OH276885   4.840   2.559  14.784  0.5593  0.2567 -0.2985
18465TIP3    H176886   4.789   2.498  14.838  2.1176 -1.1592 -0.3289
18465TIP3    H276887   4.792   2.642  14.790 -0.9360 -0.6192  0.8154
18466TIP3   OH276888   3.599   0.331   6.421 -0.1418  0.3739 -0.4599
18466TIP3    H176889   3.545   0.258   6.453 -1.0304  0.9899 -0.5260
18466TIP3    H276890   3.578   0.336   6.327 -0.9313  1.4196 -0.2358
18467TIP3   OH276891   3.919   3.667  14.866 -0.4076 -0.2860  0.3868
18467TIP3    H176892   3.871   3.622  14.797 -0.0435  0.3985 -0.3378
18467TIP3    H276893   3.971   3.733  14.819 -0.8839  0.8395  1.3998
18468TIP3   OH276894   5.225   3.876   0.094  0.3636  0.1723  0.0816
18468TIP3    H176895   5.243   3.958   0.047 -1.4918  1.7391  1.9016
18468TIP3    H276896   5.293   3.872   0.161  0.0773  0.5571  0.3949
18469TIP3   OH276897   1.848   1.182  15.281  0.3044 -0.2984 -0.5013
18469TIP3    H176898   1.785   1.115  15.255  1.1694 -2.0327  1.5059
18469TIP3    H276899   1.853   1.242  15.207 -3.1569 -0.4429 -0.9949
18470TIP3   OH276900   3.398   1.468   5.101 -0.1425  0.0192  0.1586
18470TIP3    H176901   3.389   1.486   5.195  1.7157 -0.9528  0.5831
18470TIP3    H276902   3.449   1.542   5.067 -2.2322  1.2373 -0.4826
18471TIP3   OH276903   4.774   4.881  15.527 -0.2309 -0.4430  0.1900
18471TIP3    H176904   4.833   4.809  15.550 -1.2433 -1.1162  0.7422
18471TIP3    H276905   4.781   4.889  15.432  1.8123  0.4436  0.3468
18472TIP3   OH276906   6.632   3.676   5.335 -0.4392 -0.6316  0.3213
18472TIP3    H176907   6.551   3.650   5.379  0.8834 -1.9670  2.1391
18472TIP3    H276908   6.673   3.739   5.395  0.4614 -0.9586  0.0663
18473TIP3   OH276909   2.437   4.592   0.182 -0.4368 -0.4164 -0.1161
18473TIP3    H176910   2.453   4.685   0.199 -0.8830 -0.6262  1.5773
18473TIP3    H276911   2.459   4.548   0.264 -0.0845 -1.8476 -0.9375
18474TIP3   OH276912   6.249   3.892  12.172  0.4229  0.5221  0.3771
18474TIP3    H176913   6.158   3.903  12.141  0.7097  2.5039  0.0489
18474TIP3    H276914   6.251   3.939  12.255  0.8040 -0.8305  1.1477
18475TIP3   OH276915   3.812   3.799  16.923  0.1645 -0.1177 -0.4618
18475TIP3    H176916   3.793   3.763  17.010 -3.2007  1.7090 -0.2603
18475TIP3    H276917   3.823   3.892  16.937 -3.8385  0.8402 -2.1338
18476TIP3   OH276918   3.649   1.499  14.704 -0.6431 -0.3333 -0.0136
18476TIP3    H176919   3.603   1.425  14.742 -1.6318 -0.0747 -0.6725
18476TIP3    H276920   3.734   1.464  14.678 -1.1478 -1.2852 -0.4392
18477TIP3   OH276921   5.145   5.345   5.303 -0.0321 -0.0627 -0.3500
18477TIP3    H176922   5.139   5.258   5.263 -2.1341 -0.5610  0.8846
18477TIP3    H276923   5.223   5.341   5.357  1.2627 -0.3226 -2.1385
18478TIP3   OH276924   5.610   1.640  12.736 -0.4335 -0.6342 -0.2371
18478TIP3    H176925   5.591   1.701  12.807  0.3003 -1.4617  0.6875
18478TIP3    H276926   5.652   1.694  12.669  0.5346 -0.1704  0.7176
18479TIP3   OH276927   5.467   6.707  14.366  0.4892 -0.4668  0.3569
18479TIP3    H176928   5.547   6.703  14.313  0.0735 -0.1886 -0.3129
18479TIP3    H276929   5.403   6.747  14.308  0.3940  1.2398  1.5530
18480TIP3   OH276930   4.254   5.721   2.551  0.5466  0.6816 -0.3058
18480TIP3    H176931   4.287   5.689   2.635  1.4088  0.5322 -0.6936
18480TIP3    H276932   4.301   5.804   2.537  0.6860  0.5211 -0.8105
18481TIP3   OH276933   2.388   3.303  12.046  0.0880  0.1155  0.1780
18481TIP3    H176934   2.336   3.361  11.990 -1.5905 -2.4678 -1.1457
18481TIP3    H276935   2.463   3.279  11.992 -0.2730 -0.4944 -0.0589
18482TIP3   OH276936   4.601   6.084   1.936  0.7563  0.2309  0.8218
18482TIP3    H176937   4.590   5.994   1.967  2.3531 -0.0070  0.7586
18482TIP3    H276938   4.635   6.132   2.012 -1.9461  1.2916  1.4724
18483TIP3   OH276939   6.209   1.075   0.085  0.2247 -0.2855 -0.4286
18483TIP3    H176940   6.177   1.050  -0.002 -0.2318 -1.3086  0.0188
18483TIP3    H276941   6.150   1.031   0.145  0.6918  0.2172  0.4093
18484TIP3   OH276942   4.797   4.725  14.055 -0.4125  0.1906 -0.3342
18484TIP3    H176943   4.726   4.682  14.103  0.7342 -0.5972  0.6901
18484TIP3    H276944   4.753   4.764  13.979 -1.6950 -1.6361 -0.5944
18485TIP3   OH276945   1.848   3.051  16.087 -0.3696  0.1097 -0.7610
18485TIP3    H176946   1.895   3.116  16.035  0.2328  1.0756  0.9146
18485TIP3    H276947   1.805   2.995  16.022  1.2722  0.5468 -2.3095
18486TIP3   OH276948   2.984   0.007  14.575  0.0154  0.1670  0.3535
18486TIP3    H176949   3.055  -0.045  14.537  0.1442  0.1955  0.5579
18486TIP3    H276950   2.998   0.002  14.670 -1.0676 -1.0049  0.4728
18487TIP3   OH276951   2.087   3.944  15.851  0.0718 -0.7074 -0.2938
18487TIP3    H176952   2.063   3.903  15.768  0.0995 -0.1530 -0.5827
18487TIP3    H276953   2.049   4.032  15.845 -0.8206 -1.0034  0.7095
18488TIP3   OH276954   4.470   5.353  11.307  0.3552  0.1001  0.6045
18488TIP3    H176955   4.476   5.402  11.224 -1.0061  0.2004  0.5461
18488TIP3    H276956   4.554   5.368  11.350  0.6950  0.8824 -0.3045
18489TIP3   OH276957   5.455   4.417  14.764  0.0942  0.2570  0.1189
18489TIP3    H176958   5.504   4.366  14.828  0.0413  0.8491  0.6293
18489TIP3    H276959   5.364   4.412  14.794  0.1053  0.7549  0.2417
18490TIP3   OH276960   3.590   1.739  13.790  0.3082 -0.4013 -0.0596
18490TIP3    H176961   3.592   1.808  13.724 -1.9791 -1.6133 -1.5504
18490TIP3    H276962   3.634   1.664  13.749  1.8906 -0.1872  1.1575
18491TIP3   OH276963   6.764   4.992  16.446  0.0769 -0.3050  0.3361
18491TIP3    H176964   6.733   4.952  16.365  0.0492  1.6943 -0.7223
18491TIP3    H276965   6.698   5.059  16.466  0.7965  0.1564  1.2418
18492TIP3   OH276966   1.932   1.813   2.416 -0.0815 -0.1808  0.0674
18492TIP3    H176967   1.930   1.718   2.427 -2.5273  0.0425  2.9472
18492TIP3    H276968   1.866   1.831   2.349 -0.1386 -0.4699  0.0452
18493TIP3   OH276969   3.683   1.834   5.545 -0.6284 -0.2272  0.2203
18493TIP3    H176970   3.609   1.878   5.504  0.3681 -0.1487 -1.6295
18493TIP3    H276971   3.733   1.905   5.585  0.9787  0.4939 -2.7650
18494TIP3   OH276972   1.802   3.549  16.075 -0.1869  0.0780 -0.2561
18494TIP3    H176973   1.709   3.546  16.097 -1.2519 -2.5559 -4.0479
18494TIP3    H276974   1.835   3.463  16.100 -0.5306 -1.5026 -4.4424
18495TIP3   OH276975   5.211   1.890  14.724  0.3735 -0.4571 -0.1572
18495TIP3    H176976   5.131   1.911  14.677 -0.0104  0.1947  0.7632
18495TIP3    H276977   5.270   1.963  14.705  0.5563 -0.6518 -0.3601
18496TIP3   OH276978   4.433   1.350   1.654  0.5916  0.5973 -1.1843
18496TIP3    H176979   4.481   1.420   1.611  0.7656  0.2996 -1.4744
18496TIP3    H276980   4.463   1.270   1.611 -0.6498  0.4602 -1.8269
18497TIP3   OH276981   0.672   1.437  15.280 -0.2071  0.0585 -0.5574
18497TIP3    H176982   0.759   1.437  15.320  0.0164  2.1290 -0.9399
18497TIP3    H276983   0.638   1.350  15.298  2.0777 -0.9533 -0.6964
18498TIP3   OH276984   2.846   0.147  12.094  0.0374  0.3835 -0.2529
18498TIP3    H176985   2.773   0.197  12.131 -1.6249 -0.7724 -1.7758
18498TIP3    H276986   2.895   0.116  12.171 -1.0092  1.2636  0.8170
18499TIP3   OH276987   5.344   0.943  14.623 -0.2874 -0.3835  0.1080
18499TIP3    H176988   5.289   0.934  14.701 -0.7548 -0.4801 -0.2221
18499TIP3    H276989   5.371   1.034  14.622 -1.2418 -0.0880 -0.2346
18500TIP3   OH276990   5.666   3.041  15.104 -0.2856  0.0816  0.8713
18500TIP3    H176991   5.624   3.121  15.137  1.4970  0.4688  2.3473
18500TIP3    H276992   5.760   3.062  15.102  0.0229 -1.2233 -0.9323
18501TIP3   OH276993   2.560   3.090  11.841 -0.7861  0.2708 -0.5937
18501TIP3    H176994   2.597   3.178  11.839 -0.1928  0.0814  0.8873
18501TIP3    H276995   2.611   3.044  11.909 -1.0907 -1.2066 -1.3267
18502TIP3   OH276996   1.639   3.668  17.191 -0.3336  0.1318  0.2018
18502TIP3    H176997   1.607   3.596  17.245 -0.8860 -1.5000 -2.1225
18502TIP3    H276998   1.729   3.682  17.219 -0.8384 -0.0675  2.0437
18503TIP3   OH276999   4.685   5.634  12.900 -0.1552  0.4181  0.0802
18503TIP3    H177000   4.620   5.671  12.959  0.5126 -0.2289  1.2563
18503TIP3    H277001   4.745   5.707  12.883  0.1733  0.3640  0.9721
18504TIP3   OH277002   0.981   6.412  13.791  0.0725 -0.0566  0.3593
18504TIP3    H177003   1.023   6.476  13.848  0.0227 -0.9675  1.4500
18504TIP3    H277004   0.887   6.421  13.809  0.0386 -0.2137  0.2647
18505TIP3   OH277005   3.495   4.256  12.678 -0.1119 -0.4183  1.0089
18505TIP3    H177006   3.412   4.250  12.725  0.3113 -1.4765  1.6561
18505TIP3    H277007   3.488   4.337  12.628 -1.0997  0.0672  1.8879
18506TIP3   OH277008   2.866   5.748  15.816 -1.0617 -0.1529 -0.7271
18506TIP3    H177009   2.953   5.785  15.829 -0.5587 -1.8676  1.3894
18506TIP3    H277010   2.808   5.824  15.811  0.1825  1.0093  1.1012
18507TIP3   OH277011   2.737   1.168   0.907 -0.1153  0.0440  0.4920
18507TIP3    H177012   2.696   1.249   0.937 -0.1328 -0.5978  2.3235
18507TIP3    H277013   2.815   1.159   0.962  2.4350  1.0476 -2.6646
18508TIP3   OH277014   5.306   0.466   5.901 -0.4822 -0.3672 -0.3244
18508TIP3    H177015   5.306   0.375   5.872 -2.5121 -0.6635  0.4397
18508TIP3    H277016   5.340   0.463   5.991  2.3827  0.0847 -1.3102
18509TIP3   OH277017   4.523   4.166   3.345 -0.9104  0.2527  1.1024
18509TIP3    H177018   4.485   4.133   3.426  1.3261  1.4276  2.7467
18509TIP3    H277019   4.583   4.235   3.373 -0.0848  0.7521 -1.5796
18510TIP3   OH277020   6.259   5.709  12.372 -0.1120 -0.1948  0.5827
18510TIP3    H177021   6.171   5.680  12.349 -0.1928 -0.8576  1.6858
18510TIP3    H277022   6.315   5.634  12.354  0.0534 -0.1751  0.9974
18511TIP3   OH277023   6.420   0.286  16.382 -0.3814 -0.5055  0.2895
18511TIP3    H177024   6.486   0.258  16.320 -0.8452 -1.7751  0.3223
18511TIP3    H277025   6.450   0.251  16.466 -0.5166 -0.0981  0.5103
18512TIP3   OH277026   0.445   1.702  11.565  0.3991  0.2171  0.1377
18512TIP3    H177027   0.490   1.747  11.494 -0.7129  0.2950 -0.5463
18512TIP3    H277028   0.352   1.704  11.540 -0.0758  0.6200  1.7995
18513TIP3   OH277029   4.619   5.521   1.707  0.3802  0.6904  0.2705
18513TIP3    H177030   4.547   5.464   1.734  0.7841  0.1419  0.2031
18513TIP3    H277031   4.627   5.505   1.613  0.4248  0.9456  0.2301
18514TIP3   OH277032   4.931   5.539  15.847 -0.3006 -0.3111  0.0430
18514TIP3    H177033   5.010   5.496  15.814  0.6082  0.7791  0.7647
18514TIP3    H277034   4.905   5.598  15.777 -1.5724 -1.9635 -0.9693
18515TIP3   OH277035   5.229   3.375   1.352  0.3557 -0.2062  0.0241
18515TIP3    H177036   5.212   3.281   1.360  1.6858 -0.3578  1.7220
18515TIP3    H277037   5.147   3.412   1.320 -0.6349 -1.7855  0.6461
18516TIP3   OH277038   5.476   0.195  13.723 -0.1739  0.5092 -0.2640
18516TIP3    H177039   5.564   0.231  13.715 -0.2911  1.2648  1.4113
18516TIP3    H277040   5.418   0.269  13.703 -0.4379  0.2253 -0.5723
18517TIP3   OH277041   2.491   5.838   0.198  0.5431 -0.0919 -0.4438
18517TIP3    H177042   2.477   5.811   0.289  1.3070  0.8996 -0.0064
18517TIP3    H277043   2.577   5.880   0.199 -0.8745  3.0812 -0.8799
18518TIP3   OH277044   5.157   2.720  17.196 -0.2174 -0.0508  0.1803
18518TIP3    H177045   5.090   2.783  17.223 -0.4293  0.5303 -1.5828
18518TIP3    H277046   5.240   2.762  17.219 -0.4113 -0.0057  0.8053
18519TIP3   OH277047   4.148   0.704   5.087  0.1876  0.1063 -0.0481
18519TIP3    H177048   4.168   0.651   5.164 -0.2301  1.5122  1.0634
18519TIP3    H277049   4.232   0.714   5.042  0.7367  0.4942  1.0322
18520TIP3   OH277050   0.815   3.911  14.432  0.2422 -0.1803  0.0903
18520TIP3    H177051   0.745   3.962  14.472 -1.0558 -0.8474 -1.1909
18520TIP3    H277052   0.884   3.974  14.413 -0.7425  0.8399 -0.1856
18521TIP3   OH277053   4.267   6.023   3.922 -0.8580  0.1643 -0.5098
18521TIP3    H177054   4.333   5.984   3.865 -1.1045  1.2628 -1.5728
18521TIP3    H277055   4.234   5.949   3.974  1.4416 -0.3534  0.3206
18522TIP3   OH277056   2.642   2.557  13.187 -0.4900  0.2243 -0.0499
18522TIP3    H177057   2.711   2.593  13.130  0.9980 -0.8616  0.9849
18522TIP3    H277058   2.593   2.498  13.130  0.0233  0.3018 -0.5881
18523TIP3   OH277059   0.933   0.360   3.153 -0.2766 -0.3079  0.0692
18523TIP3    H177060   0.909   0.408   3.232  2.2829  1.0843  0.1159
18523TIP3    H277061   0.954   0.272   3.183  0.7278  0.2250  0.9886
18524TIP3   OH277062   0.161   4.265   1.279  0.2957  0.2838  0.3300
18524TIP3    H177063   0.159   4.273   1.184  1.6290  2.3711  0.4156
18524TIP3    H277064   0.248   4.231   1.298 -0.1755 -0.6895  0.7894
18525TIP3   OH277065   0.266   2.736  12.143 -0.4106  0.2432  0.3010
18525TIP3    H177066   0.302   2.822  12.166 -2.0953  1.2465 -0.5955
18525TIP3    H277067   0.186   2.729  12.196  0.2708 -1.2750  1.1719
18526TIP3   OH277068   4.526   4.531   0.586  0.6945 -0.4373 -0.3865
18526TIP3    H177069   4.484   4.614   0.605 -0.8508 -0.9661 -1.2969
18526TIP3    H277070   4.584   4.549   0.512 -0.3235 -0.3186 -1.1873
18527TIP3   OH277071   1.963   0.125  10.214 -0.8622  0.4505  0.1086
18527TIP3    H177072   1.937   0.205  10.169 -3.1955 -0.0457  0.4454
18527TIP3    H277073   2.025   0.155  10.281 -0.3246  1.7023 -0.8993
18528TIP3   OH277074   5.685   3.335   1.317  0.0320  0.4288 -0.4394
18528TIP3    H177075   5.595   3.347   1.347 -0.1550  2.1889 -1.5070
18528TIP3    H277076   5.727   3.419   1.336  1.6588 -0.5828  0.6341
18529TIP3   OH277077   5.325   0.247   0.849  0.0942  0.2424 -0.1707
18529TIP3    H177078   5.357   0.180   0.789  1.1412 -0.1988  0.8487
18529TIP3    H277079   5.380   0.323   0.831 -1.6400  1.1848 -1.9245
18530TIP3   OH277080   3.282   0.133  11.261  0.2666 -0.8067  0.3894
18530TIP3    H177081   3.260   0.124  11.168  1.6244  0.3021 -0.0625
18530TIP3    H277082   3.197   0.135  11.305 -0.6792  2.6979 -1.2201
18531TIP3   OH277083   1.113   6.666  12.625  0.0771 -0.4971  0.1152
18531TIP3    H177084   1.150   6.685  12.538 -0.6787  2.0382  0.2801
18531TIP3    H277085   1.020   6.653  12.609 -0.0018 -0.4058  0.4980
18532TIP3   OH277086   4.263   0.260   3.645 -0.3906 -0.1859 -0.3644
18532TIP3    H177087   4.274   0.348   3.610  0.1976  0.1132  0.5302
18532TIP3    H277088   4.176   0.260   3.684  0.4488  0.7837  1.6980
18533TIP3   OH277089   5.960   0.315   3.810 -0.3007 -0.3714 -0.0562
18533TIP3    H177090   6.033   0.317   3.749 -0.4073  0.5458 -0.1699
18533TIP3    H277091   5.953   0.405   3.842 -1.8024 -0.2605 -0.5844
18534TIP3   OH277092   0.070   2.744   1.175  0.0958  0.0880  0.3426
18534TIP3    H177093  -0.002   2.754   1.112  0.1329 -3.7460 -0.5170
18534TIP3    H277094   0.026   2.743   1.261 -0.7159 -0.6590 -0.0631
18535TIP3   OH277095   6.440   4.084  17.182 -0.6170 -0.2296 -0.4763
18535TIP3    H177096   6.513   4.029  17.154 -1.5284 -1.7438  0.0346
18535TIP3    H277097   6.380   4.024  17.226 -1.8063  1.1215 -0.1928
18536TIP3   OH277098   5.416   5.351   1.001  0.1297 -0.5350  0.1496
18536TIP3    H177099   5.455   5.306   1.076  0.5368  0.2306  0.4048
18536TIP3    H277100   5.405   5.442   1.030 -2.4648 -0.8335  0.3081
18537TIP3   OH277101   3.882   0.122  15.956 -0.1948 -0.1205 -0.3625
18537TIP3    H177102   3.860   0.040  16.000  2.3561 -2.4023 -2.9088
18537TIP3    H277103   3.967   0.148  15.992  0.1404  0.0373 -1.2166
18538TIP3   OH277104   3.617   5.797  14.137  0.1158  0.4515  0.2150
18538TIP3    H177105   3.522   5.808  14.138  0.2097  1.3523  0.4608
18538TIP3    H277106   3.651   5.882  14.165  1.0080  0.3493 -0.4960
18539TIP3   OH277107   2.277   5.127   5.090  0.0105 -0.0678 -1.0497
18539TIP3    H177108   2.281   5.099   5.181 -2.4681 -2.1909 -1.4530
18539TIP3    H277109   2.368   5.141   5.065  0.7761  0.3516  1.6511
18540TIP3   OH277110   6.096   3.630   0.312  0.4901 -0.4496 -0.5493
18540TIP3    H177111   6.162   3.666   0.371  0.7103 -3.2128  1.0550
18540TIP3    H277112   6.018   3.685   0.326  1.2662  0.4334  0.4527
18541TIP3   OH277113   0.874   0.799   4.754  0.2042 -0.1041  0.4872
18541TIP3    H177114   0.838   0.886   4.771  0.0171 -0.5230  2.5663
18541TIP3    H277115   0.959   0.799   4.798  1.0481 -0.4004 -1.0787
18542TIP3   OH277116   3.710   1.697   4.596  0.2330  0.6858  0.0590
18542TIP3    H177117   3.787   1.707   4.540 -1.4928  2.0383 -2.2488
18542TIP3    H277118   3.686   1.604   4.588  0.3319  0.7385 -1.0973
18543TIP3   OH277119   5.426   3.576   3.673  0.0498  0.2801 -0.2946
18543TIP3    H177120   5.400   3.538   3.757 -0.2827  2.0970  0.4767
18543TIP3    H277121   5.356   3.637   3.651  1.5077  2.0463 -0.3474
18544TIP3   OH277122   2.692   1.456  12.729  0.0893 -0.6635  0.1690
18544TIP3    H177123   2.717   1.402  12.804 -0.9073 -1.6851 -0.1910
18544TIP3    H277124   2.625   1.516  12.763 -2.3586 -2.8835 -0.3525
18545TIP3   OH277125   3.802   5.844   3.154 -0.0169  0.1206 -0.0027
18545TIP3    H177126   3.792   5.824   3.060  0.7608  0.8886 -0.2648
18545TIP3    H277127   3.731   5.906   3.173 -0.6400 -0.6075  0.1131
18546TIP3   OH277128   4.723   6.749   0.005  0.6867 -0.3944  0.9057
18546TIP3    H177129   4.777   6.745  -0.074  0.5999  2.9126  0.5127
18546TIP3    H277130   4.672   6.668   0.004  0.6251 -0.4534 -2.4707
18547TIP3   OH277131   4.449   6.454  13.813 -0.5611  0.5536 -0.2834
18547TIP3    H177132   4.358   6.451  13.842  0.0439  0.0217  1.7271
18547TIP3    H277133   4.474   6.362  13.801  0.0480  0.6215  0.3909
18548TIP3   OH277134   0.997   1.234  15.783 -0.4157 -0.2263  0.0971
18548TIP3    H177135   0.980   1.142  15.801 -2.0998  0.2224  1.0074
18548TIP3    H277136   1.065   1.259  15.844 -0.2386 -0.7651  0.1212
18549TIP3   OH277137   1.777   4.405   4.947 -0.1628  0.0415 -0.4856
18549TIP3    H177138   1.706   4.370   4.894 -0.8205  1.6823 -0.7424
18549TIP3    H277139   1.734   4.457   5.015  0.7464 -0.1830  0.2948
18550TIP3   OH277140   4.956   3.154   1.603 -0.0362  0.8336  0.2411
18550TIP3    H177141   5.008   3.205   1.665 -1.7096  0.9793  1.5870
18550TIP3    H277142   4.929   3.076   1.651  1.2537 -0.6813 -1.3389
18551TIP3   OH277143   0.729   6.073   4.103 -0.7915  0.2604  0.4147
18551TIP3    H177144   0.706   5.980   4.096  0.8543 -0.0483 -2.1911
18551TIP3    H277145   0.644   6.117   4.111 -1.7198 -1.3424 -0.0001
18552TIP3   OH277146   3.332   0.693   2.435  0.0637  0.1596 -0.4389
18552TIP3    H177147   3.264   0.645   2.483 -0.5870  2.0668  0.6299
18552TIP3    H277148   3.376   0.625   2.384 -0.1273 -1.7782  1.7639
18553TIP3   OH277149   6.711   6.639  13.793 -0.1961 -0.0838 -0.3071
18553TIP3    H177150   6.774   6.680  13.853 -1.4777 -0.3010  1.2830
18553TIP3    H277151   6.699   6.551  13.828 -0.7774 -0.3048 -1.0478
18554TIP3   OH277152   0.118   3.109   5.977  0.0854  0.1803 -0.1399
18554TIP3    H177153   0.038   3.092   6.026 -1.1925  2.5109 -1.2544
18554TIP3    H277154   0.175   3.035   5.997 -2.0341 -1.1502  1.3110
18555TIP3   OH277155   5.598   2.241  15.183 -0.2943 -0.2002  0.2403
18555TIP3    H177156   5.687   2.257  15.215  0.6539  0.9150 -2.5919
18555TIP3    H277157   5.569   2.326  15.150 -1.8733 -0.8649 -0.1668
18556TIP3   OH277158   3.547   2.567   0.206  0.1227  0.2081 -0.6769
18556TIP3    H177159   3.500   2.526   0.134  1.4390  0.8965 -1.9869
18556TIP3    H277160   3.531   2.661   0.196 -0.6672  0.2468  0.6808
18557TIP3   OH277161   5.892   6.558  10.584 -0.0049  0.3242  0.3282
18557TIP3    H177162   5.869   6.627  10.522 -1.6312 -0.7646 -0.3634
18557TIP3    H277163   5.810   6.537  10.628  0.1346 -2.0141 -0.3966
18558TIP3   OH277164   0.465   5.698   4.284  0.3418 -0.0730  0.6650
18558TIP3    H177165   0.512   5.634   4.337  2.0670 -0.9852 -1.8108
18558TIP3    H277166   0.376   5.662   4.275  0.6077 -0.8910  1.2646
18559TIP3   OH277167   5.285   4.759   1.093  0.8833 -0.2104 -0.5554
18559TIP3    H177168   5.345   4.726   1.025  1.2843  1.3005 -0.9658
18559TIP3    H277169   5.318   4.720   1.174  1.9158 -0.0790 -0.8974
18560TIP3   OH277170   5.715   4.610   1.495  0.2531  0.0746 -0.3569
18560TIP3    H177171   5.707   4.610   1.399 -0.5919  0.6469 -0.3006
18560TIP3    H277172   5.625   4.625   1.526 -0.0629 -2.9230  0.5861
18561TIP3   OH277173   0.964   5.321   3.365 -0.5414 -0.3754  0.1504
18561TIP3    H177174   1.058   5.310   3.384 -0.7892 -2.0925  0.5418
18561TIP3    H277175   0.961   5.346   3.273  0.3838  1.8032  0.6499
18562TIP3   OH277176   3.686   0.295   5.498  0.2937 -0.1261 -0.0439
18562TIP3    H177177   3.698   0.335   5.584 -0.0538 -1.8667  0.8537
18562TIP3    H277178   3.641   0.212   5.516 -1.4549  0.2821 -2.0660
18563TIP3   OH277179   0.320   6.590  13.653  0.0966 -0.1493 -0.2206
18563TIP3    H177180   0.238   6.628  13.621  1.1193  2.0517 -0.4263
18563TIP3    H277181   0.333   6.630  13.739  0.2710 -1.5941  0.4553
18564TIP3   OH277182   1.993   2.427  12.146  0.0746  0.1918  0.3464
18564TIP3    H177183   2.047   2.357  12.109 -1.4041 -1.2529  0.7771
18564TIP3    H277184   2.048   2.469  12.211  1.0376 -0.4906 -0.0101
18565TIP3   OH277185   4.235   1.146  11.506 -0.3097 -0.3449 -0.3635
18565TIP3    H177186   4.262   1.073  11.450  2.0727 -0.1473  0.4292
18565TIP3    H277187   4.299   1.215  11.490 -1.3470  0.8483  0.3913
18566TIP3   OH277188   3.026   0.261   3.973  0.6092 -0.3551  0.0297
18566TIP3    H177189   3.033   0.290   4.064 -0.1506  0.7844 -0.2434
18566TIP3    H277190   3.092   0.313   3.927  1.4514 -1.4073  0.0136
18567TIP3   OH277191   0.036   0.778   3.558  0.0828 -0.7537 -0.2222
18567TIP3    H177192   0.101   0.781   3.487  0.4700  1.8151  0.1447
18567TIP3    H277193  -0.046   0.803   3.515  0.2709  0.5551  0.1182
18568TIP3   OH277194   5.745   2.706  16.682 -0.2525 -0.1933  0.4558
18568TIP3    H177195   5.809   2.731  16.748  1.2825 -0.2694 -0.9304
18568TIP3    H277196   5.698   2.632  16.721  0.3720 -0.0101  1.5919
18569TIP3   OH277197   6.418   5.098   2.816 -0.0545 -0.6594  0.2596
18569TIP3    H177198   6.359   5.166   2.848  0.8689  0.4186 -0.2505
18569TIP3    H277199   6.363   5.042   2.761 -1.0916 -1.0446  1.6419
18570TIP3   OH277200   5.472   1.426   1.890  0.1475 -1.0177  0.2973
18570TIP3    H177201   5.514   1.455   1.971 -1.2200 -0.1423  0.7412
18570TIP3    H277202   5.498   1.335   1.880  1.9981 -0.5632  0.6116
18571TIP3   OH277203   3.018   0.388   6.585  0.1192  0.5026  0.0114
18571TIP3    H177204   3.058   0.458   6.637  0.7480 -0.1583  0.4334
18571TIP3    H277205   3.092   0.342   6.547 -0.2387 -0.7035  0.7382
18572TIP3   OH277206   0.237   6.477  16.934  0.5945  0.1726  0.0958
18572TIP3    H177207   0.314   6.488  16.989  0.5778 -0.8130  0.3405
18572TIP3    H277208   0.215   6.384  16.941 -1.6820  0.7383  1.4813
18573TIP3   OH277209   2.761   2.083   3.028 -0.5347  0.2840 -0.0212
18573TIP3    H177210   2.807   2.165   3.009  0.5859 -0.6081 -1.4250
18573TIP3    H277211   2.813   2.042   3.097 -1.5013  1.0379  1.1986
18574TIP3   OH277212   5.128   0.152  16.435 -0.0372 -0.3213  0.2084
18574TIP3    H177213   5.072   0.154  16.358  0.2519  1.2355  0.0119
18574TIP3    H277214   5.198   0.090  16.413 -0.1271 -0.1180 -0.6648
18575TIP3   OH277215   0.372   1.290   1.624  0.4098 -0.5451  0.1684
18575TIP3    H177216   0.455   1.257   1.660  0.9972  1.1431  0.4485
18575TIP3    H277217   0.346   1.360   1.685 -1.5578 -1.4276  0.4310
18576TIP3   OH277218   4.242   5.518   0.908  0.0759  0.3917  0.0205
18576TIP3    H177219   4.163   5.573   0.910 -0.2247 -0.0599  1.2558
18576TIP3    H277220   4.309   5.572   0.950  0.5634  0.9503 -1.4308
18577TIP3   OH277221   3.668   0.384  12.912 -0.1333 -0.2168 -0.5810
18577TIP3    H177222   3.577   0.412  12.917 -0.3076 -0.8814  0.1658
18577TIP3    H277223   3.708   0.444  12.849 -0.7494  0.9967  0.1467
18578TIP3   OH277224   1.526   4.033   4.787 -0.6460  0.0928  0.3083
18578TIP3    H177225   1.596   4.026   4.722 -1.0584 -1.6134  0.0162
18578TIP3    H277226   1.538   3.958   4.844  0.3826  2.1222  2.9666
18579TIP3   OH277227   2.343   2.988  11.716 -0.1861 -0.0772  0.4553
18579TIP3    H177228   2.409   3.026  11.773  0.0829 -1.2994  1.0105
18579TIP3    H277229   2.260   3.011  11.757 -0.0982  0.9041  0.1154
18580TIP3   OH277230   2.193   6.225   3.763 -0.2244  0.2640  0.1737
18580TIP3    H177231   2.098   6.221   3.760 -0.1732 -0.2167 -1.0402
18580TIP3    H277232   2.212   6.315   3.792 -1.0297  0.3947  0.3233
18581TIP3   OH277233   0.340   3.516  12.165  0.4794  0.1763 -0.2379
18581TIP3    H177234   0.372   3.455  12.099  3.0315  0.2326  0.8460
18581TIP3    H277235   0.245   3.511  12.158  0.6480 -1.9244 -1.9644
18582TIP3   OH277236   0.720   5.555  16.399 -0.3283  0.5557  0.5549
18582TIP3    H177237   0.797   5.499  16.392 -0.6355  0.0589  1.0351
18582TIP3    H277238   0.691   5.544  16.490 -0.5707  1.2621  0.5658
18583TIP3   OH277239   4.548   2.609  11.708  0.1779  0.1632 -0.2526
18583TIP3    H177240   4.592   2.525  11.720  1.0460  0.7456  0.7807
18583TIP3    H277241   4.619   2.672  11.694 -0.1820  1.2765  2.3458
18584TIP3   OH277242   0.157   5.391   2.445 -0.5412 -0.3245  0.0253
18584TIP3    H177243   0.222   5.461   2.436  0.4348 -1.4207 -1.8779
18584TIP3    H277244   0.209   5.312   2.458 -1.5697 -0.9782  0.2166
18585TIP3   OH277245   5.277   0.639   1.846  0.4344 -0.3476 -0.3203
18585TIP3    H177246   5.208   0.701   1.869 -1.7903 -2.7132 -0.2066
18585TIP3    H277247   5.344   0.693   1.803 -1.2805  2.1179 -0.1104
18586TIP3   OH277248   0.659   0.561  16.212 -0.0098  0.1657  0.2388
18586TIP3    H177249   0.660   0.642  16.263 -0.7016 -0.5218  1.3862
18586TIP3    H277250   0.743   0.562  16.165  0.6078  0.8960  1.2984
18587TIP3   OH277251   5.549   5.665  16.415 -0.0644  0.1646 -0.1000
18587TIP3    H177252   5.494   5.740  16.438  0.3213  0.7265 -0.9492
18587TIP3    H277253   5.552   5.665  16.320  0.7813 -0.3123 -0.0927
18588TIP3   OH277254   5.626   2.790   0.890 -0.1269  0.0033 -0.2892
18588TIP3    H177255   5.586   2.707   0.863 -0.5098 -0.4992  1.6967
18588TIP3    H277256   5.681   2.767   0.965 -0.3391  1.5652  0.3771
18589TIP3   OH277257   3.807   0.596  14.438  0.2830 -0.0224  0.2974
18589TIP3    H177258   3.715   0.568  14.440  0.2679  0.0196  1.8523
18589TIP3    H277259   3.814   0.650  14.360 -0.7917 -0.7626 -0.3387
18590TIP3   OH277260   3.703   3.092  12.331  0.9807 -0.2796  0.5921
18590TIP3    H177261   3.658   3.124  12.253  1.5019  1.2761  0.8984
18590TIP3    H277262   3.768   3.031  12.297  0.3776 -0.5740 -0.0722
18591TIP3   OH277263   4.590   4.070   5.932 -0.0402 -0.6321  0.5236
18591TIP3    H177264   4.527   4.004   5.961 -2.0762  0.4305 -1.1463
18591TIP3    H277265   4.540   4.152   5.933  0.9450  0.0950 -1.9056
18592TIP3   OH277266   5.091   4.032   0.459  0.3732 -0.3424  0.0780
18592TIP3    H177267   5.153   3.962   0.440  0.0444 -0.6313  0.0564
18592TIP3    H277268   5.012   4.010   0.409  0.0379 -0.3042  0.5747
18593TIP3   OH277269   6.409   1.577  14.668  0.2021 -0.0564  0.1029
18593TIP3    H177270   6.455   1.628  14.602 -0.0318  0.1869  0.1255
18593TIP3    H277271   6.317   1.585  14.644  0.0815  0.3642  0.6858
18594TIP3   OH277272   1.988   5.100  17.216 -0.1811  0.4075  0.6040
18594TIP3    H177273   1.962   5.063  17.132  0.9040 -1.7261  1.1193
18594TIP3    H277274   2.027   5.184  17.195  0.9667 -0.5088 -1.1688
18595TIP3   OH277275   3.323   0.027  14.901  0.5870  0.1264 -0.2865
18595TIP3    H177276   3.334  -0.048  14.959  2.2508 -0.1659 -0.8983
18595TIP3    H277277   3.413   0.059  14.886 -0.0528  2.0349 -0.3103
18596TIP3   OH277278   3.180   1.470   6.609 -0.2347  0.4841  0.1471
18596TIP3    H177279   3.254   1.518   6.571  0.3357  0.0371  0.6697
18596TIP3    H277280   3.154   1.409   6.540 -0.4887  1.0272 -0.2474
18597TIP3   OH277281   5.853   4.904  15.291  0.6018 -0.5697 -0.8262
18597TIP3    H177282   5.766   4.943  15.276 -0.7039 -2.3367  1.3985
18597TIP3    H277283   5.852   4.822  15.242  1.6585  0.1024 -2.0195
18598TIP3   OH277284   3.647   1.862  14.067 -0.4231 -0.1156  0.0421
18598TIP3    H177285   3.551   1.865  14.074 -0.5152 -1.9370  0.0665
18598TIP3    H277286   3.663   1.813  13.986  0.5087  1.1116 -0.5379
18599TIP3   OH277287   3.456   6.683   3.987 -0.7280  0.3881  0.0955
18599TIP3    H177288   3.436   6.749   4.053 -3.6371 -0.8064  0.5278
18599TIP3    H277289   3.417   6.718   3.906  0.0117  0.3546 -0.2907
18600TIP3   OH277290   3.531   1.331  12.565 -0.5131 -0.3859  0.2055
18600TIP3    H177291   3.546   1.424  12.582  0.4466 -0.3887 -0.5638
18600TIP3    H277292   3.515   1.293  12.651  0.2913  0.2885  0.6644
18601TIP3   OH277293   6.772   6.740  15.918  0.1937  0.4355 -0.0397
18601TIP3    H177294   6.855   6.700  15.894 -0.0277 -0.3478  0.4425
18601TIP3    H277295   6.724   6.750  15.836  0.3644 -0.0445 -0.1956
18602TIP3   OH277296   3.174   0.100  10.993  0.2591  0.2386  0.1182
18602TIP3    H177297   3.210   0.016  10.964 -0.2577 -0.2925  0.9595
18602TIP3    H277298   3.092   0.109  10.945 -0.1901 -0.2456  0.7708
18603TIP3   OH277299   4.096   4.335  16.175  0.4432 -0.1899 -0.1999
18603TIP3    H177300   4.071   4.424  16.150  1.1621  0.2595  0.5962
18603TIP3    H277301   4.027   4.307  16.235  0.6158  0.1382  0.1552
18604TIP3   OH277302   2.559   6.407   2.940 -0.6652  0.1044  0.2249
18604TIP3    H177303   2.538   6.348   2.868 -2.8404 -0.1734  0.9884
18604TIP3    H277304   2.509   6.487   2.920  0.2140  0.7303  0.4852
18605TIP3   OH277305   4.466   2.357   0.293  0.2850 -0.2301  0.0231
18605TIP3    H177306   4.448   2.278   0.243 -1.7967  0.4913 -0.4872
18605TIP3    H277307   4.546   2.393   0.254 -0.9099 -0.0368 -2.3933
18606TIP3   OH277308   5.124   4.769  16.880 -0.0913  0.0777  0.1594
18606TIP3    H177309   5.123   4.694  16.820  0.9147  1.1465 -1.2822
18606TIP3    H277310   5.112   4.845  16.822  1.8916  1.2261  1.1594
18607TIP3   OH277311   1.732   6.788  15.711  0.5180 -0.5156  0.0092
18607TIP3    H177312   1.812   6.819  15.668 -0.0773 -1.4702 -1.8933
18607TIP3    H277313   1.753   6.699  15.740  0.2756 -0.5963 -0.0655
18608TIP3   OH277314   4.982   2.174   2.742 -0.0036 -0.3125 -0.0432
18608TIP3    H177315   4.976   2.118   2.819  0.3620  0.2631  0.4134
18608TIP3    H277316   4.918   2.138   2.681  0.1314 -1.1368  0.2949
18609TIP3   OH277317   5.563   1.844   4.589 -0.3833  0.2660 -0.1930
18609TIP3    H177318   5.474   1.867   4.562 -1.2453 -1.8379  0.6168
18609TIP3    H277319   5.568   1.871   4.681 -0.1286  0.4754 -0.2655
18610TIP3   OH277320   1.349   3.789  12.459 -0.0657  0.4839  0.5997
18610TIP3    H177321   1.435   3.809  12.495  1.0403 -0.2332 -1.4500
18610TIP3    H277322   1.293   3.861  12.488  1.5722  1.7248  0.8355
18611TIP3   OH277323   3.664   3.497  11.702  0.5221  0.4840  0.0703
18611TIP3    H177324   3.574   3.499  11.735  0.3435 -0.2800 -0.3485
18611TIP3    H277325   3.669   3.417  11.650  1.2898  0.7960 -0.3604
18612TIP3   OH277326   5.922   4.202   2.139  0.6822  0.2184 -0.0021
18612TIP3    H177327   5.931   4.236   2.050 -0.8995 -0.5872 -0.5084
18612TIP3    H277328   5.986   4.132   2.145  0.8539  0.3333 -0.4741
18613TIP3   OH277329   2.470   4.921  12.611 -0.0082  0.1227 -0.7393
18613TIP3    H177330   2.442   4.830  12.601 -1.9243  0.3919  1.2275
18613TIP3    H277331   2.501   4.947  12.524  0.4871 -2.3307 -1.3853
18614TIP3   OH277332   3.543   0.922   2.712  0.3005  0.5871  0.2478
18614TIP3    H177333   3.523   1.016   2.704 -1.7396  0.3008  1.2752
18614TIP3    H277334   3.635   0.915   2.686  0.3159  2.7635 -0.5209
18615TIP3   OH277335   4.715   4.420   2.401  0.0980 -0.3142 -0.5876
18615TIP3    H177336   4.689   4.512   2.399 -0.8098 -0.5777 -1.4202
18615TIP3    H277337   4.748   4.406   2.490  0.0013  0.7409 -0.3751
18616TIP3   OH277338   6.147   0.033  16.596  0.4295 -0.1730  0.1702
18616TIP3    H177339   6.234  -0.004  16.614  0.1253 -0.3719  1.2934
18616TIP3    H277340   6.135   0.099  16.664 -0.5954 -0.6553  0.4727
18617TIP3   OH277341   0.456   2.264   1.442 -0.1821  0.8614  0.8917
18617TIP3    H177342   0.415   2.311   1.515  1.2216  2.2601  0.8174
18617TIP3    H277343   0.545   2.247   1.471  0.1658  0.7391 -0.2023
18618TIP3   OH277344   3.704   2.672   5.144 -0.0305 -0.1286  0.0024
18618TIP3    H177345   3.622   2.627   5.162 -1.4281  2.8513  1.8693
18618TIP3    H277346   3.693   2.710   5.057  0.3423 -1.5571 -0.7009
18619TIP3   OH277347   5.949   0.631   1.926  0.1285 -0.2126  0.0873
18619TIP3    H177348   5.885   0.574   1.968 -0.3916  0.0373 -0.3618
18619TIP3    H277349   5.981   0.580   1.851 -0.9159  0.3641 -0.7845
18620TIP3   OH277350   2.909   3.044   1.285  0.0072 -0.5852  0.3286
18620TIP3    H177351   2.973   3.098   1.239 -0.4371  2.1968  2.6702
18620TIP3    H277352   2.825   3.089   1.270 -0.2242  0.1020  3.2604
18621TIP3   OH277353   3.456   5.905  15.960  0.1210  0.0739  0.6089
18621TIP3    H177354   3.458   5.927  15.867  0.4979 -1.4783  0.2151
18621TIP3    H277355   3.378   5.950  15.993 -0.3773  0.1540 -0.5884
18622TIP3   OH277356   4.041   5.206   0.504  0.4348  0.0870 -0.3593
18622TIP3    H177357   3.950   5.181   0.518  1.1543 -2.0537  1.0190
18622TIP3    H277358   4.082   5.128   0.467  1.2141  1.8600 -3.5861
18623TIP3   OH277359   4.305   6.000   1.062 -0.9206  0.5204 -0.8316
18623TIP3    H177360   4.254   6.066   1.016  0.3228  0.4520 -2.3879
18623TIP3    H277361   4.291   6.019   1.155 -3.5083  0.6472 -1.1956
18624TIP3   OH277362   5.699   5.305   2.423 -0.2092 -0.2984 -0.4302
18624TIP3    H177363   5.646   5.294   2.344 -0.4989 -0.3686 -0.2230
18624TIP3    H277364   5.789   5.289   2.392  0.0102  2.2525 -1.3113
18625TIP3   OH277365   5.328   0.923  17.179 -0.0670  0.2501  0.0136
18625TIP3    H177366   5.355   0.960  17.095  0.3652  2.2259  0.9520
18625TIP3    H277367   5.247   0.877  17.160  0.5971 -0.2991 -1.6774
18626TIP3   OH277368   1.204   3.664  15.309 -0.2771 -0.1931 -0.1456
18626TIP3    H177369   1.245   3.577  15.308  0.2300 -0.0017  1.1297
18626TIP3    H277370   1.267   3.719  15.356 -0.4550  0.9505 -1.1989
18627TIP3   OH277371   3.181   0.128  13.254 -0.0937 -0.0484  0.0681
18627TIP3    H177372   3.103   0.159  13.300 -1.6557 -0.6918 -2.0030
18627TIP3    H277373   3.203   0.198  13.193  0.6376 -0.1022  0.2559
18628TIP3   OH277374   0.668   0.562  15.396  0.5517 -0.5462 -0.0339
18628TIP3    H177375   0.585   0.517  15.411  0.2576  0.1879  0.6600
18628TIP3    H277376   0.684   0.609  15.478  1.8032 -0.9015 -0.0472
18629TIP3   OH277377   6.219   0.921  16.860 -0.1653  0.0404 -0.2237
18629TIP3    H177378   6.219   0.984  16.788 -2.6178 -1.5987 -1.8262
18629TIP3    H277379   6.143   0.944  16.913 -2.3001 -2.4832 -1.9094
18630TIP3   OH277380   6.750   4.905  12.427  0.8813 -0.3522  0.2232
18630TIP3    H177381   6.804   4.880  12.352 -0.5401 -1.3604 -0.5294
18630TIP3    H277382   6.713   4.990  12.403  0.7678 -0.4754 -0.0541
18631TIP3   OH277383   1.535   5.873  14.693  0.1708 -0.2338 -0.1861
18631TIP3    H177384   1.516   5.789  14.734 -0.9875 -0.0567 -0.3155
18631TIP3    H277385   1.598   5.852  14.623  0.8825 -0.7783  0.5994
18632TIP3   OH277386   0.729   3.357  11.325  0.3100 -0.4328 -0.0404
18632TIP3    H177387   0.675   3.414  11.379 -0.8439 -1.2666 -0.2859
18632TIP3    H277388   0.735   3.402  11.241 -2.7072 -1.7292 -1.0963
18633TIP3   OH277389   3.714   5.680  15.938  0.1381 -0.1441 -0.2943
18633TIP3    H177390   3.771   5.622  15.990  0.1204  0.3799  0.3121
18633TIP3    H277391   3.652   5.716  16.001 -0.2189  0.0905 -0.7758
18634TIP3   OH277392   6.533   2.497   6.067  0.2566  0.0984  0.2340
18634TIP3    H177393   6.497   2.576   6.025 -0.6973  0.2851  1.3295
18634TIP3    H277394   6.497   2.500   6.156  0.9235 -1.1219  0.5567
18635TIP3   OH277395   5.564   3.128   6.392  0.7331  0.4572 -0.3398
18635TIP3    H177396   5.542   3.045   6.434 -0.5002  0.0086 -1.7422
18635TIP3    H277397   5.542   3.194   6.457 -2.1021 -0.1541 -0.5204
18636TIP3   OH277398   5.996   2.966  12.755 -0.1169 -0.7482 -0.3272
18636TIP3    H177399   5.938   2.968  12.679 -1.6721 -1.6444  0.7836
18636TIP3    H277400   5.946   3.009  12.825  0.5048 -1.6106  0.6733
18637TIP3   OH277401   4.630   2.332  11.722  0.1898 -0.0925 -0.0758
18637TIP3    H177402   4.556   2.344  11.781 -0.3723 -0.8585 -0.6086
18637TIP3    H277403   4.671   2.250  11.750 -0.0075 -0.3992 -0.6623
18638TIP3   OH277404   1.214   4.150   0.542 -0.0698  0.5346 -0.5826
18638TIP3    H177405   1.233   4.176   0.632 -0.5631 -2.0239  0.3174
18638TIP3    H277406   1.283   4.088   0.519 -1.3362 -0.7648 -1.0348
18639TIP3   OH277407   1.997   4.446  14.821 -0.2105 -0.1081  0.0314
18639TIP3    H177408   1.960   4.428  14.907  1.0821  0.2430  0.6706
18639TIP3    H277409   2.028   4.361  14.789  1.4546  0.1141  0.9544
18640TIP3   OH277410   6.251   2.426  15.967  0.1461  0.5835  0.0640
18640TIP3    H177411   6.237   2.339  15.930 -1.6933  0.5230  0.7881
18640TIP3    H277412   6.305   2.411  16.045 -0.7963 -0.0307  0.6147
18641TIP3   OH277413   2.041   3.114  16.908  0.0842 -0.8248 -0.1839
18641TIP3    H177414   2.047   3.019  16.918 -1.7548 -1.0198 -0.5788
18641TIP3    H277415   2.007   3.145  16.992  0.2126 -0.5660 -0.2257
18642TIP3   OH277416   2.143   6.771  16.716 -0.2449  0.5367 -0.4840
18642TIP3    H177417   2.216   6.827  16.740 -0.7991  1.4992 -0.9854
18642TIP3    H277418   2.146   6.699  16.779  1.3788  0.3242 -0.7754
18643TIP3   OH277419   1.390   5.776  13.140  0.3490 -0.1015  0.0164
18643TIP3    H177420   1.372   5.821  13.057 -1.9273 -0.2164  0.3850
18643TIP3    H277421   1.451   5.706  13.117  0.5538  0.4977 -1.3598
18644TIP3   OH277422   3.315   2.889  14.315 -0.2243  0.0267  0.2180
18644TIP3    H177423   3.248   2.843  14.365 -1.9752  0.6757 -1.4241
18644TIP3    H277424   3.280   2.977  14.302  0.4988  0.1050 -1.4900
18645TIP3   OH277425   0.555   3.962   2.340  0.3510 -0.0069 -0.2074
18645TIP3    H177426   0.604   4.019   2.399  0.6387  0.9714 -1.3628
18645TIP3    H277427   0.613   3.887   2.327 -0.8834 -1.7218  3.0045
18646TIP3   OH277428   6.537   3.010  12.623 -0.4852  0.7099  0.0964
18646TIP3    H177429   6.584   3.051  12.696 -0.3236 -1.5084  1.3395
18646TIP3    H277430   6.454   2.981  12.661 -0.1371 -1.0416 -0.3960
18647TIP3   OH277431   6.460   0.954   0.199  0.6567 -0.0505 -0.3041
18647TIP3    H177432   6.538   0.976   0.149  0.5594  1.7128  0.2472
18647TIP3    H277433   6.388   0.996   0.151  0.4909  1.1688  0.9484
18648TIP3   OH277434   6.615   5.925  11.559  0.2155  0.0592  0.2934
18648TIP3    H177435   6.552   5.994  11.537  1.2176  0.5339 -1.2827
18648TIP3    H277436   6.650   5.950  11.644 -0.1473  0.9624  0.1854
18649TIP3   OH277437   3.631   3.335  12.198 -0.1400  0.1295  0.4134
18649TIP3    H177438   3.721   3.344  12.227 -0.8448  0.2131  2.7819
18649TIP3    H277439   3.580   3.388  12.260 -1.8837 -0.4424 -0.4553
18650TIP3   OH277440   1.634   6.650  13.790  0.4511  0.2213 -0.1181
18650TIP3    H177441   1.644   6.635  13.696  1.2259 -1.0555  0.1458
18650TIP3    H277442   1.665   6.569  13.830 -1.1541  0.2164  1.1979
18651TIP3   OH277443   4.272   5.865   0.152  0.6099 -0.3253  0.7327
18651TIP3    H177444   4.231   5.876   0.237  0.0815  0.7136  0.3671
18651TIP3    H277445   4.312   5.950   0.133  2.0962 -1.0176  0.6321
18652TIP3   OH277446   4.123   6.664   3.494 -0.0400  0.1498  0.4342
18652TIP3    H177447   4.066   6.602   3.539  0.5017  0.5606  1.7418
18652TIP3    H277448   4.168   6.710   3.565  1.3110  0.3987 -0.5615
18653TIP3   OH277449   2.968   1.794   0.908  0.1659 -0.5956  0.0617
18653TIP3    H177450   3.021   1.728   0.952 -0.2448 -1.5445 -0.8234
18653TIP3    H277451   2.981   1.777   0.814 -1.0881 -0.3538 -0.1732
18654TIP3   OH277452   5.078   3.293   1.774 -0.0265 -0.4796 -0.3891
18654TIP3    H177453   5.043   3.302   1.863 -1.0875 -0.5188 -0.7854
18654TIP3    H277454   5.151   3.355   1.771  1.0638 -1.6221  0.9897
18655TIP3   OH277455   1.263   1.194  16.713  0.7251  0.1384  0.4588
18655TIP3    H177456   1.313   1.193  16.795  0.3487 -0.0845  0.6882
18655TIP3    H277457   1.276   1.283  16.679 -0.1657  0.6483  1.4164
18656TIP3   OH277458   6.216   1.996  12.277  0.3344 -0.2098 -0.2573
18656TIP3    H177459   6.165   1.949  12.344  1.8029 -1.7751 -0.1541
18656TIP3    H277460   6.305   1.965  12.289  1.0089  1.0867 -1.5961
18657TIP3   OH277461   2.363   3.046   5.217  0.4265 -0.5782  0.5002
18657TIP3    H177462   2.347   2.965   5.169  2.0848 -1.5719  1.5519
18657TIP3    H277463   2.446   3.079   5.181 -1.0671  1.6848 -1.1907
18658TIP3   OH277464   1.155   4.846   0.845 -0.0137 -0.1795 -0.4215
18658TIP3    H177465   1.161   4.766   0.792  1.7412 -0.1615 -0.3183
18658TIP3    H277466   1.246   4.870   0.862 -0.3821  3.0163 -2.1465
18659TIP3   OH277467   3.356   6.627  13.993  0.1783  0.3888  0.4513
18659TIP3    H177468   3.298   6.554  14.016 -1.5206  1.0436 -1.4103
18659TIP3    H277469   3.390   6.603  13.907  0.5000  1.2797  0.3268
18660TIP3   OH277470   5.481   2.363  13.743  0.2541  0.2313 -0.1374
18660TIP3    H177471   5.436   2.374  13.659 -0.1642 -1.0092 -0.1004
18660TIP3    H277472   5.574   2.372  13.721  0.1219  0.4593 -0.6367
18661TIP3   OH277473   4.211   5.255  14.762  0.0354 -0.7086  0.0451
18661TIP3    H177474   4.163   5.325  14.719  0.2628 -0.4337  0.2369
18661TIP3    H277475   4.269   5.220  14.694  1.2619  0.5130  0.4155
18662TIP3   OH277476   5.149   0.278  11.237  0.0985  0.5181 -0.2994
18662TIP3    H177477   5.136   0.183  11.232 -0.9028  0.6759 -3.9470
18662TIP3    H277478   5.217   0.297  11.172 -0.7107  2.3689 -0.6964
18663TIP3   OH277479   5.728   5.573  12.890  0.5957  0.0921 -0.2629
18663TIP3    H177480   5.766   5.586  12.803  1.3348  1.1494  0.1960
18663TIP3    H277481   5.640   5.537  12.873  0.5414  0.7454 -1.4564
18664TIP3   OH277482   3.698   3.213   1.264 -0.0702 -0.0415  0.2545
18664TIP3    H177483   3.735   3.131   1.230  0.1653 -1.2943  3.2452
18664TIP3    H277484   3.749   3.231   1.343  0.0012  3.1531 -0.4132
18665TIP3   OH277485   4.601   3.231   1.675 -0.3436 -0.7748 -0.5013
18665TIP3    H177486   4.629   3.322   1.669 -2.3839 -0.0708 -0.0581
18665TIP3    H277487   4.616   3.195   1.587  0.3190  0.0152 -0.7237
18666TIP3   OH277488   2.816   0.480   3.092 -0.2570 -0.1954  0.4943
18666TIP3    H177489   2.820   0.535   3.170 -2.9796 -1.3017  1.5419
18666TIP3    H277490   2.730   0.501   3.053  0.2900 -0.9574 -1.2305
18667TIP3   OH277491   5.697   4.154  10.924  0.0092  0.3991  0.0165
18667TIP3    H177492   5.744   4.078  10.888  1.2776  0.6682  1.0387
18667TIP3    H277493   5.700   4.219  10.854 -0.6621 -0.3123 -0.6907
18668TIP3   OH277494   0.393   0.310  16.748  0.4579  0.2870 -0.6056
18668TIP3    H177495   0.352   0.374  16.690 -2.0006  0.2114  0.9132
18668TIP3    H277496   0.349   0.227  16.727 -0.0661  0.1544  0.9299
18669TIP3   OH277497   4.647   6.718   3.815  0.0334  1.0354  0.3892
18669TIP3    H177498   4.629   6.782   3.746 -0.6067  0.3828 -0.0684
18669TIP3    H277499   4.567   6.718   3.868  0.1618  0.8592  0.5826
18670TIP3   OH277500   6.093   6.274  15.552 -0.0952 -0.4091  0.3962
18670TIP3    H177501   6.162   6.219  15.514 -1.0823 -0.2930 -1.7508
18670TIP3    H277502   6.134   6.318  15.626  0.9633 -3.4276  1.7674
18671TIP3   OH277503   4.004   1.346  13.983  0.2664  0.2820 -0.7647
18671TIP3    H177504   4.042   1.429  13.953  2.5336 -1.0814 -1.9429
18671TIP3    H277505   3.986   1.298  13.902 -1.8745 -0.0920 -0.1310
18672TIP3   OH277506   3.647   4.326   0.670  0.2076  0.0479  0.2551
18672TIP3    H177507   3.652   4.278   0.752  2.8630 -1.2203 -0.5338
18672TIP3    H277508   3.586   4.276   0.615 -0.1612 -0.1145  0.8083
18673TIP3   OH277509   5.352   3.481   0.122 -0.2686 -0.1913 -0.2261
18673TIP3    H177510   5.271   3.470   0.172 -0.5252 -1.0676 -0.8196
18673TIP3    H277511   5.328   3.461   0.032  0.7394 -1.0549 -0.3205
18674TIP3   OH277512   0.601   5.888   5.505  0.1598 -0.2824 -0.4305
18674TIP3    H177513   0.600   5.890   5.601  0.3993 -1.0736 -0.4041
18674TIP3    H277514   0.593   5.980   5.479  3.5597  0.4061  0.3981
18675TIP3   OH277515   5.301   0.286   1.226 -0.1043 -0.3248  1.0200
18675TIP3    H177516   5.382   0.300   1.275  1.7380 -1.3657 -1.5000
18675TIP3    H277517   5.326   0.298   1.135 -2.6681 -1.3165  0.0937
18676TIP3   OH277518   5.916   0.535  15.153 -0.1062 -0.0787  0.0583
18676TIP3    H177519   5.981   0.465  15.165  0.2231 -0.2365 -2.0758
18676TIP3    H277520   5.955   0.611  15.195  2.3873  0.2843 -2.5761
18677TIP3   OH277521   0.490   4.697   0.202  0.2897  0.3100  0.2539
18677TIP3    H177522   0.550   4.661   0.137  0.9702 -1.2442  1.6712
18677TIP3    H277523   0.459   4.622   0.252 -1.5816  1.2651  0.6377
18678TIP3   OH277524   6.702   6.399   3.781 -0.2681  0.4405  0.1928
18678TIP3    H177525   6.700   6.437   3.693 -0.9133  0.5819  0.2664
18678TIP3    H277526   6.758   6.322   3.772 -2.8640 -1.4510 -1.1192
18679TIP3   OH277527   6.050   5.669   6.141  0.3211 -0.1787 -0.0682
18679TIP3    H177528   6.110   5.596   6.156 -1.3467 -1.4776  0.6406
18679TIP3    H277529   6.018   5.692   6.229  0.8571  1.4812 -0.2716
18680TIP3   OH277530   4.274   5.002  13.791  0.0324  0.5180 -0.0589
18680TIP3    H177531   4.229   5.086  13.797 -0.1705  0.4697 -0.8165
18680TIP3    H277532   4.360   5.018  13.829  0.2615  1.2667 -0.8615
18681TIP3   OH277533   5.313   4.956  16.122 -0.5580  0.3090  0.3692
18681TIP3    H177534   5.283   4.940  16.032 -0.7197 -0.0956  0.4901
18681TIP3    H277535   5.388   5.015  16.113 -1.2223  1.1069  0.0450
18682TIP3   OH277536   5.095   5.130  16.948 -0.7435  0.3070  0.2316
18682TIP3    H177537   5.082   5.090  16.862 -1.5151 -0.1302  0.5365
18682TIP3    H277538   5.065   5.063  17.010  1.5414 -0.1237  0.9537
18683TIP3   OH277539   3.870   6.185  14.854  0.3873 -0.3028 -0.4879
18683TIP3    H177540   3.884   6.277  14.828  0.4897 -0.3746 -0.6925
18683TIP3    H277541   3.904   6.134  14.780  1.6602 -0.5414  0.2439
18684TIP3   OH277542   5.530   0.147  13.377 -0.0077 -0.1202 -0.6898
18684TIP3    H177543   5.562   0.094  13.450 -1.0462 -0.5113 -0.4993
18684TIP3    H277544   5.567   0.234  13.394 -1.7283  0.2957  1.3935
18685TIP3   OH277545   5.627   4.644   2.822 -0.4791 -0.4098  0.5058
18685TIP3    H177546   5.710   4.626   2.776  0.1543 -0.5235  1.6450
18685TIP3    H277547   5.613   4.738   2.810  0.5186 -0.1276  1.3860
18686TIP3   OH277548   3.011   6.498  12.875  0.0528 -0.1418  0.5493
18686TIP3    H177549   3.057   6.434  12.819 -0.6960  1.4743 -2.0721
18686TIP3    H277550   3.057   6.580  12.860 -1.4958  0.7734  0.6635
18687TIP3   OH277551   0.209   0.249  14.326 -0.3907 -0.0154 -0.1427
18687TIP3    H177552   0.194   0.198  14.406  0.1180 -0.4111 -0.2880
18687TIP3    H277553   0.232   0.336  14.357 -0.3795 -0.1177  0.1436
18688TIP3   OH277554   2.748   1.018  17.206  0.0093 -0.2739 -0.3826
18688TIP3    H177555   2.759   0.923  17.209  1.1998 -0.1357  0.1968
18688TIP3    H277556   2.663   1.033  17.247  0.6185 -0.9806  1.2430
18689TIP3   OH277557   2.613   5.651   6.505  0.3487 -0.5256  0.8200
18689TIP3    H177558   2.662   5.587   6.558  2.1260 -0.1460 -0.2878
18689TIP3    H277559   2.679   5.691   6.449 -0.9187  1.5395  0.7254
18690TIP3   OH277560   2.791   5.290   2.302  0.1454 -0.2365 -0.2702
18690TIP3    H177561   2.708   5.242   2.311 -1.0778  1.6140 -1.1602
18690TIP3    H277562   2.856   5.232   2.341 -1.3298 -2.3945 -0.8227
18691TIP3   OH277563   0.932   2.818   4.699 -0.0548 -0.5961 -0.2142
18691TIP3    H177564   0.970   2.763   4.768 -2.1590 -1.4618  0.3168
18691TIP3    H277565   1.006   2.838   4.642  1.0048 -3.2296  0.0787
18692TIP3   OH277566   2.249   4.537  16.999  0.5779  0.1201 -0.0093
18692TIP3    H177567   2.281   4.621  16.968 -1.7408  1.2415  0.4530
18692TIP3    H277568   2.225   4.552  17.091  1.7798 -1.5592  0.6514
18693TIP3   OH277569   3.557   1.109   5.670  0.0036  0.5142 -1.4755
18693TIP3    H177570   3.633   1.149   5.627  0.9106 -0.7360 -1.1130
18693TIP3    H277571   3.554   1.020   5.633 -0.1512 -0.0629 -0.1186
18694TIP3   OH277572   4.521   0.239   6.448  0.3068 -0.0121  0.2475
18694TIP3    H177573   4.615   0.223   6.453  0.6482  2.0137  2.0788
18694TIP3    H277574   4.482   0.175   6.507  0.8553  0.7637  1.5091
18695TIP3   OH277575   5.164   3.576  14.705 -0.1776 -0.1000  0.5269
18695TIP3    H177576   5.221   3.537  14.639  0.6818  2.4551 -0.3551
18695TIP3    H277577   5.083   3.525  14.700 -1.2349  1.4468 -4.5077
18696TIP3   OH277578   6.326   3.828  16.151 -0.0408 -0.3379 -0.0111
18696TIP3    H177579   6.252   3.882  16.122  0.3358  0.7243  0.9348
18696TIP3    H277580   6.391   3.838  16.081 -0.0910  0.2219  0.0109
18697TIP3   OH277581   3.965   3.328   0.410 -0.4706  0.2611 -0.0403
18697TIP3    H177582   3.919   3.321   0.326  0.5621 -0.5259 -0.5529
18697TIP3    H277583   3.974   3.423   0.425 -2.0049  0.4380 -0.0451
18698TIP3   OH277584   3.336   3.263   0.886  0.1329 -0.1199 -0.1914
18698TIP3    H177585   3.376   3.213   0.957 -1.7230 -0.3317  0.7689
18698TIP3    H277586   3.363   3.217   0.806 -1.7847 -3.0103  0.6508
18699TIP3   OH277587   2.919   3.347   5.095 -0.5197  0.7740  0.0029
18699TIP3    H177588   2.896   3.258   5.068 -1.3806  0.9881 -0.0114
18699TIP3    H277589   2.988   3.336   5.160 -0.5326  0.1062 -0.0960
18700TIP3   OH277590   6.268   0.836   4.059  0.1846 -0.2300  0.7115
18700TIP3    H177591   6.258   0.741   4.069 -0.1401 -0.0856  1.9131
18700TIP3    H277592   6.319   0.846   3.979  1.3537 -1.4813  1.2464
18701TIP3   OH277593   5.632   4.912   1.807  0.2018  0.2314  0.3771
18701TIP3    H177594   5.684   4.832   1.809  0.8294  0.6283  2.5838
18701TIP3    H277595   5.654   4.953   1.723  0.5682 -1.4393 -0.3762
18702TIP3   OH277596   0.201   0.126   1.554 -0.5806  0.3097 -0.1703
18702TIP3    H177597   0.289   0.158   1.535 -0.7794  0.5906 -0.6512
18702TIP3    H277598   0.192   0.046   1.500 -1.1195  1.0669 -1.2498
18703TIP3   OH277599   3.387   0.538  12.712  0.6649 -0.4317 -0.8320
18703TIP3    H177600   3.296   0.517  12.692  0.5345 -0.3148 -0.3614
18703TIP3    H277601   3.390   0.543  12.807  1.3978 -1.5182 -0.7815
18704TIP3   OH277602   5.992   0.788  11.286  0.9727 -0.3501 -0.0797
18704TIP3    H177603   6.008   0.771  11.193  0.6047  1.6516 -0.5444
18704TIP3    H277604   5.937   0.715  11.314  2.0692 -1.6251 -1.1064
18705TIP3   OH277605   6.314   2.637   4.874  0.0058  0.4449 -0.0342
18705TIP3    H177606   6.251   2.577   4.832 -2.3602  3.2154 -0.8075
18705TIP3    H277607   6.268   2.669   4.952  0.8169  1.8995 -0.1194
18706TIP3   OH277608   0.002   5.041   1.683  0.8939  0.0393  0.4457
18706TIP3    H177609   0.039   5.046   1.595  3.2213  1.0369  1.3710
18706TIP3    H277610   0.045   5.112   1.731 -1.4286  0.4915  2.0296
18707TIP3   OH277611   0.163   6.132   1.452  0.0046  0.0381  0.3138
18707TIP3    H177612   0.188   6.221   1.428 -1.0886  0.2211 -0.2265
18707TIP3    H277613   0.246   6.087   1.468  0.6154  0.8897 -0.3684
18708TIP3   OH277614   1.343   6.071   1.426 -0.1986  0.0455  0.6907
18708TIP3    H177615   1.359   6.061   1.520 -0.0904 -0.4018  0.6246
18708TIP3    H277616   1.337   6.166   1.413 -0.9731  0.0874  1.2795
18709TIP3   OH277617   6.644   6.574   5.086  0.0206  0.0924 -0.2811
18709TIP3    H177618   6.682   6.655   5.122 -1.1094  0.9812 -1.0112
18709TIP3    H277619   6.720   6.527   5.051  0.7341  0.7286  0.3450
18710TIP3   OH277620   2.624   4.827   3.601 -0.4164  0.0811  0.2433
18710TIP3    H177621   2.693   4.885   3.567  0.7313 -1.0635  0.5064
18710TIP3    H277622   2.628   4.750   3.545 -1.0459 -0.2756  0.6770
18711TIP3   OH277623   3.307   6.167  11.106  0.4866 -0.3829 -0.4377
18711TIP3    H177624   3.279   6.205  11.023 -0.6811  0.7692  0.4452
18711TIP3    H277625   3.329   6.242  11.161  0.9405 -1.1154  0.4132
18712TIP3   OH277626   6.568   5.954  14.917  0.1980  0.4660 -0.3104
18712TIP3    H177627   6.490   5.979  14.866  0.2452 -1.8935 -1.6708
18712TIP3    H277628   6.574   6.021  14.985 -1.2187  2.4622 -2.0217
18713TIP3   OH277629   6.250   3.234  13.718 -0.5031 -0.2562 -0.1792
18713TIP3    H177630   6.268   3.218  13.811  1.6578 -2.7966 -0.9129
18713TIP3    H277631   6.264   3.328  13.707  0.1497 -0.0532  1.8945
18714TIP3   OH277632   1.375   2.244   2.434  0.5480  0.2269  0.1806
18714TIP3    H177633   1.287   2.205   2.438  0.7359 -1.0369 -3.9002
18714TIP3    H277634   1.427   2.190   2.494 -1.1881  0.4927  2.0551
18715TIP3   OH277635   0.217   6.205   4.967 -0.1024  0.2686  0.0881
18715TIP3    H177636   0.220   6.128   5.024  1.0084  0.7029  0.6397
18715TIP3    H277637   0.263   6.177   4.888 -1.8753 -0.4230 -0.7754
18716TIP3   OH277638   0.781   1.049   2.692  0.5294  0.0636 -0.1101
18716TIP3    H177639   0.866   1.088   2.709  0.3298  0.2639  0.4676
18716TIP3    H277640   0.719   1.120   2.710  0.2729  0.1153 -1.1545
18717TIP3   OH277641   4.707   3.743   2.273 -0.1617  0.4576 -0.1202
18717TIP3    H177642   4.713   3.834   2.303  1.1633 -0.5940  3.2022
18717TIP3    H277643   4.613   3.724   2.272 -0.4315  1.6879 -0.4641
18718TIP3   OH277644   5.065   4.652  11.705  0.4398 -0.2311 -0.2064
18718TIP3    H177645   5.001   4.583  11.725 -0.0302  0.9683  3.0218
18718TIP3    H277646   5.130   4.609  11.649 -1.0169 -2.6259 -0.1986
18719TIP3   OH277647   4.789   0.978  15.040 -0.1204  0.1534  0.1260
18719TIP3    H177648   4.702   0.941  15.029  0.0834 -1.1113  2.3795
18719TIP3    H277649   4.791   1.011  15.130  2.0451 -0.8117  0.5018
18720TIP3   OH277650   4.568   6.028  10.819 -0.4543 -0.3300  0.1211
18720TIP3    H177651   4.525   6.070  10.893  0.1123 -0.5075  0.5592
18720TIP3    H277652   4.500   6.024  10.751 -1.5810 -1.9460  1.2769
18721TIP3   OH277653   5.517   1.154  13.021 -0.2366  0.1468 -0.3400
18721TIP3    H177654   5.593   1.133  13.074 -1.2965  1.5435  1.8833
18721TIP3    H277655   5.541   1.128  12.932  2.0593 -1.2234  0.6096
18722TIP3   OH277656   0.386   2.466   3.548  0.0030  0.8993  0.5592
18722TIP3    H177657   0.369   2.557   3.523  2.1736  0.7325 -2.0802
18722TIP3    H277658   0.366   2.416   3.469  1.8937 -0.4577  0.8605
18723TIP3   OH277659   3.203   1.980   3.548 -0.4194  0.7482  0.3649
18723TIP3    H177660   3.207   2.027   3.632 -1.7902  0.4905  0.5859
18723TIP3    H277661   3.191   1.888   3.572  0.5427  0.4839 -0.1051
18724TIP3   OH277662   4.092   0.723   3.582 -0.3563  0.2902  0.1131
18724TIP3    H177663   4.127   0.803   3.544 -0.6204  0.9882  1.2787
18724TIP3    H277664   4.006   0.712   3.542 -1.0932  1.6037  1.2210
18725TIP3   OH277665   5.944   4.210  10.724  0.1998  0.7559  0.2318
18725TIP3    H177666   5.944   4.220  10.629 -0.0513 -0.5656  0.0739
18725TIP3    H277667   5.906   4.123  10.739  2.0200  0.1069  1.4293
18726TIP3   OH277668   3.720   2.728   5.618 -0.1581 -0.4683  0.2962
18726TIP3    H177669   3.625   2.723   5.632 -0.4427  3.6980  1.1342
18726TIP3    H277670   3.729   2.758   5.528  0.1694  1.4327  0.9227
18727TIP3   OH277671   2.801   2.775  10.859 -0.3151 -0.2092 -0.3169
18727TIP3    H177672   2.741   2.841  10.892 -3.4217 -1.8026 -2.2865
18727TIP3    H277673   2.744   2.705  10.827  2.7036 -3.4084  0.6337
18728TIP3   OH277674   3.989   5.578  16.912  0.3618  0.5171  0.3150
18728TIP3    H177675   3.900   5.582  16.946  0.2722 -0.8896  0.3047
18728TIP3    H277676   3.991   5.643  16.842 -0.9422 -0.0772 -0.3055
18729TIP3   OH277677   4.136   0.861  14.705  0.3721 -0.1506 -0.4962
18729TIP3    H177678   4.054   0.857  14.654 -1.3616 -0.9908  2.1500
18729TIP3    H277679   4.132   0.947  14.747 -0.2762 -1.0206  1.2959
18730TIP3   OH277680   1.951   5.571   4.360  0.0184  0.4151  0.3185
18730TIP3    H177681   1.890   5.630   4.315 -0.0314 -0.5408 -0.9112
18730TIP3    H277682   2.001   5.530   4.289  0.3212 -0.7252  1.1685
18731TIP3   OH277683   2.243   3.429   1.821 -0.1450  0.5698  0.1360
18731TIP3    H177684   2.226   3.498   1.757 -1.8784  2.0401  2.0743
18731TIP3    H277685   2.338   3.432   1.835 -0.1431  2.4326  0.0036
18732TIP3   OH277686   4.135   4.379  11.712 -0.2447  0.1518  0.0779
18732TIP3    H177687   4.212   4.325  11.691 -0.2395 -0.1321  0.7881
18732TIP3    H277688   4.065   4.315  11.727 -0.3322  0.3527  0.5465
18733TIP3   OH277689   4.705   4.657   3.676  0.6332  0.1732  0.6187
18733TIP3    H177690   4.763   4.728   3.701  0.8638  0.4080 -0.5537
18733TIP3    H277691   4.618   4.696   3.673  0.7557  0.3987  0.0063
18734TIP3   OH277692   2.638   0.595  16.812  0.0643  0.0937 -0.2554
18734TIP3    H177693   2.560   0.597  16.867 -0.3433  0.2355 -0.8254
18734TIP3    H277694   2.690   0.669  16.841 -0.7223  0.9092 -0.8705
18735TIP3   OH277695   0.334   5.281  12.640  0.4105 -0.0519 -0.2326
18735TIP3    H177696   0.258   5.248  12.687  0.9817 -2.0750 -0.6508
18735TIP3    H277697   0.312   5.269  12.548  1.0987 -0.3363 -0.3633
18736TIP3   OH277698   0.930   2.665   3.461  0.2608 -0.1220  0.2121
18736TIP3    H177699   0.928   2.747   3.412  0.5893 -0.0223  0.3666
18736TIP3    H277700   0.853   2.670   3.518 -0.0014 -0.1433 -0.1329
18737TIP3   OH277701   5.188   0.700  13.688 -0.3846  0.5068  0.1881
18737TIP3    H177702   5.155   0.735  13.771  1.9984 -0.5488  1.7261
18737TIP3    H277703   5.233   0.619  13.714 -0.8183 -0.6576 -2.3973
18738TIP3   OH277704   1.554   6.755  13.329  0.2504  0.4786 -0.2958
18738TIP3    H177705   1.502   6.829  13.361  0.9290  0.6432  0.4724
18738TIP3    H277706   1.575   6.776  13.239 -0.1758  0.8802 -0.2998
18739TIP3   OH277707   0.575   2.811   2.916 -0.2221 -0.1961 -0.1179
18739TIP3    H177708   0.666   2.783   2.905 -0.2909  0.2710 -2.5593
18739TIP3    H277709   0.547   2.774   2.999  2.2978 -0.0533  0.8594
18740TIP3   OH277710   5.242   1.645  11.297 -0.2035  0.3226 -0.1144
18740TIP3    H177711   5.275   1.701  11.367 -0.3851 -1.9356  1.8786
18740TIP3    H277712   5.147   1.646  11.307 -0.2278 -0.0606 -0.2746
18741TIP3   OH277713   5.938   6.718   4.647  0.0908  0.0683  0.1456
18741TIP3    H177714   5.917   6.812   4.646 -0.3657  0.1324  3.6162
18741TIP3    H277715   6.033   6.714   4.644  0.0891  0.4959 -1.6647
18742TIP3   OH277716   4.656   2.296   2.943 -0.1856 -0.1574 -0.3362
18742TIP3    H177717   4.728   2.342   2.901 -1.2344  1.4567 -0.4372
18742TIP3    H277718   4.675   2.303   3.037 -1.1329  1.9567 -0.2510
18743TIP3   OH277719   4.361   0.909  13.784 -0.4619 -0.5833 -0.1278
18743TIP3    H177720   4.378   0.905  13.690  0.8360  2.3124 -0.1039
18743TIP3    H277721   4.340   1.000  13.802  1.3637 -0.5651  2.6912
18744TIP3   OH277722   2.180   3.778  10.939 -0.5738  0.0750  0.8765
18744TIP3    H177723   2.275   3.792  10.939 -0.5331  0.5454 -2.4260
18744TIP3    H277724   2.170   3.685  10.917 -0.8077  0.4085 -0.5533
18745TIP3   OH277725   2.568   0.636   4.004  0.1106  0.2122  0.0946
18745TIP3    H177726   2.520   0.599   4.078  0.7742 -0.5000  0.1834
18745TIP3    H277727   2.521   0.605   3.927 -0.1073  0.2846  0.1975
18746TIP3   OH277728   2.495   1.699   0.380  0.0170 -0.0455  0.1926
18746TIP3    H177729   2.520   1.710   0.472  0.3434  0.3356  0.0620
18746TIP3    H277730   2.467   1.608   0.374 -1.0201  0.2046  0.9039
18747TIP3   OH277731   3.639   3.627  11.298 -0.2108  0.2130 -0.4969
18747TIP3    H177732   3.565   3.675  11.335 -0.7771 -0.0533 -1.2658
18747TIP3    H277733   3.705   3.627  11.368 -0.9282  0.4559  0.1951
18748TIP3   OH277734   1.425   4.333   3.826  0.5923  0.1644 -0.0474
18748TIP3    H177735   1.425   4.280   3.747  0.2434 -0.9195  0.6629
18748TIP3    H277736   1.515   4.328   3.859  0.5801  0.0849 -0.0265
18749TIP3   OH277737   4.306   1.019   5.761 -0.0534 -0.2973 -0.4595
18749TIP3    H177738   4.278   1.014   5.670  1.3894  3.3798 -1.2650
18749TIP3    H277739   4.236   1.066   5.806  0.0537 -0.5280 -0.0434
18750TIP3   OH277740   1.162   3.395   2.355  0.2228  0.5429 -0.1354
18750TIP3    H177741   1.222   3.424   2.423 -0.3764  0.7625  0.2990
18750TIP3    H277742   1.130   3.310   2.386  0.9032  0.0479 -0.7423
18751TIP3   OH277743   0.505   1.076   5.247  0.1795 -0.0273 -0.3949
18751TIP3    H177744   0.472   1.137   5.181  0.7509  0.0776 -0.5924
18751TIP3    H277745   0.497   1.123   5.330  0.9597  0.4746 -0.5878
18752TIP3   OH277746   0.644   6.133  12.564  0.1963 -0.0152  0.6958
18752TIP3    H177747   0.576   6.066  12.574 -0.1129  0.2497  0.4082
18752TIP3    H277748   0.681   6.116  12.478  0.6882 -0.3328  0.9703
18753TIP3   OH277749   3.643   5.682   3.304  0.1590  0.6416  0.4417
18753TIP3    H177750   3.696   5.735   3.245 -0.7290  1.8826  0.7368
18753TIP3    H277751   3.698   5.672   3.382  0.9709 -0.2632 -0.1998
18754TIP3   OH277752   1.164   6.482   2.624  0.4244  0.0646 -0.1749
18754TIP3    H177753   1.244   6.533   2.625 -0.0260  0.8140 -0.9344
18754TIP3    H277754   1.100   6.538   2.580 -0.5870 -0.4099  0.6297
18755TIP3   OH277755   0.902   2.988   3.329 -0.0909 -0.1657  0.1033
18755TIP3    H177756   0.967   2.966   3.262 -0.5735 -1.2090 -0.0478
18755TIP3    H277757   0.829   2.928   3.312 -1.8528  2.0785 -0.8224
18756TIP3   OH277758   3.964   4.256   5.156 -0.2792  0.2277  0.3025
18756TIP3    H177759   4.011   4.243   5.074 -1.3601 -2.8081  0.0293
18756TIP3    H277760   4.012   4.325   5.201  2.0895 -0.0509 -1.6057
18757TIP3   OH277761   2.088   6.709  15.879  0.2325 -0.3771  0.2887
18757TIP3    H177762   2.116   6.652  15.808  1.5604  0.2849  0.2491
18757TIP3    H277763   2.169   6.745  15.914 -0.4324 -0.3067  1.8286
18758TIP3   OH277764   5.524   6.696  12.963  0.4530 -0.5116 -0.2084
18758TIP3    H177765   5.579   6.761  13.006 -1.6422  0.5757  1.0331
18758TIP3    H277766   5.575   6.666  12.888  2.3230  1.0394  0.3713
18759TIP3   OH277767   1.776   0.597  16.806 -0.3307 -0.4557  0.0719
18759TIP3    H177768   1.710   0.634  16.747 -0.2622 -0.6175 -0.1071
18759TIP3    H277769   1.762   0.642  16.889  0.2234  0.5119 -0.3349
18760TIP3   OH277770   0.771   0.473   0.525  0.1202  1.0542  0.0731
18760TIP3    H177771   0.756   0.378   0.534 -0.5822  1.3159  2.0996
18760TIP3    H277772   0.861   0.485   0.554 -0.4814  1.2343  2.0044
18761TIP3   OH277773   0.896   6.087   1.946  0.0966  0.2502 -0.3027
18761TIP3    H177774   0.935   6.147   2.009 -3.5718  2.0767  0.5196
18761TIP3    H277775   0.802   6.108   1.948 -0.7830 -2.5787 -3.2465
18762TIP3   OH277776   5.630   0.417  13.116 -0.4586  0.0915  0.1101
18762TIP3    H177777   5.721   0.432  13.143 -1.0569 -0.9738  3.1748
18762TIP3    H277778   5.580   0.483  13.164 -1.3074  1.1710 -2.1440
18763TIP3   OH277779   0.496   0.624  15.860 -0.2260 -0.0590 -0.1107
18763TIP3    H177780   0.494   0.627  15.956  0.1674  4.1846 -0.0286
18763TIP3    H277781   0.407   0.598  15.835 -1.1352  1.2794  1.4997
18764TIP3   OH277782   1.404   4.536  10.978  0.8677  0.0718  0.4616
18764TIP3    H177783   1.456   4.519  10.900  0.0762 -0.3116  0.0036
18764TIP3    H277784   1.337   4.599  10.949  0.1167 -0.6343  0.6325
18765TIP3   OH277785   3.862   6.810  16.775  0.4910 -0.0665 -0.2215
18765TIP3    H177786   3.921   6.818  16.851  0.6665  0.6246 -0.4174
18765TIP3    H277787   3.886   6.884  16.719 -0.3040 -0.0023 -0.4887
18766TIP3   OH277788   6.814   1.556  14.707  0.6448 -0.2543  0.3349
18766TIP3    H177789   6.740   1.496  14.695 -0.2550  0.2285  2.9594
18766TIP3    H277790   6.871   1.513  14.770  0.5718  1.0848  1.3675
18767TIP3   OH277791   0.548   1.205   2.777  0.2423  0.3283 -0.5716
18767TIP3    H177792   0.460   1.182   2.747 -0.6009  1.0828  1.2203
18767TIP3    H277793   0.553   1.300   2.764 -0.2848  0.7539  1.8366
18768TIP3   OH277794   6.457   4.273  16.060  0.2355  0.0882  0.0285
18768TIP3    H177795   6.481   4.200  16.117 -0.7440 -0.2353  0.0450
18768TIP3    H277796   6.442   4.232  15.975  0.6755  0.4235 -0.2170
18769TIP3   OH277797   2.006   2.917   2.392 -0.6687  0.2392  0.4041
18769TIP3    H177798   1.947   2.891   2.463  0.6641  1.8145  2.1744
18769TIP3    H277799   2.080   2.857   2.400 -1.1647 -0.5686 -0.6859
18770TIP3   OH277800   1.615   5.202  13.857 -0.1157 -0.8995  0.1125
18770TIP3    H177801   1.665   5.124  13.882 -1.0453 -2.4449 -2.4408
18770TIP3    H277802   1.524   5.181  13.879 -0.3527 -0.4780 -0.4313
18771TIP3   OH277803   6.813   0.796  13.716 -0.0212  0.2958  0.4438
18771TIP3    H177804   6.837   0.802  13.624 -0.4479 -2.4204  0.0656
18771TIP3    H277805   6.720   0.821  13.719 -0.0376  0.2683  0.1166
18772TIP3   OH277806   6.496   4.473   0.255 -0.4396 -0.3715 -0.4791
18772TIP3    H177807   6.439   4.428   0.191  1.3966 -0.9614 -1.7769
18772TIP3    H277808   6.580   4.481   0.211  0.7297 -0.1742  1.6559
18773TIP3   OH277809   0.573   6.312   5.673  0.0262 -0.2121  0.0224
18773TIP3    H177810   0.533   6.399   5.667  1.1311  0.3137  0.0008
18773TIP3    H277811   0.555   6.284   5.763  0.7160  0.5870  0.4286
18774TIP3   OH277812   1.359   3.103  16.749  0.2377  0.4321  0.0436
18774TIP3    H177813   1.424   3.162  16.789  0.9621  0.4454 -1.1057
18774TIP3    H277814   1.322   3.155  16.677 -0.6475  0.2180  0.3419
18775TIP3   OH277815   5.597   1.971   1.088 -0.1920 -0.0807  0.5551
18775TIP3    H177816   5.568   2.049   1.134  0.6665 -0.6314  2.1037
18775TIP3    H277817   5.517   1.934   1.051 -0.9665  0.2442  1.8507
18776TIP3   OH277818   5.773   4.718   2.569  0.5163 -0.1545 -0.3368
18776TIP3    H177819   5.717   4.758   2.503 -0.5384  2.1074  1.7966
18776TIP3    H277820   5.855   4.767   2.564  0.8530 -0.7472 -0.7161
18777TIP3   OH277821   5.669   4.424   0.863 -0.3944 -0.4259  0.0127
18777TIP3    H177822   5.659   4.473   0.945 -1.2653 -2.5855  1.2826
18777TIP3    H277823   5.733   4.355   0.884 -0.2071 -0.6686 -1.2996
18778TIP3   OH277824   4.883   0.691   3.146  0.5226  0.4171 -0.7995
18778TIP3    H177825   4.796   0.652   3.153  1.2948 -1.2757  0.1055
18778TIP3    H277826   4.883   0.762   3.211  0.3101 -0.6195  0.3770
18779TIP3   OH277827   1.784   2.965  10.955  0.2873 -0.0063  0.1233
18779TIP3    H177828   1.855   2.938  11.014  0.5017  0.4743  0.0844
18779TIP3    H277829   1.803   3.056  10.934 -1.5538  0.8377  1.8663
18780TIP3   OH277830   1.621   6.242  14.508  0.2159 -0.1421  1.0753
18780TIP3    H177831   1.715   6.229  14.521  0.3394 -0.7903 -0.2631
18780TIP3    H277832   1.592   6.286  14.587  1.5757 -0.2877  1.6917
18781TIP3   OH277833   4.017   3.540   2.067 -0.2545  0.3235 -0.2591
18781TIP3    H177834   4.040   3.525   2.159  0.7833 -0.8404 -0.6734
18781TIP3    H277835   3.926   3.568   2.069  0.1050  1.4992  1.2052
18782TIP3   OH277836   2.702   0.456   5.377  0.4716 -0.4100 -0.0278
18782TIP3    H177837   2.755   0.447   5.456  1.5082  0.4066 -0.6019
18782TIP3    H277838   2.742   0.528   5.329 -0.1715 -0.8429 -1.2742
18783TIP3   OH277839   5.751   6.482  10.997 -0.1864 -0.3177  0.2001
18783TIP3    H177840   5.820   6.422  10.970 -0.4201 -0.9626  1.0178
18783TIP3    H277841   5.670   6.432  10.988 -0.4140 -0.0292  0.6020
18784TIP3   OH277842   0.679   5.934  16.037 -0.0778  0.4180 -0.1577
18784TIP3    H177843   0.696   5.859  16.094 -0.1829  0.9161  0.5492
18784TIP3    H277844   0.744   5.927  15.967  0.4197  0.1049  0.3342
18785TIP3   OH277845   1.100   1.776  10.541  0.2375 -0.5592 -0.6442
18785TIP3    H177846   1.181   1.827  10.547 -1.2156  1.7543  3.5940
18785TIP3    H277847   1.032   1.841  10.524 -1.2233 -1.6828  0.5834
18786TIP3   OH277848   2.977   4.076  17.146 -0.6712  0.4624 -0.9259
18786TIP3    H177849   3.000   4.038  17.060  0.2698  0.9262 -0.8967
18786TIP3    H277850   3.039   4.036  17.207 -1.0189  0.5003 -0.5464
18787TIP3   OH277851   0.819   0.820  16.004  0.8348 -0.2946  0.0166
18787TIP3    H177852   0.822   0.854  16.093 -1.5889 -2.2612  0.9498
18787TIP3    H277853   0.866   0.736  16.009  3.0786  0.8052 -1.2674
18788TIP3   OH277854   4.270   4.302  12.809 -0.3526 -0.1595  0.4512
18788TIP3    H177855   4.325   4.272  12.881  2.5168 -0.5927 -1.7420
18788TIP3    H277856   4.232   4.222  12.772 -0.8182 -0.0634  0.7180
18789TIP3   OH277857   4.101   1.215   3.870 -0.8910  0.1888 -0.5198
18789TIP3    H177858   4.083   1.121   3.863  2.5060 -0.7920  1.4142
18789TIP3    H277859   4.195   1.222   3.853 -0.8332  3.0745  0.5644
18790TIP3   OH277860   2.945   2.481   6.482  0.6418  0.6085  0.1153
18790TIP3    H177861   2.971   2.393   6.458  0.1647  0.3266  0.6047
18790TIP3    H277862   2.850   2.480   6.479  0.4681  0.2380  2.9261
18791TIP3   OH277863   4.321   6.328   1.225  0.4448 -0.1929 -0.5229
18791TIP3    H177864   4.333   6.356   1.134  1.4713  0.5403 -0.1769
18791TIP3    H277865   4.407   6.337   1.265  0.2577 -1.5683  0.2519
18792TIP3   OH277866   5.516   2.863   6.482 -0.3938  0.3942 -0.5636
18792TIP3    H177867   5.577   2.792   6.459  0.7538  1.0534  0.3571
18792TIP3    H277868   5.493   2.846   6.573 -0.3792  1.0215 -0.4428
18793TIP3   OH277869   5.957   0.118  10.915  0.1861 -0.0363 -0.1651
18793TIP3    H177870   5.904   0.166  10.852 -1.1574 -0.5175  0.5516
18793TIP3    H277871   5.966   0.177  10.989 -0.4089 -0.3971  0.2077
18794TIP3   OH277872   5.189   6.465   3.596  0.0290  0.2245  0.5943
18794TIP3    H177873   5.198   6.551   3.637  0.7505 -0.0981  1.1445
18794TIP3    H277874   5.166   6.484   3.505 -1.2245  0.9606  1.0372
18795TIP3   OH277875   5.837   4.476  14.795  0.2770  0.0310 -0.2764
18795TIP3    H177876   5.744   4.495  14.787 -0.0780 -1.4527 -0.0320
18795TIP3    H277877   5.854   4.411  14.726  1.8494  2.4638 -2.3857
18796TIP3   OH277878   1.937   0.232  12.675 -0.1074  0.0414 -0.4188
18796TIP3    H177879   1.921   0.237  12.769 -1.0912  0.3607 -0.5907
18796TIP3    H277880   1.905   0.145  12.650 -0.7107  0.3109 -0.6045
18797TIP3   OH277881   2.861   0.583   3.366  0.1815  0.2888 -0.2040
18797TIP3    H177882   2.890   0.506   3.414 -0.7067  0.5836  0.8390
18797TIP3    H277883   2.838   0.647   3.434 -0.8562  0.8069 -1.0113
18798TIP3   OH277884   5.697   6.578  17.214 -0.6305  0.5247 -0.4845
18798TIP3    H177885   5.782   6.599  17.253 -1.2084  0.3484  0.9180
18798TIP3    H277886   5.689   6.637  17.139  1.5281 -0.7049 -1.8115
18799TIP3   OH277887   6.785   1.442  14.383 -0.3695 -0.0529 -0.2934
18799TIP3    H177888   6.813   1.351  14.386 -0.5680 -0.1238 -0.5442
18799TIP3    H277889   6.692   1.439  14.406 -0.2439  0.1486  0.2583
18800TIP3   OH277890   4.240   4.894  15.081 -0.2374 -0.3289 -0.4739
18800TIP3    H177891   4.318   4.909  15.134  0.6895 -5.1350  0.0234
18800TIP3    H277892   4.174   4.953  15.117  1.9563  0.8348  1.9886
18801TIP3   OH277893   5.427   0.060   5.273 -0.0609  0.6242 -0.3362
18801TIP3    H177894   5.509   0.012   5.272  0.1379  0.8997  0.9584
18801TIP3    H277895   5.446   0.139   5.222  0.0379  0.0292 -1.2437
18802TIP3   OH277896   5.223   0.179  13.016  0.9589 -0.3180  0.6347
18802TIP3    H177897   5.179   0.216  13.093  0.3464 -1.2407  0.7417
18802TIP3    H277898   5.168   0.206  12.942  0.6646 -0.7665  0.6861
18803TIP3   OH277899   5.432   1.567   4.890 -0.3919  0.0850 -0.6739
18803TIP3    H177900   5.426   1.562   4.985  2.6810  0.7432 -0.3369
18803TIP3    H277901   5.371   1.501   4.858 -0.8905 -0.7204  1.7649
18804TIP3   OH277902   2.804   3.926  12.819  0.0456 -0.5854  0.2831
18804TIP3    H177903   2.888   3.958  12.852 -0.2204  1.7104 -1.0581
18804TIP3    H277904   2.822   3.902  12.728 -0.9896  1.2162 -0.4345
18805TIP3   OH277905   1.167   6.178   5.166  0.7851 -0.4686  0.3751
18805TIP3    H177906   1.214   6.261   5.175  0.1036 -0.1064  0.6786
18805TIP3    H277907   1.171   6.138   5.253  2.0787 -1.3045 -0.0341
18806TIP3   OH277908   3.674   1.708   0.088 -0.3320 -0.4077  0.2370
18806TIP3    H177909   3.619   1.639   0.126 -0.7420 -0.3010 -0.1590
18806TIP3    H277910   3.740   1.725   0.155 -1.9363  0.8491  1.5995
18807TIP3   OH277911   5.516   2.490  10.822 -0.1433  0.1939 -0.1577
18807TIP3    H177912   5.582   2.469  10.755 -1.4348  0.0348 -1.4179
18807TIP3    H277913   5.456   2.551  10.779  0.2301  1.9192  1.5924
18808TIP3   OH277914   2.105   3.776  14.697  0.3734  0.2004  0.3160
18808TIP3    H177915   2.127   3.691  14.660  0.3572  0.1588  0.4017
18808TIP3    H277916   2.163   3.838  14.653  1.1771 -0.0042  1.0605
18809TIP3   OH277917   5.315   2.800   5.631 -0.2649 -0.8106  0.1283
18809TIP3    H177918   5.375   2.769   5.563  1.1629 -1.5111  1.6248
18809TIP3    H277919   5.246   2.734   5.635  0.1471 -1.2504  0.0042
18810TIP3   OH277920   2.267   0.399  12.795 -0.2646 -0.1356 -0.4514
18810TIP3    H177921   2.326   0.452  12.848  0.4360 -0.4807 -0.8701
18810TIP3    H277922   2.215   0.349  12.858  0.4592 -0.4336 -0.0791
18811TIP3   OH277923   3.550   0.155  11.358 -0.3846  0.1436 -0.7773
18811TIP3    H177924   3.454   0.147  11.362 -0.2383 -1.4306  1.3136
18811TIP3    H277925   3.572   0.119  11.272 -1.6645  0.8832 -1.4580
18812TIP3   OH277926   4.045   4.399   0.336  0.3352 -0.2293  0.7047
18812TIP3    H177927   4.013   4.309   0.329  0.0437 -0.2065  1.5644
18812TIP3    H277928   3.966   4.452   0.334  0.5312  0.0500 -0.2186
18813TIP3   OH277929   1.516   4.759  12.687  0.1155  0.3158  0.1034
18813TIP3    H177930   1.481   4.713  12.764  3.2059  0.5962  1.8595
18813TIP3    H277931   1.589   4.704  12.658  1.1820  1.9374 -0.4371
18814TIP3   OH277932   0.877   4.704  13.201  0.4650  0.1795  0.6311
18814TIP3    H177933   0.911   4.709  13.290  1.9993  1.5645  0.0237
18814TIP3    H277934   0.953   4.720  13.145 -0.5396 -0.2412 -0.9302
18815TIP3   OH277935   0.450   5.212   5.648  0.3514  0.2744  0.1390
18815TIP3    H177936   0.489   5.126   5.665  1.0823  0.5438 -0.1366
18815TIP3    H277937   0.498   5.245   5.573 -1.2232  0.1036 -1.0081
18816TIP3   OH277938   4.780   4.486  15.063 -0.6460 -0.6848  0.0166
18816TIP3    H177939   4.765   4.501  15.157 -1.2433 -1.0216 -0.0192
18816TIP3    H277940   4.735   4.559  15.020 -0.3868 -0.5403 -0.0059
18817TIP3   OH277941   4.813   1.111   5.682  0.2494 -0.4188 -0.1299
18817TIP3    H177942   4.890   1.159   5.652  1.0396 -1.4403  0.1961
18817TIP3    H277943   4.738   1.162   5.650  1.0583  0.3323 -0.8593
18818TIP3   OH277944   2.676   5.912  14.277  0.0213 -0.0309  0.1087
18818TIP3    H177945   2.715   5.959  14.203  0.8015 -1.1896 -0.2435
18818TIP3    H277946   2.677   5.820  14.251 -1.7963 -0.2525  0.6332
18819TIP3   OH277947   3.912   6.638  13.797 -0.1308  0.7535  0.0945
18819TIP3    H177948   3.862   6.687  13.731 -0.4218 -1.4773 -1.4562
18819TIP3    H277949   3.854   6.634  13.873 -2.1786 -1.1916 -1.4326
18820TIP3   OH277950   5.105   5.637   4.504  0.1638  0.5869 -0.1950
18820TIP3    H177951   5.045   5.709   4.524 -0.1753 -0.1540  1.5494
18820TIP3    H277952   5.049   5.570   4.465  0.1846  0.5900 -0.2301
18821TIP3   OH277953   1.901   6.592   5.961 -0.0309 -1.0174  0.2159
18821TIP3    H177954   1.971   6.544   6.006  1.8151  0.9178 -0.4376
18821TIP3    H277955   1.915   6.683   5.985 -1.0628 -0.3269 -1.5978
18822TIP3   OH277956   0.295   2.283  15.033 -0.2245 -0.5858 -0.0459
18822TIP3    H177957   0.272   2.369  15.069 -0.5961 -0.5161 -0.4279
18822TIP3    H277958   0.351   2.243  15.099 -0.4679 -0.2565  0.3683
18823TIP3   OH277959   5.693   3.723  16.114 -0.1337 -0.0878 -0.1063
18823TIP3    H177960   5.779   3.721  16.156 -0.7251 -0.4085  1.1136
18823TIP3    H277961   5.631   3.731  16.186 -1.0255  4.6744 -1.0401
18824TIP3   OH277962   5.659   1.817   0.690  0.0029 -0.0914  0.1341
18824TIP3    H177963   5.744   1.808   0.648 -0.2829  1.5608 -0.8978
18824TIP3    H277964   5.614   1.885   0.639 -2.0429 -1.1130  0.4811
18825TIP3   OH277965   1.549   0.048  15.897 -0.0546  0.2528  0.3526
18825TIP3    H177966   1.580   0.134  15.868  1.4224  0.2686  1.8291
18825TIP3    H277967   1.611  -0.014  15.859  0.4766  0.0894  1.4259
18826TIP3   OH277968   4.042   5.980  16.366  0.1819 -0.2921 -0.3866
18826TIP3    H177969   4.137   5.986  16.379 -0.1679  1.4796  2.0594
18826TIP3    H277970   4.021   6.055  16.310  0.0742  0.3429  0.4741
18827TIP3   OH277971   0.127   5.799  14.965 -0.6526  0.5776 -0.1419
18827TIP3    H177972   0.178   5.733  14.919 -1.5894 -0.6786  0.5671
18827TIP3    H277973   0.138   5.778  15.058 -1.6084  0.9100  0.0612
18828TIP3   OH277974   6.817   1.151  16.753 -0.3451 -0.3404  0.3065
18828TIP3    H177975   6.729   1.156  16.717 -0.1588 -1.2734 -0.3092
18828TIP3    H277976   6.865   1.093  16.694  0.7488  0.3035  0.5182
18829TIP3   OH277977   1.865   2.234  10.729 -0.0517 -0.3413 -0.7237
18829TIP3    H177978   1.884   2.276  10.813  0.0456  0.3493 -1.0925
18829TIP3    H277979   1.892   2.297  10.663  0.6030 -1.1917 -1.2942
18830TIP3   OH277980   3.424   5.055  15.112 -0.0444  0.3260 -0.3557
18830TIP3    H177981   3.502   5.037  15.164 -0.7681  2.2860  1.5786
18830TIP3    H277982   3.457   5.090  15.029  1.1814  1.4665  0.5719
18831TIP3   OH277983   5.683   2.906  11.241  0.1609 -0.5178  0.3349
18831TIP3    H177984   5.630   2.867  11.171  1.1684  0.3437 -0.9505
18831TIP3    H277985   5.653   2.996  11.246  1.1949 -0.1337 -0.1258
18832TIP3   OH277986   0.034   4.360  16.202  0.2908  0.0163  0.1387
18832TIP3    H177987  -0.017   4.284  16.175  0.7690 -0.3146  0.1680
18832TIP3    H277988   0.124   4.339  16.177  0.4121  0.6036  0.0749
18833TIP3   OH277989   1.178   1.763  16.543 -0.1937 -0.0114  0.5050
18833TIP3    H177990   1.253   1.731  16.594 -1.1155  0.0472  1.9356
18833TIP3    H277991   1.179   1.710  16.463 -1.0091 -2.8860  2.2746
18834TIP3   OH277992   6.603   4.070  14.157 -1.2635  0.3218 -0.2534
18834TIP3    H177993   6.523   4.111  14.124 -1.7428 -0.4488 -0.0958
18834TIP3    H277994   6.590   3.976  14.141 -0.1846  0.2223 -0.6441
18835TIP3   OH277995   1.126   6.529  14.044  0.3156  0.3751  0.2772
18835TIP3    H177996   1.114   6.441  14.079  0.6967  0.3855  0.4459
18835TIP3    H277997   1.201   6.521  13.985  0.4991  0.6317  0.4700
18836TIP3   OH277998   5.732   0.814  15.140  0.0781  0.4222 -0.5566
18836TIP3    H177999   5.820   0.803  15.174  0.5440  1.8442 -1.2540
18836TIP3    H278000   5.688   0.731  15.161  0.5340  0.8670  2.7574
18837TIP3   OH278001   2.322   2.239  14.376  0.2094 -0.0740 -0.8772
18837TIP3    H178002   2.240   2.278  14.346  0.1395  0.5665  0.0803
18837TIP3    H278003   2.371   2.312  14.413  1.4114 -0.3702 -1.8119
18838TIP3   OH278004   1.365   3.158   2.655 -0.8127  0.6944  0.3957
18838TIP3    H178005   1.284   3.159   2.604 -1.8298 -0.8888  1.8738
18838TIP3    H278006   1.382   3.066   2.670  2.1323  0.9005 -1.1010
18839TIP3   OH278007   0.843   2.239   1.973  0.7586  0.3918  0.0643
18839TIP3    H178008   0.927   2.250   1.927  0.0869 -0.1155 -1.3415
18839TIP3    H278009   0.778   2.273   1.912 -0.1456  0.0297  0.8061
18840TIP3   OH278010   4.106   4.187   5.463  0.3397  0.0968 -0.2838
18840TIP3    H178011   4.118   4.245   5.388 -1.7119 -0.0142 -0.7551
18840TIP3    H278012   4.191   4.189   5.509  0.9910  1.7501 -1.4624
18841TIP3   OH278013   3.002   5.610   0.760  0.3720 -0.1186  0.0113
18841TIP3    H178014   2.928   5.552   0.779 -0.8840  1.4302  0.1007
18841TIP3    H278015   2.986   5.641   0.671  0.4204  0.8868  0.3333
18842TIP3   OH278016   2.366   5.340   2.524 -0.2574 -0.2276 -0.1045
18842TIP3    H178017   2.421   5.362   2.599  0.6836 -1.4258 -0.4069
18842TIP3    H278018   2.347   5.247   2.535  0.4619 -0.5923 -1.6845
18843TIP3   OH278019   2.734   3.708  11.007  0.3621 -0.6079  0.3973
18843TIP3    H178020   2.796   3.774  10.976  0.7237 -0.4316  1.4364
18843TIP3    H278021   2.789   3.632  11.027  0.1921 -0.6060  0.8970
18844TIP3   OH278022   2.514   5.650  16.843  0.9169 -0.0950 -0.3319
18844TIP3    H178023   2.501   5.700  16.924 -0.7624 -0.5457 -0.2898
18844TIP3    H278024   2.454   5.576  16.850  3.4352 -2.2865 -0.3355
18845TIP3   OH278025   2.024   0.606  12.792 -0.2588 -0.5808  0.3633
18845TIP3    H178026   2.056   0.548  12.723  1.3520  1.8512 -1.0555
18845TIP3    H278027   2.057   0.693  12.769 -2.8097  1.0332  2.2088
18846TIP3   OH278028   3.003   0.356   0.573 -0.4522  0.3255  0.2603
18846TIP3    H178029   2.933   0.363   0.508 -0.5771 -0.9455  0.2378
18846TIP3    H278030   2.969   0.405   0.649 -0.4834  1.4528 -0.4502
18847TIP3   OH278031   3.446   3.051   3.523 -0.2213 -0.0311 -0.6607
18847TIP3    H178032   3.427   3.088   3.437  2.5015  0.8617 -0.9927
18847TIP3    H278033   3.529   3.005   3.512 -1.0544 -2.1042  0.9479
18848TIP3   OH278034   0.420   6.378   0.884  0.1537  0.3158  0.4058
18848TIP3    H178035   0.405   6.362   0.977  0.0041 -0.5980  0.2391
18848TIP3    H278036   0.371   6.457   0.864 -1.5550 -0.6331  0.6533
18849TIP3   OH278037   0.693   3.159   0.149 -0.1818 -0.1494  0.4019
18849TIP3    H178038   0.635   3.185   0.221  0.9709  0.2543  1.2125
18849TIP3    H278039   0.684   3.230   0.084 -1.9416 -0.9690 -0.3319
18850TIP3   OH278040   1.388   5.743   1.541 -0.4271 -0.0330 -0.4388
18850TIP3    H178041   1.484   5.747   1.548 -0.3756  1.1527 -1.4168
18850TIP3    H278042   1.361   5.834   1.531 -1.4923 -0.4836 -2.0647
18851TIP3   OH278043   2.696   0.946   1.384  0.4827 -0.0624 -0.2678
18851TIP3    H178044   2.735   1.031   1.364  0.4635 -0.5197 -2.4299
18851TIP3    H278045   2.769   0.884   1.379  0.3048 -0.3160  0.2318
18852TIP3   OH278046   4.490   3.110   0.111 -0.3002 -0.5538 -0.3232
18852TIP3    H178047   4.512   3.037   0.054 -0.3423 -1.2448  0.5286
18852TIP3    H278048   4.433   3.166   0.057  0.1484 -0.8772 -1.1473
18853TIP3   OH278049   6.823   3.090   3.221  0.6010  0.4184 -0.3176
18853TIP3    H178050   6.781   3.106   3.305  0.5452 -1.8514  0.1697
18853TIP3    H278051   6.779   3.148   3.160 -1.6787 -0.2451  0.6176
18854TIP3   OH278052   1.859   2.780   6.051  0.4911 -0.0766  0.0751
18854TIP3    H178053   1.773   2.813   6.075  0.9582  1.2151  0.0126
18854TIP3    H278054   1.871   2.703   6.107  0.3794  1.2226  1.9799
18855TIP3   OH278055   1.299   3.043   0.242 -0.3144  0.1726 -0.6287
18855TIP3    H178056   1.281   2.952   0.264  0.3464 -0.1147 -1.2027
18855TIP3    H278057   1.228   3.093   0.282 -0.8202 -0.6205 -0.5209
18856TIP3   OH278058   2.278   6.189   1.468 -0.4415  0.7765 -0.0983
18856TIP3    H178059   2.293   6.099   1.441 -1.1373  1.1880 -2.0071
18856TIP3    H278060   2.366   6.227   1.477 -0.1600  0.0591  0.2744
18857TIP3   OH278061   1.585   2.452  10.615 -0.4909 -0.0603  0.1205
18857TIP3    H178062   1.561   2.390  10.685 -1.4564 -0.5046 -0.5920
18857TIP3    H278063   1.515   2.517  10.616 -0.9016 -0.4774 -0.9170
18858TIP3   OH278064   0.475   1.524   2.056 -0.3916  0.3453 -0.4421
18858TIP3    H178065   0.545   1.545   2.117 -0.6180  1.1155 -0.4426
18858TIP3    H278066   0.419   1.601   2.054 -1.2020 -0.2234 -0.5113
18859TIP3   OH278067   4.221   0.603  13.768 -0.5725  0.2257  0.7041
18859TIP3    H178068   4.171   0.654  13.831 -0.0950 -1.7935  2.8613
18859TIP3    H278069   4.174   0.520  13.761  0.7185 -0.4975  0.2538
18860TIP3   OH278070   3.083   5.484  15.212  0.0916  0.0322 -0.0785
18860TIP3    H178071   3.117   5.452  15.295  1.3795  0.2631 -0.5054
18860TIP3    H278072   3.000   5.437  15.200  0.1195 -0.3327  1.1058
18861TIP3   OH278073   1.377   3.464  16.387  0.6008  0.0754  0.4580
18861TIP3    H178074   1.471   3.474  16.401  0.5516 -0.8245  1.5484
18861TIP3    H278075   1.337   3.527  16.447  0.4721 -1.5877  2.2310
18862TIP3   OH278076   5.115   0.996  15.422  0.0450 -0.2143 -0.1362
18862TIP3    H178077   5.106   1.056  15.496 -2.1527  0.1108 -0.6054
18862TIP3    H278078   5.161   1.047  15.355  0.1131  0.2177  0.2380
18863TIP3   OH278079   0.696   1.971  16.704  0.3618 -0.8808  0.0327
18863TIP3    H178080   0.660   1.979  16.792  0.1182 -2.0144  0.0501
18863TIP3    H278081   0.621   1.987  16.646  0.6430  0.4453  0.0002
18864TIP3   OH278082   5.062   1.527  13.124 -0.9196 -0.2741  0.1643
18864TIP3    H178083   5.014   1.452  13.090 -0.6022 -0.0397 -0.8265
18864TIP3    H278084   4.994   1.592  13.146 -1.0817  0.0288 -1.1550
18865TIP3   OH278085   5.645   3.808  14.026  0.1669 -0.0907 -0.9311
18865TIP3    H178086   5.626   3.726  14.072  3.4982 -1.0035 -0.9119
18865TIP3    H278087   5.695   3.781  13.949 -0.4727  1.8327 -2.0985
18866TIP3   OH278088   6.489   5.063  12.561 -0.1019  0.0796 -0.3908
18866TIP3    H178089   6.548   5.128  12.600  2.2088 -2.2155  0.2161
18866TIP3    H278090   6.475   5.094  12.472  0.0306  1.9545  0.1990
18867TIP3   OH278091   1.751   4.612  11.200 -0.1239  0.6243  0.5669
18867TIP3    H178092   1.776   4.616  11.292 -1.1840  0.0453  0.9002
18867TIP3    H278093   1.754   4.702  11.170  0.8989  0.7415  0.9725
18868TIP3   OH278094   0.458   1.096   1.053  0.4294  0.6950 -0.2629
18868TIP3    H178095   0.429   1.016   1.008 -0.9855  1.2962 -0.4654
18868TIP3    H278096   0.535   1.068   1.103 -1.9610 -1.6787  2.4108
18869TIP3   OH278097   5.173   1.690   4.571  0.0115  0.0601 -0.2042
18869TIP3    H178098   5.080   1.688   4.594 -0.4476  0.5700 -1.9037
18869TIP3    H278099   5.195   1.783   4.569  0.8572 -0.0785  1.1893
18870TIP3   OH278100   4.907   0.911  14.093  1.0176  0.2922 -0.4334
18870TIP3    H178101   4.938   0.874  14.176  0.2557 -2.3321 -1.2132
18870TIP3    H278102   4.822   0.870  14.079 -0.1071  2.7316 -1.2680
18871TIP3   OH278103   6.685   2.549   2.710 -0.5185  0.0696  0.3952
18871TIP3    H178104   6.628   2.620   2.740 -0.8730  0.4741 -1.1510
18871TIP3    H278105   6.653   2.527   2.622  0.5086 -1.0139  0.2535
18872TIP3   OH278106   4.650   6.455  17.127  0.2275  0.4894  0.3296
18872TIP3    H178107   4.567   6.495  17.102  0.0821  0.1740  0.2940
18872TIP3    H278108   4.706   6.463  17.050  0.3393  0.9816  0.4577
18873TIP3   OH278109   2.242   4.805   5.619 -0.0761  0.2395 -0.6938
18873TIP3    H178110   2.309   4.860   5.660 -0.4986  1.2371 -1.3051
18873TIP3    H278111   2.160   4.849   5.640 -0.4251 -0.1643 -1.2025
18874TIP3   OH278112   0.903   4.262  15.790  0.2785  0.3106 -0.5526
18874TIP3    H178113   0.817   4.302  15.787  0.0930 -0.0699 -0.4470
18874TIP3    H278114   0.950   4.310  15.858 -0.4049 -0.5288  0.5488
18875TIP3   OH278115   1.926   6.288   4.009 -0.4509  0.1628  0.4097
18875TIP3    H178116   1.957   6.205   3.974  1.4207  0.7809  0.4683
18875TIP3    H278117   1.867   6.264   4.081  0.1677 -1.0956  0.5228
18876TIP3   OH278118   4.281   3.448   3.364 -0.2793  0.2516 -0.0897
18876TIP3    H178119   4.322   3.362   3.354 -0.9824 -0.2661  1.2242
18876TIP3    H278120   4.195   3.430   3.401 -1.7366  1.3364 -2.6729
18877TIP3   OH278121   4.611   1.706  16.343  0.2546  0.0899  0.0053
18877TIP3    H178122   4.555   1.713  16.265  0.3853  0.4082 -0.0594
18877TIP3    H278123   4.672   1.779  16.336  0.4064 -0.0066  0.2971
18878TIP3   OH278124   2.405   1.517  12.131 -0.5097 -0.4595  0.1067
18878TIP3    H178125   2.459   1.587  12.094 -0.2169 -0.8418 -0.1972
18878TIP3    H278126   2.421   1.522  12.225 -0.7599  0.1037  0.1262
18879TIP3   OH278127   0.528   0.573  17.126  0.5114 -0.0529  0.3771
18879TIP3    H178128   0.594   0.612  17.068  2.1267 -0.2894  1.9766
18879TIP3    H278129   0.462   0.642  17.136  2.3961  1.6942  1.6854
18880TIP3   OH278130   5.844   0.211   3.220  0.8417  0.3315  0.9192
18880TIP3    H178131   5.893   0.287   3.252  4.1171 -0.5048 -1.6463
18880TIP3    H278132   5.904   0.137   3.232 -1.0699 -1.3676  0.5071
18881TIP3   OH278133   6.487   4.383  13.032  0.5601  0.1778  0.0181
18881TIP3    H178134   6.461   4.318  12.967 -0.9880  0.7046  0.0755
18881TIP3    H278135   6.549   4.440  12.987  0.7795 -0.4420 -0.4772
18882TIP3   OH278136   2.423   3.085   0.110  0.0658  0.0107  0.1133
18882TIP3    H178137   2.330   3.088   0.087 -0.0238  0.9169  0.5843
18882TIP3    H278138   2.447   2.993   0.098 -0.7068 -0.1000 -0.7159
18883TIP3   OH278139   2.408   6.184   0.347 -0.0554  0.0008 -0.0833
18883TIP3    H178140   2.362   6.107   0.314 -0.6561 -0.7346  2.2961
18883TIP3    H278141   2.370   6.200   0.433  2.0388  1.2338  0.6904
18884TIP3   OH278142   0.722   3.756  11.464  0.8898 -0.1934  0.1515
18884TIP3    H178143   0.793   3.802  11.420  0.7247 -0.6254 -0.5793
18884TIP3    H278144   0.666   3.724  11.394  1.4691 -2.2878  0.5589
18885TIP3   OH278145   1.040   4.097  14.462  0.1310 -0.7979 -0.2548
18885TIP3    H178146   1.113   4.037  14.445 -0.5791 -1.3631 -1.4096
18885TIP3    H278147   1.075   4.159  14.526  1.3835 -1.5124 -0.2134
18886TIP3   OH278148   5.829   1.608  14.196  0.3782 -0.1063 -0.5926
18886TIP3    H178149   5.849   1.514  14.196  1.8829  0.1809 -1.3884
18886TIP3    H278150   5.853   1.638  14.284 -1.2878 -0.6556  0.0971
18887TIP3   OH278151   3.021   2.239  14.795  0.2299 -0.1102 -0.1194
18887TIP3    H178152   2.967   2.161  14.801 -0.1075  0.2286  2.1956
18887TIP3    H278153   2.969   2.308  14.838  1.0955  1.0552 -0.8680
18888TIP3   OH278154   1.017   2.602  16.163 -0.0866 -0.5401 -0.2374
18888TIP3    H178155   1.083   2.671  16.164 -2.0741  1.4700  0.5436
18888TIP3    H278156   0.969   2.616  16.081 -0.5095 -1.0384 -0.0817
18889TIP3   OH278157   0.977   5.661   0.246  0.2617 -0.1199  0.1140
18889TIP3    H178158   0.985   5.629   0.335  0.7334  2.0223  0.8998
18889TIP3    H278159   1.024   5.597   0.193  0.5053 -1.0998  1.4731
18890TIP3   OH278160   4.889   0.386  12.669  0.1651 -0.1160  0.2070
18890TIP3    H178161   4.956   0.364  12.733 -0.5248  0.2535  1.0808
18890TIP3    H278162   4.807   0.379  12.717 -0.2512  1.9211 -0.1235
18891TIP3   OH278163   1.787   0.761  11.672 -0.0992  0.3026 -0.2663
18891TIP3    H178164   1.787   0.683  11.617  1.4310  0.9312 -1.2245
18891TIP3    H278165   1.866   0.753  11.725 -0.1565  1.0041 -0.0630
18892TIP3   OH278166   3.343   0.054   2.961 -0.9678 -0.4186  0.2838
18892TIP3    H178167   3.347  -0.041   2.957  0.4653 -0.3428 -0.4968
18892TIP3    H278168   3.286   0.072   3.036  0.3170 -1.8819  1.6846
18893TIP3   OH278169   3.282   2.207  13.088  0.2154 -0.5851 -0.3734
18893TIP3    H178170   3.337   2.201  13.010  0.3320 -0.2067 -0.3252
18893TIP3    H278171   3.194   2.186  13.057  0.6147 -2.8521 -0.1370
18894TIP3   OH278172   3.540   0.243  11.939  0.2337 -0.6149 -0.6097
18894TIP3    H178173   3.469   0.228  12.002  0.2110  1.5606 -0.0185
18894TIP3    H278174   3.518   0.188  11.864 -1.2298 -1.1905  0.1970
18895TIP3   OH278175   1.908   1.204   3.752  0.1180 -0.1384  0.4812
18895TIP3    H178176   1.828   1.153   3.751  0.2716 -0.6465  3.4621
18895TIP3    H278177   1.883   1.288   3.792  0.7654  0.3086 -0.0299
18896TIP3   OH278178   1.592   1.498   3.168  0.3047  0.1778  0.9342
18896TIP3    H178179   1.567   1.476   3.258 -3.3642 -2.4469 -0.4992
18896TIP3    H278180   1.608   1.414   3.126 -1.0732  1.0857 -1.5925
18897TIP3   OH278181   3.470   0.959   3.470 -0.0145 -0.2193  0.2177
18897TIP3    H178182   3.466   0.886   3.408  0.5584  0.0646 -0.1648
18897TIP3    H278183   3.432   0.924   3.551 -1.8604 -0.2417 -0.6254
18898TIP3   OH278184   4.667   1.699   4.927  0.0194  0.4008  0.7248
18898TIP3    H178185   4.601   1.645   4.970  1.0387 -1.1540  0.3799
18898TIP3    H278186   4.686   1.768   4.991 -1.4409  0.5076  1.0867
18899TIP3   OH278187   1.944   0.386   0.538  0.1194  0.3514 -0.6487
18899TIP3    H178188   1.892   0.422   0.466 -0.1848 -0.5830 -0.9173
18899TIP3    H278189   2.034   0.388   0.506  0.0638  0.5713 -0.7918
18900TIP3   OH278190   5.999   1.516   4.137 -0.2359  0.2599  0.7378
18900TIP3    H178191   5.909   1.547   4.148 -0.6398 -0.6315  0.0911
18900TIP3    H278192   6.001   1.432   4.184  0.2784  0.3014  0.7964
18901TIP3   OH278193   0.790   1.886  15.202  0.1584 -0.6483  0.0577
18901TIP3    H178194   0.742   1.826  15.260 -1.1007 -0.7991 -1.0842
18901TIP3    H278195   0.814   1.960  15.259 -0.4247 -1.1111  0.9348
18902TIP3   OH278196   5.205   6.327   0.616  0.6139  0.4736  0.2151
18902TIP3    H178197   5.274   6.393   0.621  0.8911  0.1298  1.1420
18902TIP3    H278198   5.222   6.268   0.690 -0.5284  0.2480  0.3249
18903TIP3   OH278199   3.458   0.886   4.549  0.1159 -0.6463 -0.1307
18903TIP3    H178200   3.439   0.846   4.634 -0.4397 -0.0483  0.0342
18903TIP3    H278201   3.456   0.813   4.487 -1.3726 -0.8216  0.0972
18904TIP3   OH278202   6.022   2.973  14.201 -0.7853  0.1669  0.1322
18904TIP3    H178203   6.010   3.033  14.127 -0.5492  0.9534  0.7149
18904TIP3    H278204   5.936   2.933  14.213 -1.8450  2.6703  1.6565
18905TIP3   OH278205   3.255   5.046   2.217  0.3697 -0.2642 -0.0473
18905TIP3    H178206   3.281   5.112   2.152 -1.1089  1.9972  1.4929
18905TIP3    H278207   3.195   4.988   2.170  1.7734 -0.6179 -1.4743
18906TIP3   OH278208   5.392   1.930  11.191 -0.0075  0.2181  0.3975
18906TIP3    H178209   5.304   1.902  11.164  0.0437  1.0752 -0.7308
18906TIP3    H278210   5.378   2.019  11.225  0.7304  1.3099 -1.9842
18907TIP3   OH278211   2.347   0.429   5.466 -0.3665  0.0747 -0.2128
18907TIP3    H178212   2.301   0.452   5.547 -1.4086 -1.0957 -0.4328
18907TIP3    H278213   2.327   0.500   5.406  2.2707  2.1478  1.1623
18908TIP3   OH278214   4.749   5.898  15.568 -0.1117  0.8455 -0.1647
18908TIP3    H178215   4.812   5.858  15.509  1.0536  0.6361  1.1635
18908TIP3    H278216   4.791   5.895  15.654 -2.6244 -0.8971  1.1448
18909TIP3   OH278217   6.493   2.524  11.857  0.0644  0.2416 -0.0472
18909TIP3    H178218   6.403   2.547  11.835  0.2313  3.0638  1.6353
18909TIP3    H278219   6.517   2.588  11.925  1.9146 -3.0868  2.7192
18910TIP3   OH278220   3.462   1.363   2.428  0.0808 -0.1749  0.3614
18910TIP3    H178221   3.394   1.317   2.477 -0.2487  0.2080  0.2670
18910TIP3    H278222   3.450   1.455   2.452  1.1996 -0.2091  1.1304
18911TIP3   OH278223   3.923   0.006  13.048  0.0858  0.1575 -0.0289
18911TIP3    H178224   3.831  -0.012  13.030 -0.0394  0.8545 -0.1166
18911TIP3    H278225   3.944   0.080  12.993  0.7900 -0.1880 -0.2337
18912TIP3   OH278226   3.004   0.091  11.290 -0.2227  0.7497 -0.2203
18912TIP3    H178227   2.969   0.012  11.249 -1.5442  0.9387  0.4661
18912TIP3    H278228   2.940   0.159  11.269 -1.6055  0.6216  2.9828
18913TIP3   OH278229   1.436   1.462  12.326  0.2895 -0.0927  0.2057
18913TIP3    H178230   1.355   1.446  12.375  1.2821 -1.8970  1.4024
18913TIP3    H278231   1.427   1.410  12.246 -0.0674  0.3781 -0.0622
18914TIP3   OH278232   1.013   4.063   3.080  0.2423  0.3592  0.1183
18914TIP3    H178233   0.952   3.993   3.062 -1.4215  1.6745  0.4093
18914TIP3    H278234   0.994   4.130   3.014  1.5381  0.7102  0.0617
18915TIP3   OH278235   5.995   4.637  14.398 -0.0336  0.6252 -0.2371
18915TIP3    H178236   5.901   4.629  14.383 -0.2000  1.4722  0.2998
18915TIP3    H278237   6.002   4.681  14.483  0.8441  1.0914 -0.5443
18916TIP3   OH278238   0.635   4.376   1.881 -0.0037  0.4956 -0.1324
18916TIP3    H178239   0.560   4.425   1.914 -0.1804 -1.3698  2.5138
18916TIP3    H278240   0.597   4.297   1.842  0.4278  1.2595 -2.2736
18917TIP3   OH278241   6.399   0.523   3.505  0.3213 -0.7701  0.2092
18917TIP3    H178242   6.372   0.443   3.550  1.8002 -1.1833  0.4256
18917TIP3    H278243   6.341   0.530   3.429  0.7754 -2.5586 -0.3365
18918TIP3   OH278244   6.180   2.560  12.950 -0.6332 -0.3254 -0.1375
18918TIP3    H178245   6.104   2.578  12.894  0.2146 -0.6713 -1.4360
18918TIP3    H278246   6.183   2.635  13.009 -1.1148  0.4445 -1.0536
18919TIP3   OH278247   5.423   0.373   5.117 -0.0705  0.3110  0.7127
18919TIP3    H178248   5.502   0.364   5.170  0.2455 -0.2705  0.1594
18919TIP3    H278249   5.444   0.329   5.035 -0.1995  2.0205 -0.2896
18920TIP3   OH278250   4.453   2.794  11.546 -0.1707  0.2031 -0.0642
18920TIP3    H178251   4.470   2.720  11.604 -0.7545 -0.9961 -1.3620
18920TIP3    H278252   4.366   2.825  11.570  0.4061  1.0541  1.0434
18921TIP3   OH278253   0.189   2.648   4.404  0.1043 -0.1555 -0.6663
18921TIP3    H178254   0.180   2.704   4.481 -0.6091 -0.9220 -0.1692
18921TIP3    H278255   0.277   2.666   4.371  1.0740 -0.9689  1.3012
18922TIP3   OH278256   3.694   1.551  16.354 -0.2602  0.2326  0.2409
18922TIP3    H178257   3.611   1.524  16.314  0.1327 -0.9121  0.1507
18922TIP3    H278258   3.673   1.633  16.399 -0.7817  1.4305 -2.0222
18923TIP3   OH278259   6.661   2.714   1.730  0.3933 -0.2941 -0.5172
18923TIP3    H178260   6.579   2.698   1.682  0.2287  0.7264 -0.6095
18923TIP3    H278261   6.711   2.634   1.720 -0.5438 -0.8816 -0.5850
18924TIP3   OH278262   3.325   3.667   5.177  0.3059 -0.0675  0.4597
18924TIP3    H178263   3.252   3.718   5.144 -0.4624 -0.9722  0.6947
18924TIP3    H278264   3.394   3.675   5.111  0.2908  1.4225  0.6088
18925TIP3   OH278265   5.968   4.838  14.591 -0.4827 -0.1223 -0.1084
18925TIP3    H178266   5.963   4.811  14.683  1.4322 -0.3372 -0.0269
18925TIP3    H278267   6.035   4.906  14.589 -0.3906 -0.2190 -1.3763
18926TIP3   OH278268   0.462   4.753  14.197  0.3765 -0.2578 -0.4455
18926TIP3    H178269   0.444   4.660  14.187 -1.9913 -0.1677  2.0668
18926TIP3    H278270   0.390   4.797  14.151 -0.4913  0.2321  1.2879
18927TIP3   OH278271   6.146   3.336   1.634 -0.4093  0.2625 -0.4720
18927TIP3    H178272   6.141   3.334   1.538 -0.2202  0.6914 -0.4952
18927TIP3    H278273   6.215   3.273   1.655 -0.2717  0.3547 -0.6359
18928TIP3   OH278274   3.219   6.024  16.012 -0.0905 -0.3521  0.1734
18928TIP3    H178275   3.147   6.003  16.072 -0.7582 -0.0660 -0.4994
18928TIP3    H278276   3.180   6.086  15.950  1.1947  1.1409  0.7833
18929TIP3   OH278277   5.855   0.959   2.758 -0.3018  0.0472  0.2503
18929TIP3    H178278   5.870   1.052   2.775  0.4805  0.1441 -0.8554
18929TIP3    H278279   5.760   0.948   2.765 -0.4379  1.0041 -0.0065
18930TIP3   OH278280   1.826   4.988   4.891  0.3068  0.2122 -0.5327
18930TIP3    H178281   1.884   5.037   4.832  0.9010  0.4754  0.2562
18930TIP3    H278282   1.827   5.038   4.973  0.1063 -0.5700 -0.0467
18931TIP3   OH278283   4.327   1.246  16.023  0.1866  0.1689  0.0034
18931TIP3    H178284   4.247   1.195  16.006 -1.1386  1.7899  1.1202
18931TIP3    H278285   4.387   1.183  16.063 -1.5866 -0.4606  1.8296
18932TIP3   OH278286   1.207   0.821   1.539  0.2744 -0.2143 -0.0651
18932TIP3    H178287   1.269   0.760   1.498  1.5049  1.1464 -0.3376
18932TIP3    H278288   1.200   0.893   1.476 -0.8608  0.1092  0.4098
18933TIP3   OH278289   5.615   2.691  12.311 -0.7473 -0.0032  0.2352
18933TIP3    H178290   5.631   2.781  12.282  0.1517  0.0135  0.7361
18933TIP3    H278291   5.681   2.675  12.378  0.4040 -1.6759 -1.1782
18934TIP3   OH278292   5.407   2.415   1.303  0.5070  0.3285 -0.0033
18934TIP3    H178293   5.335   2.398   1.362 -0.6066  1.0012 -1.1197
18934TIP3    H278294   5.421   2.510   1.309  1.7055  0.1334  0.6352
18935TIP3   OH278295   5.671   5.504   2.059  0.0907 -0.1307  0.3378
18935TIP3    H178296   5.587   5.546   2.078 -0.0923 -0.2572 -0.1755
18935TIP3    H278297   5.678   5.433   2.124 -0.8057 -0.9431 -0.4274
18936TIP3   OH278298   2.483   2.443   0.548 -0.3199  0.5102  0.9155
18936TIP3    H178299   2.487   2.355   0.511  2.1345  0.1466  1.8571
18936TIP3    H278300   2.535   2.497   0.488 -0.5899  1.0136  1.1257
18937TIP3   OH278301   6.225   5.907  11.741  0.0960 -0.2850 -0.1590
18937TIP3    H178302   6.282   5.864  11.805 -1.0475  1.0056  1.8383
18937TIP3    H278303   6.175   5.836  11.702 -0.6504 -0.9735  1.9235
18938TIP3   OH278304   1.239   3.197  13.332  0.7078  0.1097 -0.6597
18938TIP3    H178305   1.187   3.117  13.323 -1.4939  1.4824 -0.7631
18938TIP3    H278306   1.293   3.180  13.409 -0.7949 -0.9451  0.2303
18939TIP3   OH278307   3.703   6.366  16.015  0.1509 -0.0800  0.0438
18939TIP3    H178308   3.620   6.326  15.988  0.0475  1.5984 -2.4746
18939TIP3    H278309   3.770   6.315  15.969  0.2884  0.2912 -0.1719
18940TIP3   OH278310   3.580   6.203   4.084  0.1572 -0.3476  0.5121
18940TIP3    H178311   3.653   6.143   4.092  0.1897 -0.2136  1.2171
18940TIP3    H278312   3.608   6.265   4.016  0.1167 -1.1168 -0.2235
18941TIP3   OH278313   1.042   6.631   3.669  0.2777 -0.1703 -0.2506
18941TIP3    H178314   1.123   6.594   3.703 -0.8085 -0.7119  1.9748
18941TIP3    H278315   0.996   6.557   3.631  0.2349 -0.1555 -0.2278
18942TIP3   OH278316   4.042   1.950   2.360  0.6151 -0.3248 -0.4074
18942TIP3    H178317   4.083   1.914   2.281  0.3698  1.3280 -1.3274
18942TIP3    H278318   3.948   1.951   2.339  0.5464  0.1122 -0.0865
18943TIP3   OH278319   4.704   4.826   0.178 -0.3650 -0.1077  0.3058
18943TIP3    H178320   4.791   4.862   0.198 -0.0432 -0.7883  0.1854
18943TIP3    H278321   4.646   4.901   0.179 -0.1565  0.0763  2.5128
18944TIP3   OH278322   5.771   2.267   5.532 -0.6018  0.4616  0.4066
18944TIP3    H178323   5.705   2.334   5.546 -0.0517  0.9895  0.5188
18944TIP3    H278324   5.726   2.198   5.483 -0.9343  1.3066 -0.4988
18945TIP3   OH278325   0.329   4.120   0.725  0.4087 -1.1746 -0.0650
18945TIP3    H178326   0.393   4.192   0.726 -0.1053 -0.6915 -0.9794
18945TIP3    H278327   0.248   4.161   0.695  0.0959 -2.1379 -0.5522
18946TIP3   OH278328   1.650   6.586   3.124  0.8623 -0.5367 -0.3678
18946TIP3    H178329   1.592   6.521   3.084 -1.3330  0.4845  0.9449
18946TIP3    H278330   1.600   6.668   3.118  0.2650 -0.2838  4.4115
18947TIP3   OH278331   0.460   1.621   6.426 -0.3300  0.2055 -0.4490
18947TIP3    H178332   0.528   1.562   6.460  1.8019  1.9581 -1.3907
18947TIP3    H278333   0.450   1.595   6.334  1.4356  1.8602 -1.1907
18948TIP3   OH278334   3.278   6.035  15.197 -0.2604 -0.0031 -0.6396
18948TIP3    H178335   3.268   5.975  15.271 -1.5029  1.3910  0.3845
18948TIP3    H278336   3.222   5.998  15.129 -0.3662 -0.4480 -0.3204
18949TIP3   OH278337   3.537   4.681  12.177  0.3885 -0.2248  0.3979
18949TIP3    H178338   3.557   4.761  12.128  2.9478 -1.5677 -0.8883
18949TIP3    H278339   3.479   4.631  12.120 -1.2563  0.6330  1.2242
18950TIP3   OH278340   4.262   6.676  12.451 -0.5060 -0.8727  0.7274
18950TIP3    H178341   4.306   6.737  12.393  2.0029 -1.1832  2.1765
18950TIP3    H278342   4.244   6.600  12.397 -0.0710 -0.3726 -0.1386
18951TIP3   OH278343   4.766   6.809  11.439 -0.8981  0.1954 -0.4248
18951TIP3    H178344   4.772   6.832  11.346 -2.5630 -0.2078 -0.6647
18951TIP3    H278345   4.788   6.716  11.443  1.3715  0.7059 -0.0779
18952TIP3   OH278346   0.180   5.220  13.703 -0.2670 -0.0812  0.3235
18952TIP3    H178347   0.197   5.129  13.676  0.4324 -0.1334  0.9299
18952TIP3    H278348   0.135   5.211  13.787 -0.5443  0.1292  0.1976
18953TIP3   OH278349   1.874   5.262  13.489 -0.6883  0.3703 -0.4130
18953TIP3    H178350   1.936   5.233  13.556  0.2023  2.0771 -0.4586
18953TIP3    H278351   1.790   5.267  13.535 -0.3463  0.2582  0.2326
18954TIP3   OH278352   1.458   3.692  11.914  1.1155  0.2325 -0.6041
18954TIP3    H178353   1.461   3.600  11.891  1.2584  0.3239 -0.9550
18954TIP3    H278354   1.448   3.693  12.009  0.1959 -0.1478 -0.6911
18955TIP3   OH278355   0.000   6.589   2.789 -0.2917  0.0822  0.2129
18955TIP3    H178356   0.029   6.573   2.699  0.0729  1.0750  0.1384
18955TIP3    H278357  -0.095   6.591   2.784 -0.2682  0.2479 -0.1682
18956TIP3   OH278358   6.439   3.251  16.541  0.7272  0.1402  0.4233
18956TIP3    H178359   6.384   3.249  16.620  0.4429  4.3949  0.5575
18956TIP3    H278360   6.377   3.262  16.469  1.1613  0.4047  0.0843
18957TIP3   OH278361   3.459   5.985  16.898 -0.3831  0.3846 -0.0165
18957TIP3    H178362   3.383   5.987  16.956 -1.1927  0.2894 -1.0523
18957TIP3    H278363   3.534   6.000  16.956 -1.2988  1.9539  0.8186
18958TIP3   OH278364   1.978   1.003  13.367  0.5516 -0.4236 -0.0826
18958TIP3    H178365   1.908   1.063  13.389  0.5293 -0.7879  0.8662
18958TIP3    H278366   1.965   0.983  13.274  0.7540  1.2746 -0.5023
18959TIP3   OH278367   1.435   4.111   5.518  0.0399  0.3062  0.0596
18959TIP3    H178368   1.495   4.111   5.444  2.4948 -0.9541  1.9129
18959TIP3    H278369   1.492   4.109   5.595 -2.3978 -0.9078  1.9587
18960TIP3   OH278370   4.201   4.760  13.497 -0.3022  0.2780  0.5070
18960TIP3    H178371   4.244   4.805  13.424  1.4502 -1.9898  0.0113
18960TIP3    H278372   4.152   4.689  13.456  0.5639 -0.9285  1.4823
18961TIP3   OH278373   2.390   2.499  15.443  0.0214 -0.1700 -0.3503
18961TIP3    H178374   2.388   2.538  15.356  2.3968 -0.3850 -0.5783
18961TIP3    H278375   2.312   2.444  15.446 -0.3879  0.2314 -2.1626
18962TIP3   OH278376   4.585   5.529   2.247  0.3577  0.1761  0.6788
18962TIP3    H178377   4.652   5.560   2.186  0.7281  0.2709  1.1355
18962TIP3    H278378   4.609   5.438   2.265  0.1058  0.0703  0.4944
18963TIP3   OH278379   6.319   0.335  11.280 -0.2491 -0.5591 -0.3926
18963TIP3    H178380   6.403   0.356  11.321  0.9937 -1.2262 -2.4543
18963TIP3    H278381   6.283   0.419  11.253  0.2708 -0.3617 -0.4670
18964TIP3   OH278382   6.461   1.034  11.829 -0.6890 -0.4211  0.1461
18964TIP3    H178383   6.405   0.986  11.768  0.6362 -0.3979 -1.1558
18964TIP3    H278384   6.520   0.967  11.865 -2.0893 -0.6382  2.2746
18965TIP3   OH278385   5.014   0.595   4.649 -0.0989  0.1150  0.3433
18965TIP3    H178386   5.074   0.635   4.586  1.4761 -1.9642  0.4050
18965TIP3    H278387   5.067   0.527   4.692 -2.3641 -1.4308  0.8346
18966TIP3   OH278388   0.617   5.335  16.017 -0.3301 -0.8856  0.4149
18966TIP3    H178389   0.687   5.400  16.005 -1.3426  0.0015 -0.8905
18966TIP3    H278390   0.660   5.263  16.062  1.3862 -0.2586 -0.1229
18967TIP3   OH278391   5.586   3.176  13.984  0.0838 -0.1971 -0.3271
18967TIP3    H178392   5.565   3.113  13.916  0.2649 -1.0823  0.4164
18967TIP3    H278393   5.502   3.194  14.027  0.2127 -0.8166  0.1947
18968TIP3   OH278394   2.164   2.626   5.572  0.4218 -0.4543 -0.1539
18968TIP3    H178395   2.204   2.702   5.615  0.6557 -1.4133  1.3921
18968TIP3    H278396   2.118   2.663   5.496  1.6680  1.0556 -0.2304
18969TIP3   OH278397   3.957   5.946  16.853 -0.0951  0.7773  0.4729
18969TIP3    H178398   4.027   5.887  16.823 -1.5035 -0.6603 -0.1065
18969TIP3    H278399   3.999   6.000  16.920  1.7424  0.4219 -0.3063
18970TIP3   OH278400   3.735   2.534   0.659 -0.5316  0.7790 -0.3806
18970TIP3    H178401   3.753   2.620   0.698  2.1850 -0.5253  1.5192
18970TIP3    H278402   3.815   2.484   0.673 -2.1129 -2.1857 -1.1864
18971TIP3   OH278403   2.784   0.342   6.485  0.1718  0.3037  0.0706
18971TIP3    H178404   2.724   0.316   6.554  0.5970 -0.3708  0.1956
18971TIP3    H278405   2.866   0.363   6.531  0.1987  0.6863 -0.1462
18972TIP3   OH278406   2.881   1.049  13.304 -0.4499 -0.1609 -0.2523
18972TIP3    H178407   2.966   1.005  13.302  0.6062  1.8127 -1.2270
18972TIP3    H278408   2.819   0.980  13.328  1.3592 -1.7291  0.1502
18973TIP3   OH278409   6.321   0.991   4.617  0.0501  0.1324  0.4507
18973TIP3    H178410   6.343   1.077   4.582  1.1361  0.4488  1.8094
18973TIP3    H278411   6.346   0.929   4.549 -0.0273  0.8524 -0.2338
18974TIP3   OH278412   0.706   6.456   4.695 -0.7556 -0.5175  0.0777
18974TIP3    H178413   0.641   6.464   4.766  0.7682  1.4018  1.3441
18974TIP3    H278414   0.757   6.378   4.718 -0.7076 -0.2996  0.7262
18975TIP3   OH278415   1.233   5.723  11.996 -0.1305  0.3202  0.4102
18975TIP3    H178416   1.243   5.687  11.908 -0.7404  2.0301 -0.3971
18975TIP3    H278417   1.302   5.789  12.003  1.3851 -1.2861  2.1032
18976TIP3   OH278418   1.762   0.115  15.171  0.4765 -0.2252  0.4447
18976TIP3    H178419   1.749   0.106  15.265  0.0911 -0.1800  0.4005
18976TIP3    H278420   1.842   0.167  15.162 -0.1595  0.8458  0.7698
18977TIP3   OH278421   6.327   3.660   4.163 -0.6091  0.4200  0.1585
18977TIP3    H178422   6.256   3.666   4.228 -0.7754 -1.7486  0.2437
18977TIP3    H278423   6.403   3.631   4.213 -0.0984  1.0443 -0.2379
18978TIP3   OH278424   3.901   3.026   0.334 -0.0837 -0.2126 -0.1338
18978TIP3    H178425   3.974   3.037   0.273 -0.0409 -0.8454 -0.2054
18978TIP3    H278426   3.880   2.933   0.330 -0.7081 -0.0886  0.1062
18979TIP3   OH278427   0.001   1.160  12.352  0.1483  0.4619  0.4314
18979TIP3    H178428   0.025   1.174  12.444  2.7162 -2.2327  0.3411
18979TIP3    H278429   0.072   1.200  12.303  0.6644 -1.1161 -0.1835
18980TIP3   OH278430   0.283   4.778  10.424  0.3299 -0.3123  0.0606
18980TIP3    H178431   0.293   4.850  10.362 -1.8975 -0.3462 -0.4246
18980TIP3    H278432   0.200   4.796  10.468  0.1957 -2.0823  0.5988
18981TIP3   OH278433   3.030   3.756  16.714 -0.2249  0.2855 -0.2923
18981TIP3    H178434   2.959   3.699  16.743  1.1925 -0.1493  2.7039
18981TIP3    H278435   3.093   3.697  16.674 -0.5700  0.3790 -0.9945
18982TIP3   OH278436   4.139   3.280  13.985  0.2628  0.5744  0.2669
18982TIP3    H178437   4.095   3.365  13.993  0.8156  0.9561 -0.5642
18982TIP3    H278438   4.200   3.292  13.912 -0.4379 -0.8775 -0.5886
18983TIP3   OH278439   2.224   2.827  13.527 -0.5108  0.2569  0.4690
18983TIP3    H178440   2.131   2.847  13.518 -0.3334  0.7047 -0.4247
18983TIP3    H278441   2.269   2.893  13.475  0.1883 -1.2466 -0.9316
18984TIP3   OH278442   0.044   5.381  16.792 -0.0124 -0.3077  0.4932
18984TIP3    H178443   0.002   5.307  16.749  1.4812 -1.3900  0.8372
18984TIP3    H278444   0.098   5.421  16.725  0.2528 -0.3757  0.6651
18985TIP3   OH278445   4.608   6.172   4.435 -0.2593 -0.8643  0.0746
18985TIP3    H178446   4.641   6.092   4.394 -0.0789 -0.4398 -0.6278
18985TIP3    H278447   4.638   6.167   4.526  2.2901 -0.2376 -0.6478
18986TIP3   OH278448   2.078   3.534  13.840 -0.2551 -0.1605 -0.0281
18986TIP3    H178449   1.994   3.570  13.811  0.4001  1.5282  0.0733
18986TIP3    H278450   2.066   3.519  13.934 -1.5088 -3.1497 -0.5645
18987TIP3   OH278451   2.126   6.630   4.925 -0.0355 -0.2522  0.2913
18987TIP3    H178452   2.146   6.626   4.832 -0.1358 -1.7337  0.3116
18987TIP3    H278453   2.186   6.696   4.960  1.3409 -1.0473 -0.4888
18988TIP3   OH278454   2.309   6.354  11.362  0.9565  0.6768 -0.1554
18988TIP3    H178455   2.306   6.374  11.268 -0.0540 -0.4792 -0.4117
18988TIP3    H278456   2.389   6.395  11.393  2.1258 -0.1653 -1.8492
18989TIP3   OH278457   1.543   0.973  16.880 -0.5460  0.0780  0.1210
18989TIP3    H178458   1.551   0.917  16.958 -1.1779  0.3035  0.3568
18989TIP3    H278459   1.485   1.044  16.908 -0.6564  0.2401 -0.5122
18990TIP3   OH278460   3.864   3.533  15.761 -0.0492 -0.3454  0.5694
18990TIP3    H178461   3.801   3.581  15.815 -0.8548  0.1742 -0.8054
18990TIP3    H278462   3.886   3.594  15.691  1.2077 -0.9114  0.4467
18991TIP3   OH278463   2.425   4.075  11.968 -0.3427 -0.1304 -0.3174
18991TIP3    H178464   2.405   3.988  11.934  1.7354 -1.1128  0.7555
18991TIP3    H278465   2.412   4.134  11.894  0.7773 -1.7263 -1.8589
18992TIP3   OH278466   0.841   2.898  11.356  0.3747  0.3225  0.1125
18992TIP3    H178467   0.922   2.866  11.396 -0.2141  0.0397  1.0933
18992TIP3    H278468   0.773   2.877  11.419 -0.4577  0.6573 -0.6609
18993TIP3   OH278469   2.594   5.002  15.208 -0.0405  0.2826  0.6831
18993TIP3    H178470   2.684   4.986  15.235  0.3991  0.1643 -0.7524
18993TIP3    H278471   2.540   4.967  15.279  1.0344  0.3616  1.5581
18994TIP3   OH278472   6.589   0.919  14.957  0.0041 -0.3373 -0.9431
18994TIP3    H178473   6.547   0.860  14.895  0.5130 -0.5399 -1.0997
18994TIP3    H278474   6.597   0.868  15.038  0.1278 -0.3650 -0.9731
18995TIP3   OH278475   1.488   5.696  16.614  0.2862  0.6365 -0.1894
18995TIP3    H178476   1.482   5.659  16.702 -0.9684 -1.9235 -1.2534
18995TIP3    H278477   1.578   5.678  16.586 -0.5712 -3.0574 -1.1313
18996TIP3   OH278478   3.596   3.016   0.377 -0.1697  0.2641  0.1308
18996TIP3    H178479   3.659   3.087   0.385  0.4766 -0.2233 -0.4965
18996TIP3    H278480   3.539   3.042   0.305 -0.4112  0.4942  0.4018
18997TIP3   OH278481   1.849   1.494  16.106 -0.0208 -0.0999  0.0264
18997TIP3    H178482   1.766   1.488  16.059 -1.4575 -0.8202  2.5057
18997TIP3    H278483   1.825   1.490  16.198  2.8599 -1.5811  0.8223
18998TIP3   OH278484   0.878   6.152  12.069 -0.0379  0.4304 -0.1015
18998TIP3    H178485   0.870   6.155  11.973  0.2899  0.8159 -0.1222
18998TIP3    H278486   0.969   6.129  12.085 -0.3642 -0.7680  0.1278
18999TIP3   OH278487   2.161   2.373  16.695 -0.3112  0.4669  0.4912
18999TIP3    H178488   2.122   2.441  16.641 -1.0395  0.1742  0.6336
18999TIP3    H278489   2.093   2.352  16.759 -0.0441 -0.3025  0.5295
19000TIP3   OH278490   6.494   5.427  16.754 -0.0143 -0.9268  0.3668
19000TIP3    H178491   6.568   5.422  16.814  0.6877 -0.4323 -0.4350
19000TIP3    H278492   6.512   5.504  16.700 -0.5589 -1.4286 -0.5546
19001TIP3   OH278493   6.047   1.102  11.823 -0.0201 -0.0265 -0.2287
19001TIP3    H178494   5.989   1.128  11.751 -1.0244 -0.5030  0.3704
19001TIP3    H278495   6.134   1.132  11.797 -0.7909  2.1956 -0.4296
19002TIP3   OH278496   5.262   2.034   2.068  0.3655 -0.0406  0.1458
19002TIP3    H178497   5.342   2.043   2.016  0.2980  2.6519  0.3619
19002TIP3    H278498   5.201   1.989   2.010  1.2304  0.2262 -1.0171
19003TIP3   OH278499   1.969   0.205   2.502  0.2503 -0.3314  0.7831
19003TIP3    H178500   1.908   0.220   2.430  0.3370 -0.8332  0.6002
19003TIP3    H278501   1.998   0.114   2.491  0.3953 -0.3626  1.3495
19004TIP3   OH278502   0.611   2.531   3.051 -0.2693  0.8936 -0.4780
19004TIP3    H178503   0.613   2.607   3.109 -0.8433  1.2006 -0.8538
19004TIP3    H278504   0.703   2.513   3.031 -0.1459  1.6178 -0.5570
19005TIP3   OH278505   6.579   5.007   1.536  0.7320  0.3777 -1.3517
19005TIP3    H178506   6.626   4.978   1.615  3.0640  1.1441 -2.3695
19005TIP3    H278507   6.547   5.094   1.558  0.3484  0.1273 -0.8822
19006TIP3   OH278508   6.695   1.353   4.634 -0.7351  0.1022  0.0083
19006TIP3    H178509   6.692   1.303   4.553 -0.7562 -2.0223  1.2317
19006TIP3    H278510   6.760   1.421   4.619  0.6158 -1.3910 -1.1911
19007TIP3   OH278511   3.670   5.730  14.922  0.3560 -0.1163  0.6162
19007TIP3    H178512   3.629   5.714  15.007 -1.7443 -0.0971 -0.3322
19007TIP3    H278513   3.628   5.811  14.891 -0.0287 -0.9214 -1.0586
19008TIP3   OH278514   5.532   3.331  15.145  0.2554 -0.7985  0.1997
19008TIP3    H178515   5.472   3.257  15.137  0.5991 -1.1029  0.3919
19008TIP3    H278516   5.491   3.388  15.209 -0.2985 -0.5328 -0.3751
19009TIP3   OH278517   0.480   6.428  14.957  0.9266 -0.3324  0.1502
19009TIP3    H178518   0.544   6.361  14.935 -0.4111 -1.2168 -1.2427
19009TIP3    H278519   0.524   6.511  14.938  2.1298 -0.8439  0.6220
19010TIP3   OH278520   6.171   2.171  15.867 -1.0580  0.7043 -0.0905
19010TIP3    H178521   6.166   2.091  15.920 -0.4729  0.3312 -0.5833
19010TIP3    H278522   6.127   2.149  15.786 -0.4532  0.7120 -0.4282
19011TIP3   OH278523   1.402   5.161   4.839 -0.0894  0.1184 -0.0992
19011TIP3    H178524   1.424   5.155   4.746  1.1898  1.3338  0.0864
19011TIP3    H278525   1.426   5.076   4.875  0.0631 -0.1231 -0.7632
19012TIP3   OH278526   2.493   4.315  13.536 -0.5756  0.2198  0.7275
19012TIP3    H178527   2.561   4.351  13.593 -0.2362  0.1098  0.3888
19012TIP3    H278528   2.472   4.386  13.475 -0.0890 -0.0666  0.2251
19013TIP3   OH278529   2.319   1.748   1.723 -0.8235  0.4648  0.2132
19013TIP3    H178530   2.343   1.679   1.662 -1.6470  1.0301 -0.7869
19013TIP3    H278531   2.242   1.789   1.684 -0.9300  1.3243  1.2669
19014TIP3   OH278532   0.217   5.036   3.343 -0.1300  0.0415 -0.0977
19014TIP3    H178533   0.181   5.125   3.348 -0.1145  0.0536 -0.1910
19014TIP3    H278534   0.183   5.002   3.260 -2.0242 -0.8497  0.9551
19015TIP3   OH278535   4.271   4.645   1.216 -0.0633 -0.1862 -0.1397
19015TIP3    H178536   4.366   4.660   1.214 -0.1934  0.6198 -0.4850
19015TIP3    H278537   4.232   4.732   1.223 -0.8672 -0.1161 -3.5232
19016TIP3   OH278538   6.207   5.218  15.159 -0.1646  0.8687  0.4864
19016TIP3    H178539   6.164   5.286  15.107  1.7352  2.4367  0.8193
19016TIP3    H278540   6.190   5.137  15.111  1.7996  2.2490 -2.9492
19017TIP3   OH278541   3.341   1.855   4.146  0.1400 -0.5192  0.7173
19017TIP3    H178542   3.407   1.790   4.119  0.3538  0.1652 -0.4854
19017TIP3    H278543   3.363   1.934   4.095 -0.5303  0.2806  1.6360
19018TIP3   OH278544   4.531   2.121  15.250  0.0706  0.0634  0.0261
19018TIP3    H178545   4.618   2.084  15.238 -0.1336 -0.5566  0.4332
19018TIP3    H278546   4.547   2.206  15.291  0.6603  1.3799 -2.6832
19019TIP3   OH278547   2.174   0.996  15.540  0.5228 -0.3631  0.6022
19019TIP3    H178548   2.134   1.060  15.482  1.1082  0.2396  0.8497
19019TIP3    H278549   2.197   0.923  15.482  3.5148  1.2789 -0.5327
19020TIP3   OH278550   1.990   6.045   2.633 -0.0588 -0.1514 -0.3547
19020TIP3    H178551   1.945   5.962   2.622  1.6211 -0.9735 -1.4406
19020TIP3    H278552   1.926   6.111   2.608 -1.2478 -1.1377  0.0079
19021TIP3   OH278553   5.929   2.813   5.229  0.1823  0.2810 -0.5418
19021TIP3    H178554   5.874   2.879   5.187  1.7175  2.4102  0.6307
19021TIP3    H278555   6.000   2.862   5.270  0.1310 -1.8445  2.4577
19022TIP3   OH278556   5.503   1.159  14.262  0.2382  0.4179 -0.2909
19022TIP3    H178557   5.551   1.203  14.332  1.6963  0.9939 -1.5757
19022TIP3    H278558   5.554   1.178  14.183 -1.5828  0.1629 -1.5859
19023TIP3   OH278559   6.270   6.352   2.048  0.2019 -0.0098  0.3221
19023TIP3    H178560   6.186   6.313   2.025  1.0835 -1.1969 -1.0615
19023TIP3    H278561   6.279   6.428   1.990 -0.6625  1.2016  1.7005
19024TIP3   OH278562   3.335   0.163  12.109 -0.3779 -0.7729 -0.0934
19024TIP3    H178563   3.281   0.242  12.101  1.2389  0.3458 -0.4186
19024TIP3    H278564   3.348   0.151  12.203  0.9573  0.5158 -0.0783
19025TIP3   OH278565   4.357   2.234  16.414 -0.4325 -0.3515  0.1470
19025TIP3    H178566   4.421   2.275  16.355 -0.1799 -0.3377  0.4231
19025TIP3    H278567   4.378   2.271  16.500 -0.6295 -0.5667  0.2872
19026TIP3   OH278568   2.461   3.295   1.030  0.5254  0.3253 -0.3842
19026TIP3    H178569   2.462   3.348   1.111  1.6048  0.6783 -0.6096
19026TIP3    H278570   2.449   3.205   1.061 -0.1976  0.5665  0.0841
19027TIP3   OH278571   6.209   2.584   5.614 -0.3994  1.0331 -0.3799
19027TIP3    H178572   6.133   2.634   5.644 -0.6463 -0.2139  1.2065
19027TIP3    H278573   6.257   2.562   5.695  0.4546 -0.0761 -1.1507
19028TIP3   OH278574   2.761   4.410  15.609 -0.3378 -0.2377 -0.6967
19028TIP3    H178575   2.803   4.438  15.690 -0.0268 -0.9473 -0.6054
19028TIP3    H278576   2.678   4.458  15.608  0.7515  1.7829 -1.2561
19029TIP3   OH278577   4.404   2.860   2.567  0.0290 -0.2844 -0.6843
19029TIP3    H178578   4.433   2.870   2.477 -1.8534 -0.6412 -1.3756
19029TIP3    H278579   4.319   2.904   2.570 -0.0791 -0.5406  0.8408
19030TIP3   OH278580   2.879   4.651   5.232  0.2734 -0.6015 -0.1979
19030TIP3    H178581   2.840   4.641   5.319  0.4176  0.2272 -0.0346
19030TIP3    H278582   2.923   4.567   5.217 -0.2094 -0.9555  0.2924
19031TIP3   OH278583   3.538   4.283   4.280  0.0713 -0.3396 -0.0903
19031TIP3    H178584   3.545   4.199   4.235 -2.2889  0.9056 -3.1170
19031TIP3    H278585   3.627   4.316   4.283  1.1753 -3.0973  1.7719
19032TIP3   OH278586   6.577   1.976   0.086 -0.0501 -0.0994 -0.0297
19032TIP3    H178587   6.634   1.943   0.017 -0.4666 -1.3162  0.1778
19032TIP3    H278588   6.488   1.957   0.055 -0.2568 -0.2207  0.6085
19033TIP3   OH278589   4.458   2.746  12.673  0.2821 -0.0596  0.1934
19033TIP3    H178590   4.541   2.793  12.658 -0.3260  1.6476  1.7561
19033TIP3    H278591   4.457   2.729  12.767 -0.4619 -1.4642 -0.0491
19034TIP3   OH278592   3.873   0.476  13.740  0.1236 -0.2883  0.0856
19034TIP3    H178593   3.847   0.406  13.680 -1.6957  0.8433 -0.5204
19034TIP3    H278594   3.887   0.552  13.684  2.1873 -0.1334  0.7229
19035TIP3   OH278595   6.671   6.483  16.269  0.1438  0.1608 -0.3675
19035TIP3    H178596   6.651   6.570  16.236 -2.0141 -0.3192 -0.4768
19035TIP3    H278597   6.666   6.426  16.192 -0.7291 -0.3694  0.0700
19036TIP3   OH278598   5.713   2.328  10.572 -0.2085 -0.1564  0.5708
19036TIP3    H178599   5.699   2.404  10.516  0.4095 -1.2211 -1.1124
19036TIP3    H278600   5.634   2.275  10.561 -0.3987 -0.0384  1.3042
19037TIP3   OH278601   4.979   5.858  11.947 -0.5546  0.2674 -0.3700
19037TIP3    H178602   4.905   5.821  11.995 -1.1573  0.2651 -1.2692
19037TIP3    H278603   5.032   5.901  12.014 -2.1482  1.5779  0.1438
19038TIP3   OH278604   5.111   5.353   6.101  0.2641 -0.4311  0.6244
19038TIP3    H178605   5.125   5.348   6.196  0.2627 -2.5726  0.5562
19038TIP3    H278606   5.018   5.373   6.091  0.6827  2.0328  1.0321
19039TIP3   OH278607   1.711   6.626  14.104  0.7437 -0.3372 -0.3370
19039TIP3    H178608   1.705   6.546  14.052 -0.3583 -0.1520 -0.5183
19039TIP3    H278609   1.634   6.677  14.078  0.8318  0.2928  0.6030
19040TIP3   OH278610   5.409   5.025  17.154  0.6825  0.1673  0.3411
19040TIP3    H178611   5.428   4.948  17.208  1.2720 -0.1287 -0.2705
19040TIP3    H278612   5.350   4.992  17.086  0.4939  0.3823  0.4000
19041TIP3   OH278613   0.367   1.378  15.881 -0.0617 -0.8128 -0.4561
19041TIP3    H178614   0.334   1.468  15.890 -0.2853 -1.0772  2.1502
19041TIP3    H278615   0.461   1.389  15.868 -0.3896 -0.1958 -2.8123
19042TIP3   OH278616   4.314   2.124  14.980 -0.0567 -0.2444  0.6762
19042TIP3    H178617   4.390   2.067  14.998 -0.6976 -0.2583  4.1689
19042TIP3    H278618   4.239   2.066  14.992 -0.6669  0.4684  0.2946
19043TIP3   OH278619   1.593   4.323   4.531  0.2906  0.6406 -0.1705
19043TIP3    H178620   1.590   4.418   4.543  0.9705  0.5007  1.1820
19043TIP3    H278621   1.593   4.312   4.435  2.9838  2.1254 -0.4392
19044TIP3   OH278622   4.666   0.318   6.172 -0.3089 -0.2869 -0.0121
19044TIP3    H178623   4.686   0.272   6.090  0.1683  1.5700 -1.0028
19044TIP3    H278624   4.710   0.267   6.240 -0.5827 -1.7850 -0.9106
19045TIP3   OH278625   3.352   4.228  15.409  0.0206  0.8286  0.5710
19045TIP3    H178626   3.267   4.214  15.367  0.2180  1.1036  0.0665
19045TIP3    H278627   3.412   4.245  15.336  0.4634  0.8615  0.9389
19046TIP3   OH278628   6.436   6.819   0.442 -0.4717 -0.3155 -0.0909
19046TIP3    H178629   6.460   6.727   0.432 -1.5835 -0.4902 -1.4752
19046TIP3    H278630   6.341   6.820   0.427 -0.4360  1.0868 -0.3146
19047TIP3   OH278631   1.200   6.304  15.837  0.2521  0.2818  0.2388
19047TIP3    H178632   1.240   6.317  15.751  1.4377  0.5849  0.8040
19047TIP3    H278633   1.133   6.372  15.844  1.0931  1.1397  0.0895
19048TIP3   OH278634   6.722   6.080  16.542  0.7037  0.2704  0.0223
19048TIP3    H178635   6.727   6.118  16.454 -0.4265  1.3716  0.4028
19048TIP3    H278636   6.628   6.066  16.556  1.0645 -3.3960 -0.3589
19049TIP3   OH278637   3.007   1.363   2.748 -0.2785 -0.5894 -0.1727
19049TIP3    H178638   3.088   1.369   2.799 -0.8762  0.4868  0.6705
19049TIP3    H278639   2.941   1.406   2.802 -0.7065  1.6265 -2.3221
19050TIP3   OH278640   5.200   5.876   0.671 -0.1600 -0.2309 -0.4334
19050TIP3    H178641   5.242   5.930   0.737 -0.6041 -0.4893  0.0628
19050TIP3    H278642   5.236   5.907   0.588  2.1087 -1.4025  0.0468
19051TIP3   OH278643   0.012   3.297  11.200 -0.3551 -0.4369  0.7054
19051TIP3    H178644   0.004   3.202  11.186  0.5878 -0.5650  0.9866
19051TIP3    H278645  -0.026   3.336  11.121 -2.3400 -1.0016  1.3236
19052TIP3   OH278646   5.766   6.819  16.183  0.1494 -0.1368 -0.4184
19052TIP3    H178647   5.806   6.737  16.153  1.2068  0.6793 -1.3450
19052TIP3    H278648   5.815   6.842  16.262  0.3817  0.0042 -0.6029
19053TIP3   OH278649   2.172   5.034  14.949  0.3376 -0.3714 -0.0319
19053TIP3    H178650   2.093   5.009  14.901  0.5562  1.0442 -1.1812
19053TIP3    H278651   2.242   4.987  14.905  0.4568  0.4075 -0.6714
19054TIP3   OH278652   3.836   6.416   0.814  0.4991  0.2388 -0.0015
19054TIP3    H178653   3.804   6.496   0.773  0.7156  0.0652 -0.5194
19054TIP3    H278654   3.761   6.356   0.814  0.6501  0.0394 -0.6740
19055TIP3   OH278655   0.931   1.517  13.299 -0.3357 -0.4086 -0.2997
19055TIP3    H178656   0.849   1.548  13.261 -0.4589 -0.2219  0.1098
19055TIP3    H278657   0.981   1.483  13.225 -0.4457  0.2209 -0.6622
19056TIP3   OH278658   2.934   5.693  15.035 -0.4681 -0.1609 -0.5838
19056TIP3    H178659   2.980   5.667  14.954  0.9348  0.4800 -0.0297
19056TIP3    H278660   2.975   5.641  15.103 -2.3530 -1.4651 -0.3667
19057TIP3   OH278661   6.085   5.812   3.487  0.0978 -0.0429  0.1533
19057TIP3    H178662   5.994   5.811   3.519 -0.1761 -0.3275 -0.6072
19057TIP3    H278663   6.137   5.831   3.564 -0.7516  2.0874  0.2833
19058TIP3   OH278664   2.311   6.734  11.650  0.1340  0.5369  0.5191
19058TIP3    H178665   2.373   6.767  11.586 -0.1358  0.3172  0.1394
19058TIP3    H278666   2.337   6.642  11.663  0.1972  0.5855  0.7325
19059TIP3   OH278667   5.759   3.988   1.402  0.6660 -0.2877 -0.2721
19059TIP3    H178668   5.746   3.969   1.309  0.8419 -0.0664 -0.3408
19059TIP3    H278669   5.697   4.058   1.421  1.9560  1.0132 -0.6818
19060TIP3   OH278670   6.547   1.895  13.962 -0.2722 -0.4284 -1.0021
19060TIP3    H178671   6.571   1.986  13.980 -0.0339 -0.6628 -0.1078
19060TIP3    H278672   6.604   1.869  13.890  2.0668 -0.8915  0.8997
19061TIP3   OH278673   0.829   1.003   1.671 -0.4552  0.0128 -0.1524
19061TIP3    H178674   0.904   1.063   1.675 -0.2432 -0.3117  1.4593
19061TIP3    H278675   0.861   0.928   1.621  0.2845 -0.1004  0.4778
19062TIP3   OH278676   3.966   3.480  14.037 -0.2612 -0.0840 -0.1305
19062TIP3    H178677   4.018   3.561  14.030  0.9884 -0.9830 -2.1497
19062TIP3    H278678   3.876   3.511  14.046  0.4047  1.5229  2.1405
19063TIP3   OH278679   6.681   0.643  15.110 -0.2996 -0.7423 -0.2782
19063TIP3    H178680   6.646   0.681  15.190  0.3441  0.1638 -0.4069
19063TIP3    H278681   6.776   0.650  15.120 -0.2137 -0.1291 -1.3336
19064TIP3   OH278682   0.436   0.383   1.387  0.5141 -0.1913  0.2220
19064TIP3    H178683   0.448   0.466   1.342  1.4594 -0.9070 -0.9237
19064TIP3    H278684   0.404   0.323   1.319  2.8952 -1.5515  0.1708
19065TIP3   OH278685   0.248   1.259  16.742 -0.1075  0.0675 -0.5989
19065TIP3    H178686   0.167   1.208  16.751  0.0467  0.1241  2.0506
19065TIP3    H278687   0.220   1.341  16.702 -0.8152 -0.9951 -2.4138
19066TIP3   OH278688   3.189   5.067  11.900 -0.6208  0.5648 -0.4579
19066TIP3    H178689   3.252   5.082  11.971 -0.1361  1.0757 -0.9786
19066TIP3    H278690   3.181   5.153  11.858 -1.0542  0.3117 -0.8946
19067TIP3   OH278691   0.909   2.200  13.135  0.2537 -0.1586  0.4436
19067TIP3    H178692   0.962   2.142  13.191 -0.3713 -1.6597 -0.4722
19067TIP3    H278693   0.973   2.254  13.090  0.8212  0.4066  1.8556
19068TIP3   OH278694   6.431   6.044  15.992 -0.8265  0.0144 -0.2589
19068TIP3    H178695   6.447   6.040  16.086 -0.6635 -1.1095 -0.3272
19068TIP3    H278696   6.518   6.047  15.953 -0.8325 -1.4832 -0.4380
19069TIP3   OH278697   5.566   1.921  16.738  0.2261 -0.3040 -0.3213
19069TIP3    H178698   5.531   1.837  16.769  2.1042 -1.3393 -0.8116
19069TIP3    H278699   5.530   1.931  16.650 -0.4814 -0.2904 -0.0342
19070TIP3   OH278700   0.431   3.804   1.288 -0.1903 -0.3397 -0.2506
19070TIP3    H178701   0.348   3.837   1.324  0.2684 -1.7447  2.2629
19070TIP3    H278702   0.414   3.711   1.271  1.5033 -1.3005  2.7100
19071TIP3   OH278703   3.511   6.808   5.768 -0.1089 -0.1632  0.0738
19071TIP3    H178704   3.508   6.843   5.857  0.4168  1.2500 -0.4458
19071TIP3    H278705   3.421   6.817   5.736 -0.3846 -1.0164  0.5680
19072TIP3   OH278706   0.804   4.676  11.634  0.2789 -0.0894  0.1455
19072TIP3    H178707   0.856   4.658  11.555 -1.8032 -1.3520 -1.0371
19072TIP3    H278708   0.730   4.616  11.628 -1.8136  2.2015  1.2693
19073TIP3   OH278709   2.355   5.015   1.869  0.1881 -0.0691  0.1578
19073TIP3    H178710   2.398   5.086   1.918 -0.2048  0.5049 -0.3054
19073TIP3    H278711   2.427   4.964   1.832  0.4815 -0.1695  0.8474
19074TIP3   OH278712   4.271   0.379  16.415  0.0228 -0.3160  0.5088
19074TIP3    H178713   4.234   0.292  16.397 -1.7551  0.0057  2.2184
19074TIP3    H278714   4.207   0.440  16.377  0.6876  0.2522  0.2878
19075TIP3   OH278715   2.090   1.136   4.763  0.4337  0.3590 -0.0705
19075TIP3    H178716   2.075   1.203   4.829  0.9073  1.0699 -0.6708
19075TIP3    H278717   2.020   1.149   4.699 -0.4605 -0.7956  0.6391
19076TIP3   OH278718   4.150   3.010   1.146  0.4538  0.1132  0.4316
19076TIP3    H178719   4.184   3.094   1.118  1.6445 -0.8633 -1.2404
19076TIP3    H278720   4.055   3.017   1.135  0.5204  1.3039  0.5628
19077TIP3   OH278721   4.667   4.772   4.433 -0.3138  0.4739 -0.4613
19077TIP3    H178722   4.642   4.828   4.507  0.9448 -0.2080  0.5078
19077TIP3    H278723   4.597   4.786   4.368 -0.9758  1.7598  0.4837
19078TIP3   OH278724   2.358   0.812   5.844 -0.3436 -0.0733 -0.4385
19078TIP3    H178725   2.291   0.821   5.911 -1.0259  0.4768 -1.1721
19078TIP3    H278726   2.361   0.719   5.824 -0.2163 -0.2229  0.2698
19079TIP3   OH278727   1.458   0.962   4.064 -0.4468 -0.3813  0.4325
19079TIP3    H178728   1.554   0.966   4.061 -0.4152 -1.3563 -0.1747
19079TIP3    H278729   1.430   1.017   3.990 -0.4074  0.7867  1.2464
19080TIP3   OH278730   0.240   4.458   3.980  1.0235 -0.0836 -0.2818
19080TIP3    H178731   0.230   4.484   3.889  2.4483  2.0855  0.0938
19080TIP3    H278732   0.177   4.387   3.992 -1.0186  1.2404 -2.2653
19081TIP3   OH278733   4.831   5.219  11.425 -0.1800  0.6038  0.0351
19081TIP3    H178734   4.898   5.254  11.483  0.8408 -2.2287  0.6978
19081TIP3    H278735   4.879   5.173  11.356 -1.4251  1.5097 -1.5125
19082TIP3   OH278736   2.012   5.760  12.312 -0.1657  0.2831 -0.1627
19082TIP3    H178737   2.102   5.765  12.280  0.0215  1.1077  0.4770
19082TIP3    H278738   1.983   5.851  12.321 -1.3176  0.0308 -1.0373
19083TIP3   OH278739   4.001   4.236  12.662  0.0059 -0.6372 -0.4580
19083TIP3    H178740   3.916   4.200  12.685 -0.6009  1.0742  0.1552
19083TIP3    H278741   4.063   4.165  12.679 -0.9379 -0.9493  2.2023
19084TIP3   OH278742   5.742   3.288   0.692  0.4286  0.0355 -0.3277
19084TIP3    H178743   5.800   3.315   0.764 -0.5820 -1.6426  1.2312
19084TIP3    H278744   5.796   3.230   0.639  0.4268 -0.9878  0.7384
19085TIP3   OH278745   2.915   0.581   2.836  0.0434 -0.0568 -0.1367
19085TIP3    H178746   2.882   0.669   2.819 -2.6031 -0.4444  2.1492
19085TIP3    H278747   2.910   0.572   2.931  0.9716 -2.4478 -0.2442
19086TIP3   OH278748   2.943   0.239  12.562 -0.1444 -0.0359  1.0544
19086TIP3    H178749   2.910   0.233  12.651  1.1033  1.1110  1.6313
19086TIP3    H278750   2.937   0.150  12.528  0.3706 -0.7221  2.6645
19087TIP3   OH278751   6.683   4.829  16.246  0.1245 -0.3395  0.4228
19087TIP3    H178752   6.633   4.830  16.165  1.3034 -0.5331 -0.3264
19087TIP3    H278753   6.760   4.775  16.227  1.1201  0.7253  1.2259
19088TIP3   OH278754   2.413   0.721   2.097 -0.3030  0.7657  0.5596
19088TIP3    H178755   2.442   0.763   2.016 -1.3240  2.4170  0.9870
19088TIP3    H278756   2.468   0.759   2.165 -0.6055  0.6942  0.8489
19089TIP3   OH278757   6.628   4.268  13.891 -0.2633 -0.0877 -0.1088
19089TIP3    H178758   6.715   4.294  13.919 -0.2655 -0.6511  0.4364
19089TIP3    H278759   6.629   4.278  13.796  0.0677  0.8706 -0.0114
19090TIP3   OH278760   5.856   0.470   6.576  0.3065  0.3533 -1.0070
19090TIP3    H178761   5.881   0.443   6.487  2.6000 -1.7689  0.1752
19090TIP3    H278762   5.904   0.411   6.634 -1.1334  1.6469  1.6915
19091TIP3   OH278763   3.135   3.436   3.746  0.3045  0.1730 -0.3177
19091TIP3    H178764   3.198   3.415   3.815  0.0691 -0.8630 -0.4116
19091TIP3    H278765   3.058   3.469   3.793  0.4650  0.2996 -0.1395
19092TIP3   OH278766   2.908   6.624  12.246  0.2197 -0.0918  0.1494
19092TIP3    H178767   2.842   6.642  12.313 -0.0062 -1.2979  0.2774
19092TIP3    H278768   2.863   6.641  12.163  0.4817  1.3452  0.2796
19093TIP3   OH278769   5.853   5.329   0.749 -0.5758  0.0835  0.3099
19093TIP3    H178770   5.894   5.413   0.729  1.8296 -0.4821  2.3512
19093TIP3    H278771   5.783   5.320   0.684  0.0638  2.9283 -0.9199
19094TIP3   OH278772   5.089   1.135   2.999  0.1461  0.3837  0.1224
19094TIP3    H178773   5.043   1.148   2.916 -1.4766  0.6525  1.0301
19094TIP3    H278774   5.135   1.217   3.015 -0.2010  0.6235 -0.1134
19095TIP3   OH278775   6.822   2.044  14.613  0.5305  0.2687 -0.0121
19095TIP3    H178776   6.859   2.069  14.698 -1.6595  2.3215  0.4420
19095TIP3    H278777   6.758   1.976  14.634 -2.0946  2.7305  0.5309
19096TIP3   OH278778   2.199   5.934  11.284  0.2267  0.1081  0.2455
19096TIP3    H178779   2.151   5.893  11.212  1.5690 -2.6130  0.7483
19096TIP3    H278780   2.175   6.026  11.280 -2.9377 -0.6384 -1.1085
19097TIP3   OH278781   2.842   5.025  15.294  0.8444  0.2079  0.1903
19097TIP3    H178782   2.839   5.054  15.385  1.4472  0.1538  0.2278
19097TIP3    H278783   2.927   5.054  15.262  1.1718 -0.8808  0.0245
19098TIP3   OH278784   2.862   6.595  14.690 -0.0902 -0.1588  0.5367
19098TIP3    H178785   2.841   6.574  14.781 -3.1199 -1.2542 -0.2925
19098TIP3    H278786   2.800   6.664  14.667  0.9130  0.3903 -0.6046
19099TIP3   OH278787   2.523   5.518  14.856  0.7638 -0.1781  0.3292
19099TIP3    H178788   2.543   5.496  14.947  1.4278 -0.9809  0.0001
19099TIP3    H278789   2.457   5.588  14.862 -0.9160 -1.7536  1.4390
19100TIP3   OH278790   0.748   4.247  12.300  0.3505  0.9522  0.4074
19100TIP3    H178791   0.683   4.286  12.241 -0.9513 -1.9470 -0.2775
19100TIP3    H278792   0.766   4.315  12.365 -1.6430  2.6728 -0.7193
19101TIP3   OH278793   6.403   3.061  11.799  0.1736 -0.4193  0.1974
19101TIP3    H178794   6.459   3.050  11.723 -0.2570  1.5532 -0.4688
19101TIP3    H278795   6.316   3.080  11.762 -0.5345 -1.5674  1.1990
19102TIP3   OH278796   2.353   0.871  13.882 -0.3362  0.0292 -0.5805
19102TIP3    H178797   2.341   0.962  13.852  0.8105 -0.1554 -1.6760
19102TIP3    H278798   2.292   0.821  13.829 -1.2482  0.1942  0.2953
19103TIP3   OH278799   4.551   0.535  14.832  0.4475 -0.0449  0.4893
19103TIP3    H178800   4.616   0.533  14.761 -0.4139 -2.8177 -0.3654
19103TIP3    H278801   4.471   0.566  14.791  0.3768  0.0553  0.7010
19104TIP3   OH278802   3.246   4.141   3.287  0.0235 -0.4346  0.1312
19104TIP3    H178803   3.284   4.098   3.210  0.7507  2.1820 -1.0889
19104TIP3    H278804   3.223   4.229   3.256  1.1673  1.0336  3.1018
19105TIP3   OH278805   5.414   2.607   1.819  0.1443 -0.0451 -0.2083
19105TIP3    H178806   5.401   2.700   1.802  1.5791  0.5590  1.7186
19105TIP3    H278807   5.504   2.590   1.791 -0.2067 -0.9453 -0.8332
19106TIP3   OH278808   6.829   4.414   0.859 -0.3199 -0.0591  0.3460
19106TIP3    H178809   6.741   4.408   0.822  0.6931 -3.3507 -1.9233
19106TIP3    H278810   6.882   4.450   0.788  0.5043  0.0889  1.0234
19107TIP3   OH278811   6.503   0.768   3.228  0.8109  0.0195  0.2065
19107TIP3    H178812   6.455   0.695   3.189  0.2286  0.1727  0.6236
19107TIP3    H278813   6.436   0.832   3.250  1.4346  1.3332 -1.4818
19108TIP3   OH278814   4.365   4.350   2.470  0.3321 -0.2017 -0.0997
19108TIP3    H178815   4.423   4.306   2.408  0.0822 -0.7819  0.0672
19108TIP3    H278816   4.299   4.392   2.414  0.5068 -0.1341 -0.2577
19109TIP3   OH278817   5.712   5.840  12.988 -0.2518  0.0997 -0.7517
19109TIP3    H178818   5.729   5.746  12.977  0.8564  0.2966 -0.8178
19109TIP3    H278819   5.708   5.874  12.898  0.3041  0.2793 -0.7071
19110TIP3   OH278820   6.066   2.057   6.073  0.0045 -0.3107 -0.1000
19110TIP3    H178821   5.997   2.003   6.111 -0.3026 -0.3060 -0.6471
19110TIP3    H278822   6.119   1.997   6.020  0.8535 -0.4546  0.8760
19111TIP3   OH278823   0.736   4.364  15.526  0.3950 -0.2058  0.0337
19111TIP3    H178824   0.709   4.349  15.616  0.2283 -0.8847 -0.1259
19111TIP3    H278825   0.734   4.278  15.485  0.2743  0.1232 -0.6729
19112TIP3   OH278826   0.222   2.321  17.129  0.3906 -0.5301  0.3557
19112TIP3    H178827   0.243   2.307  17.221 -0.7805 -0.2290  0.6857
19112TIP3    H278828   0.210   2.232  17.094 -2.9544 -0.6507  1.4552
19113TIP3   OH278829   6.536   2.499   0.585  0.7315  0.3026  0.2024
19113TIP3    H178830   6.447   2.523   0.610  0.6096 -0.5184  0.5807
19113TIP3    H278831   6.526   2.457   0.499  0.7786  0.3451  0.1755
19114TIP3   OH278832   1.580   0.568  15.839  0.6621 -0.0801  0.0440
19114TIP3    H178833   1.553   0.496  15.783 -0.2194  0.7768 -0.6667
19114TIP3    H278834   1.674   0.579  15.820  0.5079 -0.1911 -0.8320
19115TIP3   OH278835   5.690   0.269  11.611  0.2786 -0.4114 -0.0633
19115TIP3    H178836   5.598   0.243  11.620  0.5491 -2.2865 -1.8810
19115TIP3    H278837   5.729   0.250  11.696 -0.4633 -2.3201 -0.1047
19116TIP3   OH278838   0.112   4.396   2.989  0.3724 -0.0339  0.6975
19116TIP3    H178839   0.068   4.444   2.918  0.8421  0.9105  1.0325
19116TIP3    H278840   0.160   4.463   3.037 -1.0220 -0.4348  2.7442
19117TIP3   OH278841   0.591   3.678   4.662  0.5173 -0.0805 -0.1862
19117TIP3    H178842   0.536   3.685   4.740 -0.5198  0.9893 -0.9781
19117TIP3    H278843   0.531   3.693   4.589  2.2186  3.9513 -1.0209
19118TIP3   OH278844   2.394   3.949   1.502 -0.3140 -0.1278 -0.1875
19118TIP3    H178845   2.396   3.868   1.553 -1.4499 -0.6105 -0.8609
19118TIP3    H278846   2.308   3.988   1.521 -1.1343 -0.7429 -2.2954
19119TIP3   OH278847   0.563   4.965   0.270 -0.0309 -0.1941  0.4822
19119TIP3    H178848   0.538   4.873   0.279  0.7445 -0.5480 -0.6651
19119TIP3    H278849   0.639   4.975   0.328 -1.0726  0.1755  1.8524
19120TIP3   OH278850   3.799   1.073   1.901 -0.4321 -0.1801 -0.3014
19120TIP3    H178851   3.790   1.003   1.837  0.3177 -0.9678  0.4244
19120TIP3    H278852   3.894   1.084   1.911 -0.4859  2.0362 -1.5549
19121TIP3   OH278853   3.018   4.868  12.763  0.2515 -0.3751 -0.6180
19121TIP3    H178854   2.989   4.876  12.854 -1.6350 -0.2652 -1.1761
19121TIP3    H278855   2.937   4.868  12.712  1.2935  1.5108 -2.4668
19122TIP3   OH278856   0.213   1.131  16.126 -0.4201 -0.8088 -0.2672
19122TIP3    H178857   0.215   1.226  16.112  0.5316 -0.8108 -0.2162
19122TIP3    H278858   0.263   1.094  16.053 -0.1058 -1.2036  0.1378
19123TIP3   OH278859   4.830   2.966   4.620  0.7967  0.0926  0.6926
19123TIP3    H178860   4.916   2.979   4.579  0.5071  0.7321  0.2667
19123TIP3    H278861   4.834   3.019   4.700  0.5767  0.6514  0.3409
19124TIP3   OH278862   2.727   2.460   3.058 -0.7325  0.2885  0.4112
19124TIP3    H178863   2.798   2.398   3.072 -1.2505 -0.1025  1.4138
19124TIP3    H278864   2.763   2.524   2.996  0.6723  0.3826  1.2806
19125TIP3   OH278865   1.033   1.995   0.481  0.7840  0.0738 -0.0243
19125TIP3    H178866   1.107   2.017   0.425  0.2147  0.6772 -0.5578
19125TIP3    H278867   0.989   2.079   0.496  0.8453 -0.0929  1.2210
19126TIP3   OH278868   0.179   5.338  15.088 -0.2776  0.0530  0.2242
19126TIP3    H178869   0.262   5.292  15.074 -1.4263 -1.9686 -0.4465
19126TIP3    H278870   0.123   5.273  15.130 -1.9561  0.8842 -0.6365
19127TIP3   OH278871   6.570   6.550  14.587 -0.3658 -0.4600 -0.6513
19127TIP3    H178872   6.599   6.467  14.549 -3.1996 -2.2335  0.7661
19127TIP3    H278873   6.621   6.559  14.667  0.6628 -0.2633 -1.3049
19128TIP3   OH278874   4.744   4.219  10.685  0.4808  0.1611 -0.2746
19128TIP3    H178875   4.832   4.244  10.657  0.5872  1.2064  0.9484
19128TIP3    H278876   4.711   4.294  10.733  0.0901 -1.3155  1.9148
19129TIP3   OH278877   0.810   3.447  12.316  0.1070  0.0935  0.1384
19129TIP3    H178878   0.715   3.438  12.322  0.1111 -0.0878 -0.0640
19129TIP3    H278879   0.839   3.372  12.264  0.3592  0.1577  0.1818
19130TIP3   OH278880   2.718   5.327   1.662 -0.2363 -0.0113  0.2852
19130TIP3    H178881   2.713   5.295   1.572  2.4461  2.1215 -0.7441
19130TIP3    H278882   2.769   5.261   1.708 -3.7709 -2.4535  1.0866
19131TIP3   OH278883   4.438   1.505   1.990  0.1213 -0.4362  0.1736
19131TIP3    H178884   4.495   1.572   1.953  0.8200 -1.0011  0.2030
19131TIP3    H278885   4.419   1.535   2.079  0.6358 -0.3910  0.2720
19132TIP3   OH278886   1.635   6.225   0.374 -0.1260  0.3897  0.0217
19132TIP3    H178887   1.693   6.228   0.298 -0.7884 -0.0025 -0.5177
19132TIP3    H278888   1.631   6.315   0.405  0.1869  0.5462 -0.3818
19133TIP3   OH278889   4.072   0.922   3.836  0.3511  0.4679 -0.0441
19133TIP3    H178890   4.080   0.899   3.743  0.3218  0.2139  0.0180
19133TIP3    H278891   4.155   0.896   3.875 -1.4851 -4.6727  1.1549
19134TIP3   OH278892   2.621   3.178   1.591 -0.2647  0.1300 -0.3194
19134TIP3    H178893   2.542   3.134   1.560 -0.7616 -0.0711  1.1403
19134TIP3    H278894   2.690   3.112   1.583 -0.3876  0.0630 -0.8917
19135TIP3   OH278895   6.755   5.185  16.032 -0.0608  0.1960  0.2839
19135TIP3    H178896   6.780   5.206  15.941  2.3241  0.5438  0.9584
19135TIP3    H278897   6.741   5.271  16.073 -1.1562  0.0382  0.2750
19136TIP3   OH278898   3.845   0.700  12.745 -0.3232 -0.5400 -0.1513
19136TIP3    H178899   3.811   0.611  12.752 -1.4087 -0.0994  0.3136
19136TIP3    H278900   3.830   0.725  12.654  0.0425 -0.8496 -0.2982
19137TIP3   OH278901   5.892   4.979   0.402 -0.0611  0.3357  0.4692
19137TIP3    H178902   5.874   5.021   0.486 -0.1537 -1.5516  1.4513
19137TIP3    H278903   5.950   4.906   0.424 -0.8896 -0.8076 -0.9474
19138TIP3   OH278904   2.795   0.057   0.629 -0.3045  0.8208 -0.1190
19138TIP3    H178905   2.759   0.127   0.573 -1.3397 -0.2580 -0.8575
19138TIP3    H278906   2.887   0.079   0.638 -0.2513  1.4201 -1.6956
19139TIP3   OH278907   3.496   4.047  12.058  0.3312  0.1274 -0.1901
19139TIP3    H178908   3.407   4.080  12.049  0.0330 -0.8849 -1.1724
19139TIP3    H278909   3.486   3.963  12.104  0.7473 -0.1013 -0.5107
19140TIP3   OH278910   1.321   1.413   5.060  0.5629  0.3338 -0.3336
19140TIP3    H178911   1.298   1.369   4.978  2.8186  0.3097 -1.0244
19140TIP3    H278912   1.391   1.360   5.097  0.6082  1.1768  0.8496
19141TIP3   OH278913   0.122   4.212  13.747  0.0555 -0.2099  0.0370
19141TIP3    H178914   0.187   4.198  13.816 -1.0364 -1.0516  0.9412
19141TIP3    H278915   0.168   4.262  13.680  1.9075 -1.5751  0.2104
19142TIP3   OH278916   4.090   1.231  15.841 -0.2272  0.2129 -0.6357
19142TIP3    H178917   4.010   1.213  15.791  1.0893  0.9542 -3.1725
19142TIP3    H278918   4.058   1.264  15.925 -2.5906  0.2059 -1.4392
19143TIP3   OH278919   4.322   3.665   3.191 -0.0878 -0.1931  0.0854
19143TIP3    H178920   4.310   3.606   3.265 -0.2388  0.6016  0.7128
19143TIP3    H278921   4.416   3.667   3.176  0.0042  0.1641  0.6976
19144TIP3   OH278922   3.144   6.547  16.556  0.3974 -0.1629 -0.4154
19144TIP3    H178923   3.101   6.631  16.578  0.6570 -0.0750 -0.2460
19144TIP3    H278924   3.189   6.522  16.636  0.1360 -0.5818 -0.3955
19145TIP3   OH278925   5.868   5.249  11.857 -0.2661 -0.1794  0.3440
19145TIP3    H178926   5.878   5.323  11.797  1.5103 -1.7312 -1.3919
19145TIP3    H278927   5.799   5.277  11.918 -1.7986  1.6861 -2.0633
19146TIP3   OH278928   5.850   0.679  14.872  0.6338 -0.1457 -0.2416
19146TIP3    H178929   5.841   0.645  14.961  0.3329 -1.5998 -0.7946
19146TIP3    H278930   5.809   0.765  14.875 -1.6208 -1.1631  0.4879
19147TIP3   OH278931   2.859   5.178   0.132  0.3818 -0.3020  0.4710
19147TIP3    H178932   2.945   5.164   0.091 -0.5154  2.1110 -2.6344
19147TIP3    H278933   2.798   5.129   0.078 -0.7588  2.3617 -0.8182
19148TIP3   OH278934   1.439   4.471   2.156 -0.1783  0.5411 -0.5347
19148TIP3    H178935   1.391   4.390   2.139 -1.6717  1.4604 -0.8548
19148TIP3    H278936   1.432   4.520   2.074  1.3178  0.7142 -0.5806
19149TIP3   OH278937   2.827   2.763  14.325 -0.4111  0.4896 -0.2411
19149TIP3    H178938   2.922   2.752  14.318 -0.3273 -0.2511  1.5527
19149TIP3    H278939   2.802   2.804  14.242  1.5273  1.1609 -0.5537
19150TIP3   OH278940   2.973   1.895   1.185 -0.2965 -0.4147  0.3786
19150TIP3    H178941   2.964   1.872   1.092  1.7339 -0.1522  0.0778
19150TIP3    H278942   3.050   1.847   1.214  0.8148  1.7333  1.1683
19151TIP3   OH278943   2.156   0.637   1.169 -0.4873  0.1922 -0.2310
19151TIP3    H178944   2.123   0.549   1.152  0.9785 -0.3948 -0.2558
19151TIP3    H278945   2.224   0.650   1.103  0.2632  0.7700  0.6236
19152TIP3   OH278946   5.521   5.631  16.953  0.3183 -0.2915 -0.2267
19152TIP3    H178947   5.440   5.671  16.921  1.5092  1.1024 -1.7126
19152TIP3    H278948   5.591   5.687  16.917  1.9489 -1.5747  0.7953
19153TIP3   OH278949   4.853   3.782   5.344  0.0921  0.9356  0.1412
19153TIP3    H178950   4.921   3.833   5.388  0.6017 -0.1591  0.6828
19153TIP3    H278951   4.777   3.787   5.402  0.6963 -0.3319  1.0813
19154TIP3   OH278952   1.322   0.059  14.749 -0.5388 -0.5609  0.0379
19154TIP3    H178953   1.334   0.087  14.659 -1.1070 -1.0208 -0.1919
19154TIP3    H278954   1.406   0.019  14.774 -0.6972 -1.3406 -0.6309
19155TIP3   OH278955   0.450   2.847   0.013 -0.4385 -0.4383 -0.1742
19155TIP3    H178956   0.355   2.853   0.022 -0.5897 -2.1918 -0.2376
19155TIP3    H278957   0.471   2.905  -0.060 -1.4205  0.1480 -0.0052
19156TIP3   OH278958   3.635   1.131   3.339 -0.7076 -0.2162 -0.1253
19156TIP3    H178959   3.634   1.218   3.377  0.8055 -0.8787  1.5330
19156TIP3    H278960   3.559   1.087   3.378  1.0100 -0.9955  2.5552
19157TIP3   OH278961   2.751   4.355   6.201 -0.2133  0.2524  1.3141
19157TIP3    H178962   2.747   4.321   6.290 -0.5097  0.4857  1.3939
19157TIP3    H278963   2.731   4.280   6.145  0.1088  0.0765  1.4393
19158TIP3   OH278964   1.065   5.533  14.000  0.4207 -0.0922  0.1247
19158TIP3    H178965   1.132   5.468  14.022 -1.5823 -2.7586 -1.0586
19158TIP3    H278966   1.061   5.533  13.905  0.1022  1.5535  0.1098
19159TIP3   OH278967   3.719   4.571   4.549 -0.3329 -0.1042  0.2892
19159TIP3    H178968   3.647   4.596   4.606  0.5290  1.0879  0.8948
19159TIP3    H278969   3.755   4.654   4.517 -0.5683 -0.7253 -1.7442
19160TIP3   OH278970   3.066   0.918  14.798  0.0099  0.7886  0.0767
19160TIP3    H178971   3.075   0.934  14.892  1.7783  1.1066 -0.1218
19160TIP3    H278972   3.138   0.966  14.758 -1.3601  1.5740 -1.5683
19161TIP3   OH278973   6.006   6.422  12.446 -0.7573  0.4738 -0.7812
19161TIP3    H178974   5.994   6.434  12.352 -0.3608  0.0503 -0.8904
19161TIP3    H278975   5.963   6.338  12.464 -1.7185  1.0306 -0.3995
19162TIP3   OH278976   0.578   1.756   2.485  0.2262  0.3129  0.2377
19162TIP3    H178977   0.566   1.841   2.443  0.0876 -0.0959 -0.5751
19162TIP3    H278978   0.493   1.735   2.522 -0.0185  0.0651 -0.4561
19163TIP3   OH278979   3.050   5.381  11.050 -0.0129  0.2918  0.6835
19163TIP3    H178980   3.066   5.399  10.957  2.0080 -1.7969  0.5435
19163TIP3    H278981   2.973   5.434  11.071 -0.1349  1.3601 -1.9863
19164TIP3   OH278982   3.861   1.965   5.123  0.0773 -0.0698  0.8658
19164TIP3    H178983   3.767   1.978   5.134  0.1713  0.1956  1.4014
19164TIP3    H278984   3.898   2.054   5.127  0.4517 -0.2477  1.7483
19165TIP3   OH278985   5.630   0.272  12.342  0.0283  0.0037  0.5684
19165TIP3    H178986   5.597   0.301  12.427 -0.7105  2.3142 -0.4282
19165TIP3    H278987   5.723   0.255  12.358  0.0469  0.9737  1.7372
19166TIP3   OH278988   1.127   2.579   4.568  0.6944  0.0000  0.5421
19166TIP3    H178989   1.123   2.671   4.543 -1.9620 -0.4383 -0.9734
19166TIP3    H278990   1.100   2.578   4.660 -1.2726  0.6093  0.0100
19167TIP3   OH278991   1.709   2.029  13.781 -0.4588  0.1410 -0.1667
19167TIP3    H178992   1.640   2.096  13.780 -0.7498 -0.1288  0.5987
19167TIP3    H278993   1.763   2.052  13.856 -1.2061 -1.0859  0.7977
19168TIP3   OH278994   2.753   2.623  13.448  0.2257  0.3148  0.6980
19168TIP3    H178995   2.739   2.636  13.354  0.4811 -3.5969 -0.0594
19168TIP3    H278996   2.666   2.631  13.486 -0.3731 -0.7842 -0.3542
19169TIP3   OH278997   3.214   4.962   4.038  0.5180 -0.5192 -0.3179
19169TIP3    H178998   3.205   5.046   3.991  0.9106  1.5251  2.9569
19169TIP3    H278999   3.287   4.918   3.994 -0.5654  0.1394 -2.9971
19170TIP3   OH279000   0.232   3.960  13.940 -0.3167  0.3962 -0.2764
19170TIP3    H179001   0.175   4.002  14.005 -1.7588 -1.0834 -0.5408
19170TIP3    H279002   0.310   3.936  13.990 -1.2493 -0.3819  0.8553
19171TIP3   OH279003   4.492   2.763  16.279  0.5819 -0.3504 -0.1044
19171TIP3    H179004   4.424   2.747  16.213  0.9586 -1.8161 -0.1741
19171TIP3    H279005   4.478   2.854  16.306 -1.0415 -0.4392 -0.5256
19172TIP3   OH279006   3.110   1.666  14.385  0.1128 -0.1559  0.3013
19172TIP3    H179007   3.189   1.693  14.339 -0.6738 -0.3514 -1.2533
19172TIP3    H279008   3.060   1.747  14.398 -0.0024 -0.1997  0.1349
19173TIP3   OH279009   1.129   0.341   2.902 -0.0724 -0.4135 -0.0556
19173TIP3    H179010   1.133   0.271   2.967  1.1676 -0.7815 -0.5016
19173TIP3    H279011   1.090   0.300   2.825 -4.5670  0.7662  1.2738
19174TIP3   OH279012   0.047   2.357   4.999  0.3630  0.5024 -0.0684
19174TIP3    H179013   0.083   2.445   4.988  0.0191  0.7151  0.4631
19174TIP3    H279014   0.046   2.343   5.094  0.0331  0.0946 -0.1289
19175TIP3   OH279015   2.689   0.490  13.159  0.1298  0.1359  0.6376
19175TIP3    H179016   2.707   0.465  13.249 -1.3747  1.7019  1.4388
19175TIP3    H279017   2.626   0.424  13.128  0.1355 -0.0240  0.9638
19176TIP3   OH279018   6.305   2.162  16.256  0.1325  0.1728 -0.3788
19176TIP3    H179019   6.279   2.250  16.284  0.4571 -0.1375  0.9986
19176TIP3    H279020   6.289   2.107  16.333 -0.2024 -1.0114 -1.2619
19177TIP3   OH279021   1.646   0.538  12.557  0.0400 -0.1590  0.0766
19177TIP3    H179022   1.621   0.554  12.648 -0.8992  0.7288 -0.3154
19177TIP3    H279023   1.570   0.565  12.506  1.3051  1.4436 -1.0966
19178TIP3   OH279024   2.836   4.174  12.657 -0.0543  0.0303 -0.0936
19178TIP3    H179025   2.776   4.133  12.596 -1.1240 -4.0844  3.2750
19178TIP3    H279026   2.787   4.247  12.695  0.4857  2.3919 -3.3991
19179TIP3   OH279027   5.930   0.175   2.856 -0.4295  0.0221  0.6285
19179TIP3    H179028   5.904   0.181   2.764  0.1663 -0.4909  0.4180
19179TIP3    H279029   5.864   0.117   2.895 -1.1587  0.8926  0.7189
19180TIP3   OH279030   4.272   6.001  14.748 -0.3580  0.0428 -0.2622
19180TIP3    H179031   4.236   6.078  14.704  0.6273 -0.6807 -2.5070
19180TIP3    H279032   4.352   6.032  14.790 -2.1090  1.0958  2.5843
19181TIP3   OH279033   2.609   4.740  10.805  0.0476  0.0432 -0.3663
19181TIP3    H179034   2.598   4.748  10.710 -0.4220 -0.4374 -0.3544
19181TIP3    H279035   2.699   4.713  10.816  0.9333  2.6026 -0.5414
19182TIP3   OH279036   1.327   1.832   0.001  0.5206  0.2290 -0.0864
19182TIP3    H179037   1.256   1.768   0.011  1.8843 -1.2684  0.5141
19182TIP3    H279038   1.284   1.911  -0.030 -1.2416 -1.0086 -0.9698
19183TIP3   OH279039   5.808   2.257  10.872  0.3498  0.0191  0.4531
19183TIP3    H179040   5.836   2.305  10.795  1.5647  0.4802  1.1525
19183TIP3    H279041   5.825   2.165  10.850  0.1196  0.0955 -0.0501
19184TIP3   OH279042   2.789   0.149   1.580 -0.2642  0.1893 -0.6369
19184TIP3    H179043   2.842   0.080   1.620 -1.3533 -1.3558 -1.6996
19184TIP3    H279044   2.727   0.175   1.648  0.3575  0.3537 -0.1260
19185TIP3   OH279045   4.190   6.362  16.114  0.4678  0.0212 -0.0638
19185TIP3    H179046   4.149   6.388  16.197  1.7235  2.5271 -0.1233
19185TIP3    H279047   4.123   6.381  16.048 -1.1787 -3.5461  0.3627
19186TIP3   OH279048   5.330   6.387  17.223 -0.0675  0.6938  0.0427
19186TIP3    H179049   5.397   6.429  17.276  0.7290  0.2241 -0.5765
19186TIP3    H279050   5.265   6.355  17.287 -0.6244  2.6776  0.5434
19187TIP3   OH279051   4.008   1.328   2.447  0.2475  0.1484  0.2839
19187TIP3    H179052   3.980   1.420   2.444  0.5117  0.2467  0.7225
19187TIP3    H279053   3.997   1.303   2.539 -0.8176 -0.5794 -0.0294
19188TIP3   OH279054   6.733   1.310  16.117  0.0913 -0.0855  0.2969
19188TIP3    H179055   6.683   1.255  16.056 -3.6172  2.3955  0.7409
19188TIP3    H279056   6.732   1.261  16.200 -0.3579 -0.7556 -0.0993
19189TIP3   OH279057   2.848   3.977  14.244 -0.7237 -0.3919  0.0217
19189TIP3    H179058   2.824   3.887  14.225 -0.8705 -0.2786 -0.3540
19189TIP3    H279059   2.767   4.027  14.231 -0.1993  0.0847 -1.8953
19190TIP3   OH279060   5.269   3.773  11.921 -0.4517 -0.4086 -0.4632
19190TIP3    H179061   5.221   3.690  11.929  1.2984 -1.3589  0.7183
19190TIP3    H279062   5.335   3.757  11.855 -0.1812  0.0985 -0.3210
19191TIP3   OH279063   5.950   1.848   2.986  0.3483 -0.2256  0.0080
19191TIP3    H179064   5.854   1.848   2.994  0.2059 -0.6788 -1.4560
19191TIP3    H279065   5.980   1.815   3.071 -0.7103  1.3624  1.0547
19192TIP3   OH279066   2.808   1.025   3.609  0.2209 -0.2053  0.9797
19192TIP3    H179067   2.762   1.106   3.586  0.1535 -0.6246 -0.4139
19192TIP3    H279068   2.879   1.053   3.666 -0.5477  0.6884  1.5277
19193TIP3   OH279069   5.232   1.318  11.185 -0.3837 -0.1446 -0.3874
19193TIP3    H179070   5.322   1.346  11.168 -0.5476  1.3338  0.9957
19193TIP3    H279071   5.191   1.317  11.098  0.2850  1.7029 -0.7707
19194TIP3   OH279072   6.688   5.936   5.977 -0.1595 -0.0465  0.1186
19194TIP3    H179073   6.772   5.975   5.955 -0.0097 -0.3471  0.1446
19194TIP3    H279074   6.710   5.847   6.005 -0.4915 -0.1462  0.0654
19195TIP3   OH279075   4.152   3.665  15.471 -0.0327  0.3620 -0.3978
19195TIP3    H179076   4.168   3.759  15.478  1.1864  0.2536 -1.4465
19195TIP3    H279077   4.058   3.655  15.490  0.3523  1.4054  2.6992
19196TIP3   OH279078   2.876   1.862   4.296  0.1303  0.6820 -0.1307
19196TIP3    H179079   2.845   1.772   4.285  0.2854  0.6779 -0.5716
19196TIP3    H279080   2.965   1.852   4.331 -0.3486  0.6940  1.1388
19197TIP3   OH279081   6.469   0.171  13.225 -0.2050  1.0093 -0.3056
19197TIP3    H179082   6.498   0.216  13.146 -1.6179  0.4331 -1.1852
19197TIP3    H279083   6.375   0.159  13.213  0.0303 -1.9455 -0.0129
19198TIP3   OH279084   4.799   1.776  11.242  0.8297 -0.2320 -0.0712
19198TIP3    H179085   4.823   1.800  11.152  1.8934  0.9188  0.4754
19198TIP3    H279086   4.878   1.735  11.278  0.3789 -0.7818  0.3085
19199TIP3   OH279087   2.115   3.586   5.541 -0.2810  0.2907  0.0310
19199TIP3    H179088   2.038   3.531   5.549 -0.0565  0.0161  0.3252
19199TIP3    H279089   2.122   3.605   5.448 -0.5635  0.1187 -0.0253
19200TIP3   OH279090   4.888   0.055   0.243  0.0769  0.6007  0.1019
19200TIP3    H179091   4.856  -0.013   0.302 -0.9857  1.4550  0.5355
19200TIP3    H279092   4.893   0.012   0.158  3.3575 -1.1940  1.0101
19201TIP3   OH279093   3.181   1.802  14.661 -0.9697 -0.0705 -0.1774
19201TIP3    H179094   3.128   1.804  14.741 -0.5408  1.2051  0.1119
19201TIP3    H279095   3.174   1.891  14.626  1.0607  0.1981 -0.0367
19202TIP3   OH279096   0.159   2.831  15.961  0.3878  0.0387 -0.9272
19202TIP3    H179097   0.219   2.810  15.889 -0.2232  1.8300 -2.0340
19202TIP3    H279098   0.080   2.780  15.942  0.5695 -0.2221 -0.9878
19203TIP3   OH279099   2.379   4.447   5.877 -0.4377  0.1675 -0.0331
19203TIP3    H179100   2.298   4.403   5.850 -1.0845  0.0551  1.9825
19203TIP3    H279101   2.376   4.448   5.972  0.9770  1.9840  0.0454
19204TIP3   OH279102   5.859   5.449   0.310  0.1566  0.4852  0.7257
19204TIP3    H179103   5.763   5.445   0.304 -0.0427  2.6056  1.4294
19204TIP3    H279104   5.886   5.491   0.228  0.6998 -1.6416 -0.2520
19205TIP3   OH279105   6.432   6.109   3.187  0.7176 -0.0514  0.2311
19205TIP3    H179106   6.337   6.109   3.184  0.6904  1.5408  0.6025
19205TIP3    H279107   6.459   6.180   3.129  1.6269  0.5079  1.3067
19206TIP3   OH279108   3.861   5.437   4.840  0.0332  0.2429 -0.8718
19206TIP3    H179109   3.905   5.514   4.878 -1.7118  1.4102 -1.1195
19206TIP3    H279110   3.799   5.474   4.777 -0.3148 -1.4348 -1.5561
19207TIP3   OH279111   3.095   1.141  16.766  0.0090 -0.1073  0.8838
19207TIP3    H179112   3.083   1.071  16.702 -0.4847  0.9143 -0.1836
19207TIP3    H279113   3.136   1.099  16.841 -1.7341 -1.8672  0.9146
19208TIP3   OH279114   5.881   1.716  13.758  0.3249 -0.0063  0.7512
19208TIP3    H179115   5.838   1.631  13.759 -0.7549  0.5287  1.6640
19208TIP3    H279116   5.839   1.763  13.686 -0.7359  0.5608  1.7220
19209TIP3   OH279117   1.264   0.136  13.630  0.5038 -0.0379 -0.4068
19209TIP3    H179118   1.235   0.078  13.700 -1.6700 -0.1844 -1.3585
19209TIP3    H279119   1.353   0.162  13.656  1.0196 -2.6423  0.7406
19210TIP3   OH279120   6.532   0.915   1.267 -0.9138  0.2262  1.2676
19210TIP3    H179121   6.522   1.009   1.280 -0.0786  0.4390  0.5003
19210TIP3    H279122   6.447   0.885   1.235 -0.5420  1.1469 -0.7249
19211TIP3   OH279123   0.086   3.770   1.301  0.2732 -0.6356 -0.0516
19211TIP3    H179124   0.022   3.801   1.237 -1.8202 -2.3342  1.0834
19211TIP3    H279125   0.135   3.849   1.326 -2.4576  1.1414  0.1672
19212TIP3   OH279126   5.391   2.080  14.825 -0.3009 -0.0539  0.1985
19212TIP3    H179127   5.403   2.172  14.845 -1.1964  0.3023 -0.7876
19212TIP3    H279128   5.475   2.039  14.846  0.3578  1.1130 -0.0616
19213TIP3   OH279129   0.594   2.495  14.507 -0.2063 -0.9329 -0.5563
19213TIP3    H179130   0.667   2.514  14.448  0.4677  1.4211  0.8809
19213TIP3    H279131   0.633   2.443  14.577  0.6996  1.8738  1.1918
19214TIP3   OH279132   1.462   2.854  14.996  0.9148  0.5605  0.2565
19214TIP3    H179133   1.454   2.798  14.919  2.7182  1.1668 -0.4044
19214TIP3    H279134   1.412   2.932  14.974 -0.0912 -0.0102  0.4541
19215TIP3   OH279135   3.189   2.467   0.595  0.0118 -0.0990  0.3567
19215TIP3    H179136   3.229   2.479   0.509 -0.2915 -0.2591  0.1940
19215TIP3    H279137   3.096   2.480   0.581 -0.0327 -0.0666  0.6728
19216TIP3   OH279138   0.985   0.045   2.097  0.4067  0.7749 -0.1841
19216TIP3    H179139   0.914  -0.019   2.098 -0.0314  1.2328  1.2362
19216TIP3    H279140   0.970   0.097   2.019 -1.5520  1.6100  0.6758
19217TIP3   OH279141   5.321   1.838  10.618 -0.0245  0.5673  0.1060
19217TIP3    H179142   5.292   1.750  10.595  0.0394  0.7542 -0.7223
19217TIP3    H279143   5.263   1.897  10.570 -0.2284  0.9920  0.8479
19218TIP3   OH279144   4.863   5.535  13.396  0.0961  0.4699  0.7465
19218TIP3    H179145   4.945   5.486  13.407 -1.1404 -1.7417  0.6487
19218TIP3    H279146   4.880   5.593  13.321  1.8080  0.6610  1.2311
19219TIP3   OH279147   5.642   5.187  11.587  0.0813 -0.0828  0.4716
19219TIP3    H179148   5.645   5.186  11.492  1.7125 -0.6914  0.4935
19219TIP3    H279149   5.665   5.277  11.611 -1.7361  0.4514  0.2917
19220TIP3   OH279150   3.464   3.580  12.303  0.3504  0.2844  0.1562
19220TIP3    H179151   3.546   3.629  12.304  0.8401 -0.5305  0.4313
19220TIP3    H279152   3.396   3.648  12.301  1.0264  0.9666 -0.6846
19221TIP3   OH279153   5.146   4.944   1.946 -0.6091  0.1339  0.5072
19221TIP3    H179154   5.117   5.033   1.968  0.0178  0.1328  1.3974
19221TIP3    H279155   5.065   4.892   1.947 -0.6622  0.1762  2.7164
19222TIP3   OH279156   4.809   5.927   2.354  0.4168  0.2478  0.5071
19222TIP3    H179157   4.811   5.874   2.274 -0.0171  0.5631  0.2836
19222TIP3    H279158   4.855   5.873   2.419 -0.9199 -0.8856  0.5657
19223TIP3   OH279159   2.867   4.520  14.810  0.3534  0.0333 -0.4122
19223TIP3    H179160   2.889   4.521  14.717  0.4967  0.6847 -0.3739
19223TIP3    H279161   2.802   4.590  14.820  0.2145 -0.1445 -0.0512
19224TIP3   OH279162   0.325   3.309  15.049 -0.5687  0.2517  0.0885
19224TIP3    H179163   0.336   3.390  15.000  0.1984 -0.3059 -0.6939
19224TIP3    H279164   0.399   3.307  15.109  0.7601 -0.9407 -1.4886
19225TIP3   OH279165   3.593   4.333  16.728 -0.1740 -0.3155 -0.0627
19225TIP3    H179166   3.547   4.315  16.810  0.4769 -2.2687 -0.0753
19225TIP3    H279167   3.679   4.364  16.755  0.2845 -1.6149  0.0366
19226TIP3   OH279168   5.562   6.603  14.034 -0.0711  0.4382 -0.0541
19226TIP3    H179169   5.476   6.623  14.070  0.2085  1.6798 -0.0317
19226TIP3    H279170   5.620   6.670  14.070  1.4663 -1.8088  1.9383
19227TIP3   OH279171   5.016   0.056   4.102  0.5075  0.4781 -0.0034
19227TIP3    H179172   4.942   0.006   4.067  0.3179  0.7372  0.0215
19227TIP3    H279173   5.088  -0.006   4.106  1.3840  1.0550 -3.4976
19228TIP3   OH279174   1.413   6.481   0.036  0.3036  0.0378 -0.1271
19228TIP3    H179175   1.393   6.388   0.024 -0.0112 -0.0566  0.9976
19228TIP3    H279176   1.506   6.483   0.055  0.1146 -0.1701  0.8897
19229TIP3   OH279177   2.510   5.273  12.179  0.0194 -0.3364  0.0368
19229TIP3    H179178   2.427   5.245  12.141 -0.7540  0.3403  1.1654
19229TIP3    H279179   2.574   5.208  12.149 -0.8800 -0.7877 -0.9577
19230TIP3   OH279180   6.140   1.085  14.537 -0.5383  0.2511 -0.6551
19230TIP3    H179181   6.183   1.031  14.470 -1.1936 -0.1480 -0.7631
19230TIP3    H279182   6.202   1.087  14.610 -2.2136 -4.5089  1.2744
19231TIP3   OH279183   2.685   1.943   3.379  0.0158  0.3813  0.5627
19231TIP3    H179184   2.676   1.996   3.458  1.6176  0.9780  0.3774
19231TIP3    H279185   2.759   1.982   3.332 -1.3838  0.5531 -1.6319
19232TIP3   OH279186   3.354   3.049  12.741 -0.4098  0.1866 -0.3741
19232TIP3    H179187   3.300   3.127  12.754 -1.3295 -0.4581 -0.2738
19232TIP3    H279188   3.309   2.980  12.790  1.2397 -0.0691  0.8536
19233TIP3   OH279189   4.499   4.070   3.582  0.1490  0.5904 -0.0331
19233TIP3    H179190   4.488   4.000   3.645 -1.0627  1.0442  0.2934
19233TIP3    H279191   4.583   4.109   3.603 -0.0036  0.3974  0.9673
19234TIP3   OH279192   2.797   2.040   6.516  0.2049  0.2761  0.1625
19234TIP3    H179193   2.798   2.090   6.598 -0.6988 -0.4114  0.6277
19234TIP3    H279194   2.780   2.105   6.448 -1.1918  0.6099  0.7809
19235TIP3   OH279195   1.592   2.425   4.322  0.4364 -0.0156  0.2657
19235TIP3    H179196   1.660   2.474   4.367  0.7354 -0.1603 -0.0302
19235TIP3    H279197   1.511   2.447   4.369  0.6475  0.3563  0.4524
19236TIP3   OH279198   3.139   2.724  13.484 -0.3389  0.1247  0.5563
19236TIP3    H179199   3.176   2.642  13.518  0.3478  0.1628 -0.0636
19236TIP3    H279200   3.189   2.741  13.404 -1.7438  0.1630 -0.3425
19237TIP3   OH279201   2.437   0.017   3.547  0.2182  0.6520 -0.1957
19237TIP3    H179202   2.445   0.066   3.466 -0.2482  0.4272 -0.3827
19237TIP3    H279203   2.379  -0.056   3.525  0.6621  0.1851  0.1536
19238TIP3   OH279204   4.146   0.657  11.637  0.1190 -0.0459 -0.3590
19238TIP3    H179205   4.240   0.672  11.648  0.2525  0.1565 -1.6656
19238TIP3    H279206   4.116   0.630  11.724  1.5383 -0.9362 -0.1093
19239TIP3   OH279207   2.341   0.433  12.542  0.4544  0.3566  0.0784
19239TIP3    H179208   2.304   0.417  12.629  0.7128  0.4524  0.2068
19239TIP3    H279209   2.418   0.488  12.558  0.4895  0.3948 -0.2124
19240TIP3   OH279210   0.992   0.111   3.212 -0.2082 -0.0351  0.3148
19240TIP3    H179211   1.083   0.107   3.181  0.0008  1.3699  0.6977
19240TIP3    H279212   0.997   0.078   3.302 -0.2694 -0.9433  0.0012
19241TIP3   OH279213   6.062   4.281   5.098  0.6033  0.1673 -0.3839
19241TIP3    H179214   6.033   4.318   5.182 -0.2318  0.1035 -0.6378
19241TIP3    H279215   6.127   4.215   5.122 -0.5194 -0.7204  0.3045
19242TIP3   OH279216   5.198   1.729   3.336  0.1205 -0.2892 -0.0339
19242TIP3    H179217   5.179   1.684   3.419 -0.9107  0.2556  0.0424
19242TIP3    H279218   5.293   1.743   3.338 -0.1386  1.8570  2.2059
19243TIP3   OH279219   6.625   0.836  11.778 -0.1863 -0.5413 -0.1372
19243TIP3    H179220   6.660   0.755  11.815  1.1395 -0.1086 -0.3788
19243TIP3    H279221   6.700   0.878  11.736 -1.1740  0.0880 -1.3400
19244TIP3   OH279222   1.843   6.796   2.396  0.1045 -0.2910  0.5480
19244TIP3    H179223   1.845   6.857   2.322 -0.0847 -0.1641  0.6434
19244TIP3    H279224   1.754   6.806   2.432  0.3378 -0.0208  1.0619
19245TIP3   OH279225   4.312   0.661  15.941 -0.1727 -0.3438  0.2389
19245TIP3    H179226   4.255   0.585  15.940  0.1666 -0.6007 -0.5239
19245TIP3    H279227   4.385   0.636  15.997 -0.6154 -0.1499  0.9164
19246TIP3   OH279228   3.910   3.147   4.255 -0.2595  0.2910  0.6588
19246TIP3    H179229   3.961   3.212   4.303 -0.5998  1.2539 -0.2443
19246TIP3    H279230   3.819   3.168   4.275 -0.3967  0.5734 -0.2240
19247TIP3   OH279231   1.030   5.173  14.204 -0.5173  0.2197 -0.0359
19247TIP3    H179232   0.938   5.153  14.224 -0.7605  0.5453 -0.7986
19247TIP3    H279233   1.070   5.190  14.289 -1.1996  0.2077  0.2923
19248TIP3   OH279234   2.554   6.225  14.209 -0.1364 -0.1114  0.1750
19248TIP3    H179235   2.553   6.290  14.139 -0.7218  0.0038  0.2792
19248TIP3    H279236   2.532   6.143  14.166 -1.3737  0.1091  0.3473
19249TIP3   OH279237   0.624   0.236   0.981  0.2148  0.2479  0.1426
19249TIP3    H179238   0.537   0.255   0.947  0.1114 -0.0986  0.2033
19249TIP3    H279239   0.668   0.190   0.910  0.5608  0.9547 -0.1092
19250TIP3   OH279240   5.746   3.391  13.810 -0.1783  0.3247 -0.5166
19250TIP3    H179241   5.842   3.386  13.816 -0.1490 -0.3157 -1.3782
19250TIP3    H279242   5.717   3.393  13.902  0.6559  0.5624 -0.2486
19251TIP3   OH279243   2.314   0.090   4.459 -0.2238  0.6266  0.0185
19251TIP3    H179244   2.299  -0.005   4.459 -0.1949  0.6220 -0.1552
19251TIP3    H279245   2.235   0.127   4.500 -0.7690  0.6139 -0.9997
19252TIP3   OH279246   0.826   1.904   1.180 -0.0691 -0.3302 -0.1792
19252TIP3    H179247   0.764   1.901   1.107 -0.4484 -1.0953  0.1532
19252TIP3    H279248   0.893   1.965   1.153 -1.7592  1.7546  0.0605
19253TIP3   OH279249   2.525   2.406   5.818  0.2565  0.4548  0.2372
19253TIP3    H179250   2.616   2.405   5.848 -0.0392  0.0202  1.1475
19253TIP3    H279251   2.508   2.498   5.796  1.2614  0.3588 -1.0805
19254TIP3   OH279252   5.135   4.633  12.277 -0.7759 -0.2862 -0.4789
19254TIP3    H179253   5.191   4.587  12.340 -0.1560  1.8814  0.6750
19254TIP3    H279254   5.054   4.650  12.324 -0.0207  2.0358  0.0993
19255TIP3   OH279255   4.078   4.667   3.179  0.6583  0.9559 -0.4817
19255TIP3    H179256   4.007   4.722   3.145 -2.3322 -2.0445  0.3562
19255TIP3    H279257   4.068   4.670   3.274  0.2204 -1.1071 -0.4086
19256TIP3   OH279258   2.324   6.595   1.406  0.5204  0.1066 -1.0680
19256TIP3    H179259   2.385   6.656   1.447  1.2433 -1.3499  0.1201
19256TIP3    H279260   2.259   6.577   1.473  2.0274 -2.7367 -0.1870
19257TIP3   OH279261   3.721   4.276  17.033 -0.3913 -0.6379  0.1670
19257TIP3    H179262   3.639   4.232  17.012 -2.4995  2.6878  0.7814
19257TIP3    H279263   3.711   4.304  17.124  0.5302  1.6221 -0.3710
19258TIP3   OH279264   5.873   3.063  13.991 -0.3509 -0.0396  0.2113
19258TIP3    H179265   5.893   2.995  13.927  1.2149 -0.2696  0.8944
19258TIP3    H279266   5.777   3.064  13.997 -0.4554 -3.6731  1.6935
19259TIP3   OH279267   4.806   4.483  13.583 -0.2717  0.3800  0.2141
19259TIP3    H179268   4.869   4.522  13.644 -0.6644  1.1018  0.1686
19259TIP3    H279269   4.853   4.477  13.501 -0.2958  1.0677  0.1390
19260TIP3   OH279270   0.027   0.818   0.457  0.4857  0.2170 -0.5987
19260TIP3    H179271  -0.062   0.797   0.485  0.0441 -0.3550 -2.2720
19260TIP3    H279272   0.051   0.745   0.400  1.6654  0.8356 -0.9136
19261TIP3   OH279273   0.235   6.812  10.882 -0.3308  0.5145 -0.3017
19261TIP3    H179274   0.219   6.802  10.788  2.4961 -1.1275 -0.7194
19261TIP3    H279275   0.186   6.741  10.923  1.5944 -1.3468 -1.0317
19262TIP3   OH279276   4.539   0.515   4.753 -0.3998 -0.2163  0.4033
19262TIP3    H179277   4.575   0.577   4.690 -0.4308 -0.9104 -0.3115
19262TIP3    H279278   4.614   0.463   4.781 -0.3919  0.0713  0.9224
19263TIP3   OH279279   0.404   0.350   2.692  0.0678  0.4844 -0.6509
19263TIP3    H179280   0.344   0.325   2.623  0.7236 -0.3657 -0.9389
19263TIP3    H279281   0.451   0.269   2.714  0.6364  0.9744  0.0175
19264TIP3   OH279282   1.396   3.427   1.405 -0.0984  0.8540 -0.3001
19264TIP3    H179283   1.457   3.501   1.407 -0.5175  1.1905  1.1334
19264TIP3    H279284   1.433   3.364   1.468 -0.9748  0.8791  0.2563
19265TIP3   OH279285   2.002   2.671   4.087  0.2046 -0.4465  0.3945
19265TIP3    H179286   1.988   2.750   4.138  1.6606  1.5032 -1.9513
19265TIP3    H279287   1.986   2.599   4.148 -1.3891  1.6165  2.5890
19266TIP3   OH279288   6.133   1.229   5.147  0.1264  0.4903 -0.1664
19266TIP3    H179289   6.133   1.138   5.176  1.3796  1.1387  2.1497
19266TIP3    H279290   6.186   1.229   5.067  0.1411 -0.7937 -0.1678
19267TIP3   OH279291   4.184   5.161   2.107  0.0034 -0.2408 -0.2794
19267TIP3    H179292   4.158   5.248   2.136 -1.0626 -0.6286 -0.0210
19267TIP3    H279293   4.192   5.109   2.187 -0.2123 -0.5965 -0.4825
19268TIP3   OH279294   3.960   3.332   1.286 -0.2209 -0.7795 -0.4153
19268TIP3    H179295   4.041   3.316   1.237 -0.3221 -0.8800 -0.5519
19268TIP3    H279296   3.971   3.419   1.324  0.1139 -0.9506 -0.1137
19269TIP3   OH279297   1.859   5.495  11.079 -0.0490  0.0876  0.4646
19269TIP3    H179298   1.916   5.526  11.149 -0.7838 -0.7207  1.4588
19269TIP3    H279299   1.803   5.429  11.121 -1.5343  0.6495 -0.5275
19270TIP3   OH279300   0.519   2.191   4.106 -0.9165  0.4326  0.2695
19270TIP3    H179301   0.594   2.244   4.077  0.2580 -0.9040  0.7328
19270TIP3    H279302   0.469   2.250   4.162  0.0772  1.2149  0.3829
19271TIP3   OH279303   2.531   4.575   1.558 -0.0022 -0.1446 -0.3583
19271TIP3    H179304   2.490   4.506   1.505  1.1124  0.0403 -1.5177
19271TIP3    H279305   2.464   4.643   1.565  0.5423  0.9380 -3.7042
19272TIP3   OH279306   3.712   4.160  14.113  0.3599 -0.3986 -0.3795
19272TIP3    H179307   3.690   4.253  14.107 -0.3525 -0.5387  0.0052
19272TIP3    H279308   3.645   4.123  14.170  0.2521 -1.2770 -1.0503
19273TIP3   OH279309   4.524   3.187  13.202 -0.3649 -0.2842  0.3473
19273TIP3    H179310   4.456   3.248  13.230  0.4239  1.3935 -1.1838
19273TIP3    H279311   4.500   3.104  13.243 -2.9494  0.4010  0.4135
19274TIP3   OH279312   4.602   1.305   1.388 -0.1190  0.1871 -0.5127
19274TIP3    H179313   4.690   1.326   1.420  1.2817 -0.0603 -3.7868
19274TIP3    H279314   4.574   1.230   1.441  1.4707  0.5049  0.8409
19275TIP3   OH279315   3.416   5.999   4.794 -0.4029 -0.2647 -0.4838
19275TIP3    H179316   3.401   6.088   4.759 -0.1527 -0.2529 -0.5632
19275TIP3    H279317   3.497   5.971   4.752 -1.2129 -1.0858 -1.5484
19276TIP3   OH279318   4.387   2.297   5.593 -0.0551  0.5453 -0.4732
19276TIP3    H179319   4.460   2.357   5.583 -0.5210  1.5492  1.6386
19276TIP3    H279320   4.427   2.213   5.615  0.5847  0.0698 -3.1152
19277TIP3   OH279321   1.319   0.774   0.953 -0.1552  0.4248 -0.2140
19277TIP3    H179322   1.403   0.818   0.940 -0.3312  1.0650  0.7573
19277TIP3    H279323   1.299   0.735   0.868  0.9666  0.5338 -0.5427
19278TIP3   OH279324   1.273   0.583   5.957 -0.2952  0.9345  0.6704
19278TIP3    H179325   1.185   0.553   5.977 -0.0396 -0.1339  0.2914
19278TIP3    H279326   1.299   0.531   5.881  1.1049  0.3259  1.5125
19279TIP3   OH279327   2.280   1.500  16.514 -0.0186 -0.0305 -0.1037
19279TIP3    H179328   2.306   1.452  16.593 -0.1836 -1.2597 -0.7811
19279TIP3    H279329   2.206   1.554  16.542 -0.2841 -0.6939  0.5087
19280TIP3   OH279330   0.910   2.839   1.421 -0.2333 -0.2287 -0.5113
19280TIP3    H179331   0.925   2.883   1.338  0.9042 -1.3990 -0.9710
19280TIP3    H279332   0.959   2.757   1.414 -1.3945 -1.0775  0.7050
19281TIP3   OH279333   0.666   5.915  12.867  0.2759 -0.0558  0.1536
19281TIP3    H179334   0.725   5.856  12.821  2.3508  0.1651  2.3355
19281TIP3    H279335   0.635   5.865  12.942 -1.1058  0.3895 -0.0752
19282TIP3   OH279336   3.633   0.298   2.847  0.1124  0.2513  0.2697
19282TIP3    H179337   3.570   0.315   2.918  1.3193  0.4693  1.3261
19282TIP3    H279338   3.614   0.366   2.782  1.5494  2.6247  2.1707
19283TIP3   OH279339   1.368   1.408  11.396 -0.2446  0.6907  0.8699
19283TIP3    H179340   1.302   1.417  11.327  1.0203  1.5800 -0.2699
19283TIP3    H279341   1.451   1.430  11.354  0.9311 -1.1996  2.0466
19284TIP3   OH279342   0.258   2.414   1.580  0.7483 -0.5812  0.4231
19284TIP3    H179343   0.173   2.373   1.591  0.0759  0.7275  0.2586
19284TIP3    H279344   0.310   2.383   1.655 -0.6723  0.5660  1.9640
19285TIP3   OH279345   1.629   2.750   3.827 -0.3749  0.1323 -0.0630
19285TIP3    H179346   1.690   2.823   3.825 -1.6082  1.1954 -0.4593
19285TIP3    H279347   1.571   2.764   3.752 -0.3068 -1.5694 -0.4742
19286TIP3   OH279348   1.251   2.369  12.731 -0.5731 -0.1385 -0.3763
19286TIP3    H179349   1.208   2.349  12.648  1.1736  1.4461 -1.7374
19286TIP3    H279350   1.251   2.464  12.736  1.2318 -0.1434  0.3787
19287TIP3   OH279351   4.540   6.002  12.994 -0.0829  0.4423  0.1797
19287TIP3    H179352   4.633   6.000  13.015 -0.0350  0.4167 -0.0385
19287TIP3    H279353   4.536   5.996  12.899 -0.2773  1.2513  0.1298
19288TIP3   OH279354   4.171   3.042   2.500 -0.3548  0.2266 -0.0744
19288TIP3    H179355   4.081   3.068   2.518 -0.9280 -0.9929 -0.9817
19288TIP3    H279356   4.181   3.053   2.405  0.8720  1.5246  0.1701
19289TIP3   OH279357   5.016   6.240   3.263 -0.1126  0.1546 -0.1483
19289TIP3    H179358   4.963   6.301   3.314 -0.2800  0.1763 -0.3475
19289TIP3    H279359   5.000   6.264   3.172 -0.8018 -0.6960 -0.2658
19290TIP3   OH279360   0.107   3.143  13.596  0.5611  0.1034  0.1873
19290TIP3    H179361   0.017   3.109  13.588 -0.4868  2.5219  0.6943
19290TIP3    H279362   0.146   3.092  13.666  0.2867 -2.2907 -1.3034
19291TIP3   OH279363   3.783   2.750   0.818 -0.3994 -0.6650  0.1006
19291TIP3    H179364   3.799   2.809   0.744  1.2408 -0.4014  0.6109
19291TIP3    H279365   3.726   2.799   0.876  1.8285  0.9804  1.0501
19292TIP3   OH279366   2.775   4.266  16.765 -0.2186  0.1489 -0.7325
19292TIP3    H179367   2.789   4.295  16.675 -0.4209 -2.2423 -1.6056
19292TIP3    H279368   2.863   4.257  16.802 -0.1206  3.5082  0.2700
19293TIP3   OH279369   4.784   1.501  16.400  0.1822  0.3124  0.3767
19293TIP3    H179370   4.738   1.585  16.402  0.2433  0.3425  0.6920
19293TIP3    H279371   4.736   1.448  16.337  0.0424  0.5281  0.3018
19294TIP3   OH279372   5.483   5.705   5.783 -0.0828 -0.2714 -0.3140
19294TIP3    H179373   5.396   5.740   5.799  0.2240 -0.6060  2.4804
19294TIP3    H279374   5.542   5.764   5.830  1.0880 -0.7786 -1.0995
19295TIP3   OH279375   6.212   0.552  11.172  0.2584 -0.2533  0.1363
19295TIP3    H179376   6.236   0.640  11.201 -1.0075 -0.6298  2.6043
19295TIP3    H279377   6.137   0.565  11.114 -0.4888  0.2889  1.1913
19296TIP3   OH279378   1.477   5.207  14.896  0.4097 -0.4024  0.7220
19296TIP3    H179379   1.479   5.180  14.988  1.5085  1.2878  1.2467
19296TIP3    H279380   1.401   5.264  14.890 -0.4507 -1.5789  0.2314
19297TIP3   OH279381   1.794   3.437   1.848 -0.0121 -0.0733 -0.4668
19297TIP3    H179382   1.844   3.373   1.797 -1.4885 -2.1034  0.4973
19297TIP3    H279383   1.712   3.448   1.799  0.8463  2.4340 -1.4935
19298TIP3   OH279384   3.681   4.800  15.802  0.0213  0.0086 -0.2552
19298TIP3    H179385   3.710   4.714  15.773  0.7094 -0.2638  1.1553
19298TIP3    H279386   3.756   4.836  15.850 -0.2732  1.3744 -0.7765
19299TIP3   OH279387   1.148   4.401   3.765 -0.1965 -0.3109  0.0885
19299TIP3    H179388   1.062   4.440   3.749 -0.3392 -0.1980  1.0496
19299TIP3    H279389   1.189   4.397   3.679 -0.1649  1.9965 -0.0549
19300TIP3   OH279390   2.138   3.556   5.247  0.1714  0.5673  0.3489
19300TIP3    H179391   2.198   3.483   5.234  1.7490  1.7400  0.5738
19300TIP3    H279392   2.142   3.605   5.165 -0.8951  0.3865  0.1852
19301TIP3   OH279393   1.232   2.933  16.933 -0.4599  0.2851  0.2055
19301TIP3    H179394   1.200   2.848  16.903  0.6751 -0.4473  0.9563
19301TIP3    H279395   1.256   2.980  16.853  0.4521 -0.7627 -0.1549
19302TIP3   OH279396   6.647   4.379   4.780  0.1289  0.7308  0.1456
19302TIP3    H179397   6.560   4.418   4.776  0.0764  0.6445  0.4179
19302TIP3    H279398   6.659   4.357   4.873 -0.5448 -1.5008 -0.2393
19303TIP3   OH279399   0.199   4.281   5.371  0.3073 -0.3745 -0.1423
19303TIP3    H179400   0.258   4.225   5.321  0.5851 -0.4606  0.2836
19303TIP3    H279401   0.255   4.325   5.435 -0.2475 -1.3945  1.1074
19304TIP3   OH279402   6.281   0.654   0.552 -0.0187  0.3621  0.0984
19304TIP3    H179403   6.257   0.650   0.459  0.3033 -0.5552  0.0529
19304TIP3    H279404   6.293   0.748   0.569 -0.7887  0.5975 -0.5981
19305TIP3   OH279405   6.430   6.774   4.964 -0.0676 -0.1059  0.5171
19305TIP3    H179406   6.381   6.832   5.022  0.2562  0.1989  0.4867
19305TIP3    H279407   6.393   6.687   4.980 -1.1201  0.2274 -0.0352
19306TIP3   OH279408   4.176   4.528  16.425  0.2615  0.1368  0.3938
19306TIP3    H179409   4.163   4.611  16.379  1.1216 -0.9013 -1.8873
19306TIP3    H279410   4.091   4.483  16.418  0.5022 -0.1944 -0.6531
19307TIP3   OH279411   6.223   1.052  15.020 -0.3852  0.0571  0.2709
19307TIP3    H179412   6.214   0.970  15.069  0.3751 -0.2882 -0.1498
19307TIP3    H279413   6.233   1.119  15.087  1.2782 -0.4926  0.6124
19308TIP3   OH279414   1.566   2.356  11.876 -0.2761 -0.5222  0.0938
19308TIP3    H179415   1.614   2.333  11.956  1.4626  1.4902 -0.2830
19308TIP3    H279416   1.572   2.278  11.822  3.0138 -0.2835 -0.0743
19309TIP3   OH279417   2.162   6.157  15.842 -0.5004  0.1680  0.0013
19309TIP3    H179418   2.171   6.066  15.869 -1.0850  0.0182 -0.3021
19309TIP3    H279419   2.081   6.159  15.792 -1.4508  1.2046  1.4893
19310TIP3   OH279420   2.268   6.566  14.081 -0.6332 -0.3457 -0.3544
19310TIP3    H179421   2.178   6.588  14.059 -0.7296 -1.3030 -1.0017
19310TIP3    H279422   2.284   6.483  14.036  0.1748 -0.8201  0.7567
19311TIP3   OH279423   0.938   3.356  14.857  0.3072  0.0255 -0.1004
19311TIP3    H179424   0.847   3.337  14.879  0.5380 -0.1228  0.7694
19311TIP3    H279425   0.933   3.404  14.774 -0.4769 -0.9944 -0.6653
19312TIP3   OH279426   1.701   6.381  16.865  0.3025 -0.2633  0.3283
19312TIP3    H179427   1.667   6.424  16.943  1.8749 -1.7373  1.8990
19312TIP3    H279428   1.633   6.318  16.841 -0.0358 -0.0517  0.7065
19313TIP3   OH279429   4.711   5.014  12.369  0.5875 -0.0311  0.2916
19313TIP3    H179430   4.669   5.047  12.448 -0.0552 -0.2550  0.0536
19313TIP3    H279431   4.675   5.069  12.299  1.8513  0.7808  0.2482
19314TIP3   OH279432   6.115   3.650  11.523  0.3518 -0.5605 -0.8992
19314TIP3    H179433   6.080   3.633  11.436 -0.1550 -0.4968 -0.7131
19314TIP3    H279434   6.040   3.684  11.573  0.5951 -0.7448 -0.3963
19315TIP3   OH279435   4.192   3.838  11.434  0.0527  0.1909  0.1632
19315TIP3    H179436   4.133   3.883  11.495  1.9559  0.2119  2.1066
19315TIP3    H279437   4.147   3.758  11.411 -1.6154  1.1554 -0.0845
19316TIP3   OH279438   6.158   1.907  15.923 -0.2288 -0.5425  0.1866
19316TIP3    H179439   6.143   1.850  15.999  1.2310 -2.7033 -1.0594
19316TIP3    H279440   6.085   1.888  15.865  1.2006 -2.7109 -1.0487
19317TIP3   OH279441   5.070   2.691   5.706 -0.6078  0.3656 -0.6166
19317TIP3    H179442   5.000   2.666   5.646 -1.6904  0.8925  0.3855
19317TIP3    H279443   5.043   2.656   5.791  0.4522  0.4040 -0.2454
19318TIP3   OH279444   1.158   0.211  11.160 -0.1836  0.2462  0.2404
19318TIP3    H179445   1.204   0.247  11.236 -1.0902 -0.2446  1.0485
19318TIP3    H279446   1.069   0.243  11.169 -0.6864 -1.0936  0.2570
19319TIP3   OH279447   1.431   4.710  13.011  0.4077 -0.2728  0.0040
19319TIP3    H179448   1.357   4.650  13.020  0.2662 -0.0662  0.2026
19319TIP3    H279449   1.421   4.773  13.082  2.8252 -2.4101  2.4767
19320TIP3   OH279450   0.097   5.215   2.196  0.2407 -0.1458  0.1509
19320TIP3    H179451   0.105   5.144   2.132 -0.5299  0.1554 -0.2853
19320TIP3    H279452   0.176   5.208   2.249 -0.3627 -2.0663  0.8692
19321TIP3   OH279453   1.912   3.377   2.379 -0.3818  0.2050 -0.3109
19321TIP3    H179454   1.959   3.321   2.318 -1.5940 -0.1288 -0.9651
19321TIP3    H279455   1.922   3.334   2.464  1.6066  0.8538 -0.1691
19322TIP3   OH279456   1.924   3.188   3.883  0.2017 -0.2090  0.0393
19322TIP3    H179457   1.860   3.229   3.825  0.2617  0.8802  0.7281
19322TIP3    H279458   1.984   3.258   3.907  0.2419 -0.6539  1.3350
19323TIP3   OH279459   5.411   5.328  16.409 -0.2321  0.0558 -0.7013
19323TIP3    H179460   5.324   5.287  16.403 -0.2342  0.0690 -0.7657
19323TIP3    H279461   5.453   5.306  16.326 -0.8746  1.6632 -1.4973
19324TIP3   OH279462   3.908   4.905   2.180 -0.4953 -0.3163 -0.6143
19324TIP3    H179463   3.942   4.820   2.151 -2.4642 -1.0946 -0.8098
19324TIP3    H279464   3.819   4.907   2.146 -0.8913  1.3253  0.4363
19325TIP3   OH279465   1.960   6.005   1.715 -0.5575  0.2533 -0.6288
19325TIP3    H179466   1.910   6.021   1.795 -2.1680  0.9543 -1.7394
19325TIP3    H279467   1.976   6.093   1.679 -1.4963 -0.1405 -2.0426
19326TIP3   OH279468   5.271   1.345   5.356 -0.2110 -0.0142 -0.0717
19326TIP3    H179469   5.186   1.318   5.323  0.7230 -1.3057 -1.5942
19326TIP3    H279470   5.328   1.270   5.337  1.2689  0.8534  0.8188
19327TIP3   OH279471   2.691   5.598   1.973 -0.3288 -0.3341  0.0813
19327TIP3    H179472   2.667   5.613   2.064  2.4394 -2.0077  1.2177
19327TIP3    H279473   2.610   5.566   1.932 -1.4429 -0.3626  2.1482
19328TIP3   OH279474   5.075   1.957   4.281  0.4440  0.2515  0.6792
19328TIP3    H179475   5.047   1.866   4.287  2.1028 -0.3895 -0.5488
19328TIP3    H279476   4.994   2.006   4.269 -0.3930 -1.1844  0.1724
19329TIP3   OH279477   5.637   4.072  11.994 -0.6854  0.1157  0.5018
19329TIP3    H179478   5.685   4.117  12.064 -0.8587 -1.1692  1.4870
19329TIP3    H279479   5.568   4.134  11.970 -1.2599  0.2004  2.2048
19330TIP3   OH279480   3.522   6.179  15.405  0.1764 -0.2482  0.2514
19330TIP3    H179481   3.470   6.254  15.435  0.0048 -0.4102  0.3665
19330TIP3    H279482   3.613   6.208  15.414  0.1074  0.0097  0.1255
19331TIP3   OH279483   0.339   3.629  11.510 -0.3425  0.5374  0.0028
19331TIP3    H179484   0.402   3.673  11.566 -0.7161  1.5475 -0.3581
19331TIP3    H279485   0.270   3.600  11.571  0.1898 -0.1011  0.3195
19332TIP3   OH279486   0.302   0.030   0.574  0.1459 -0.2607 -0.5859
19332TIP3    H179487   0.231   0.081   0.535  1.3000  1.0108 -1.0927
19332TIP3    H279488   0.370   0.028   0.507  1.8910  1.3373  1.0337
19333TIP3   OH279489   5.869   5.460  13.107  0.4347  0.2747  0.2452
19333TIP3    H179490   5.800   5.396  13.120  0.3108  0.2159 -0.6317
19333TIP3    H279491   5.852   5.497  13.020  0.3084  1.7382  0.8548
19334TIP3   OH279492   1.701   5.343   6.188 -0.3106  0.0849  0.6206
19334TIP3    H179493   1.795   5.326   6.196 -0.4602 -0.6807  0.9218
19334TIP3    H279494   1.667   5.330   6.277 -1.1113 -2.5574  0.0310
19335TIP3   OH279495   4.546   3.678  12.966 -0.3290 -0.2014  0.0342
19335TIP3    H179496   4.574   3.763  12.933  0.9529  0.4087  2.4189
19335TIP3    H279497   4.625   3.623  12.960 -0.6006 -0.6263  0.2781
19336TIP3   OH279498   2.252   5.622  13.611  0.4414  0.6432 -0.0912
19336TIP3    H179499   2.162   5.608  13.640  1.2119  0.1194  2.2526
19336TIP3    H279500   2.258   5.576  13.527 -1.5256  0.9232 -0.4293
19337TIP3   OH279501   3.907   6.018   1.355 -0.0953  0.5697  0.5575
19337TIP3    H179502   3.891   6.098   1.305 -0.4320 -0.2572 -0.6865
19337TIP3    H279503   3.819   5.989   1.382  0.0118  0.5229  0.8631
19338TIP3   OH279504   1.276   0.371   2.053  0.4296  0.0527  0.0826
19338TIP3    H179505   1.198   0.426   2.058  1.1211  1.0568  0.1675
19338TIP3    H279506   1.307   0.381   1.963  0.7662  0.1003  0.2016
19339TIP3   OH279507   1.196   5.183   3.418 -0.1099 -0.0228  0.1620
19339TIP3    H179508   1.243   5.253   3.373 -1.0812  0.3114 -0.3588
19339TIP3    H279509   1.190   5.213   3.509  1.4847 -0.5067  0.4622
19340TIP3   OH279510   3.904   4.535  16.234  0.6850 -0.0578 -0.2387
19340TIP3    H179511   3.818   4.568  16.207  1.3481  0.0193 -2.4274
19340TIP3    H279512   3.952   4.612  16.263 -0.4256 -0.2907  2.5413
19341TIP3   OH279513   2.759   5.900   3.327  0.1820 -0.5686  0.0277
19341TIP3    H179514   2.817   5.971   3.301  0.4522 -0.7186  0.2178
19341TIP3    H279515   2.742   5.915   3.420 -0.0919 -0.5192 -0.0307
19342TIP3   OH279516   4.905   3.788  16.506  0.2141 -0.5493  0.1028
19342TIP3    H179517   4.936   3.868  16.547 -2.0718  0.1904  0.5264
19342TIP3    H279518   4.881   3.815  16.417  0.7017 -1.0824 -0.1977
19343TIP3   OH279519   4.328   6.167   4.703  0.1241  0.0275  0.3434
19343TIP3    H179520   4.311   6.090   4.648 -1.9689  0.5262  0.1810
19343TIP3    H279521   4.328   6.241   4.642 -0.2366  0.3786  0.7573
19344TIP3   OH279522   6.613   1.051  12.895  0.6217  0.6698 -1.1657
19344TIP3    H179523   6.604   0.964  12.934  0.4386  1.3843  0.4504
19344TIP3    H279524   6.548   1.053  12.825 -1.4134  0.4853  0.6299
19345TIP3   OH279525   0.944   5.457  16.832 -0.1920  0.0459  0.1112
19345TIP3    H179526   0.955   5.534  16.777 -0.9344 -0.2012 -0.4052
19345TIP3    H279527   0.923   5.492  16.919 -0.1747  0.4270 -0.0377
19346TIP3   OH279528   3.853   5.593   5.798  0.3004  0.0801 -0.3360
19346TIP3    H179529   3.898   5.556   5.873 -0.2668 -1.1956 -0.6068
19346TIP3    H279530   3.760   5.575   5.814  0.0822  0.6800 -0.8679
19347TIP3   OH279531   0.243   6.334  11.692  1.0291  0.3802  0.7758
19347TIP3    H179532   0.311   6.289  11.643  0.0947 -0.3908  0.1512
19347TIP3    H279533   0.255   6.305  11.783  1.0887 -0.3333  0.5466
19348TIP3   OH279534   0.079   1.509  10.957 -0.5973  0.5017 -0.5323
19348TIP3    H179535   0.135   1.583  10.930 -0.9815  0.6583 -0.9120
19348TIP3    H279536   0.036   1.481  10.876 -0.0394 -0.5021 -0.4890
19349TIP3   OH279537   0.072   6.161   3.761 -0.1321 -0.0208 -0.6308
19349TIP3    H179538   0.069   6.068   3.739  0.7233  0.1097 -1.3693
19349TIP3    H279539   0.084   6.205   3.677  0.1832  0.7069 -0.2147
19350TIP3   OH279540   5.442   4.594  16.426 -0.3937 -0.3606  0.1005
19350TIP3    H179541   5.436   4.686  16.450  0.7479  0.1697 -1.5608
19350TIP3    H279542   5.422   4.591  16.333  0.1570 -1.7311 -0.0039
19351TIP3   OH279543   3.960   2.435   3.225 -0.4522  0.0287  0.7874
19351TIP3    H179544   3.997   2.521   3.205 -0.6249  0.1042  0.7942
19351TIP3    H279545   4.032   2.374   3.208 -0.2792  0.1878  0.9402
19352TIP3   OH279546   3.045   5.718  11.442  0.1507  0.0963  0.6361
19352TIP3    H179547   3.087   5.687  11.362 -0.9076 -0.0742  0.1293
19352TIP3    H279548   3.061   5.648  11.506 -0.7676 -0.7477 -0.0235
19353TIP3   OH279549   0.363   2.853  14.267 -0.7030  0.4863 -0.0698
19353TIP3    H179550   0.433   2.817  14.321 -0.8528 -1.6608 -1.1970
19353TIP3    H279551   0.302   2.893  14.330  0.4833  0.5550  1.0829
19354TIP3   OH279552   6.699   2.879  16.484 -0.1828  0.3777 -0.1211
19354TIP3    H179553   6.719   2.786  16.489  1.0822  0.6442 -0.0976
19354TIP3    H279554   6.724   2.914  16.569 -0.1496  0.8383 -0.3171
19355TIP3   OH279555   0.113   6.710   5.249  0.1057  0.5414 -0.2879
19355TIP3    H179556   0.086   6.670   5.332 -1.7504  0.5619 -0.8350
19355TIP3    H279557   0.208   6.702   5.248 -0.0114 -1.8221  0.6655
19356TIP3   OH279558   4.578   1.121   5.227 -0.7098  0.0203 -0.5453
19356TIP3    H179559   4.602   1.194   5.169  0.2747  0.3190  0.2180
19356TIP3    H279560   4.517   1.160   5.290 -1.5355 -0.2339 -1.1601
19357TIP3   OH279561   3.248   3.504  12.885 -0.3231  0.1127  0.4605
19357TIP3    H179562   3.344   3.503  12.894 -0.3510 -0.2376  0.7385
19357TIP3    H279563   3.217   3.456  12.961 -0.6484 -1.6076 -0.7127
19358TIP3   OH279564   6.497   3.277   2.852  0.0555  0.0791 -0.6566
19358TIP3    H179565   6.460   3.362   2.831  0.8013  0.4907 -0.3246
19358TIP3    H279566   6.553   3.256   2.778  0.2390  0.0935 -0.5223
19359TIP3   OH279567   2.671   4.413   5.300  0.5887  0.4004 -0.0622
19359TIP3    H179568   2.704   4.371   5.220 -1.2697 -0.1851 -0.5854
19359TIP3    H279569   2.601   4.471   5.269  0.1976  0.5689  1.0848
19360TIP3   OH279570   2.539   2.217   5.619  0.2606  0.6820 -0.6173
19360TIP3    H179571   2.525   2.255   5.706  0.8412  0.4620 -0.4198
19360TIP3    H279572   2.622   2.169   5.627  0.0565  0.2252 -1.1470
19361TIP3   OH279573   5.984   4.676  16.238  0.6173  0.3399  0.2609
19361TIP3    H179574   6.035   4.746  16.281  0.4677  1.4086 -1.2171
19361TIP3    H279575   6.032   4.596  16.258  2.1352  1.1573  0.0559
19362TIP3   OH279576   0.161   5.601   4.766  0.1669  0.1119 -0.2148
19362TIP3    H179577   0.096   5.671   4.768  0.5053  0.4262  0.0587
19362TIP3    H279578   0.244   5.645   4.785  0.1941 -0.5663  1.4052
19363TIP3   OH279579   6.488   4.659  13.513  0.1592 -0.5097  0.6503
19363TIP3    H179580   6.467   4.654  13.420  0.6813 -3.2997  0.5802
19363TIP3    H279581   6.507   4.568  13.537 -0.9552 -0.0255  3.7279
19364TIP3   OH279582   3.869   0.636   6.322 -0.6402  0.0025 -0.3111
19364TIP3    H179583   3.958   0.605   6.307 -0.6992  0.1243 -0.9056
19364TIP3    H279584   3.840   0.588   6.400  0.8567  1.8177  1.5076
19365TIP3   OH279585   5.734   4.363   5.016  0.5557 -0.3924 -0.1618
19365TIP3    H179586   5.782   4.330   5.091  2.4634  0.0519 -1.1153
19365TIP3    H279587   5.776   4.447   4.996 -0.4329 -0.1311 -1.2338
19366TIP3   OH279588   6.017   4.079   5.375  0.1288 -0.4508 -0.4637
19366TIP3    H179589   6.082   4.132   5.421 -0.2113  0.4337 -0.9632
19366TIP3    H279590   5.959   4.046   5.444 -0.8120  1.4671 -0.2769
19367TIP3   OH279591   1.411   3.552   4.739 -0.0676  0.2048  0.0660
19367TIP3    H179592   1.488   3.607   4.721 -0.1315 -0.0133 -0.9539
19367TIP3    H279593   1.384   3.521   4.653 -1.2963  0.2594  0.4171
19368TIP3   OH279594   6.803   3.344   1.392  0.0543  0.0415  0.4804
19368TIP3    H179595   6.835   3.409   1.330 -3.8079  0.0094 -1.8627
19368TIP3    H279596   6.880   3.290   1.412  1.7699  0.6079 -3.6230
19369TIP3   OH279597   4.456   1.092   4.639 -0.0500 -0.0509  0.3481
19369TIP3    H179598   4.368   1.094   4.676 -1.1125  0.7199 -2.0688
19369TIP3    H279599   4.507   1.148   4.698 -0.8498 -1.3860  2.4150
19370TIP3   OH279600   1.716   1.669  15.090 -0.0208  0.1607  0.2202
19370TIP3    H179601   1.699   1.692  15.181 -0.4594  3.9834 -0.6204
19370TIP3    H279602   1.630   1.671  15.048  0.2623 -0.8017 -0.4244
19371TIP3   OH279603   1.443   5.928   0.985 -0.4140  0.2995  0.3972
19371TIP3    H179604   1.506   5.861   1.014 -0.9341 -0.5227 -0.3255
19371TIP3    H279605   1.383   5.938   1.059 -1.4479 -1.4328 -0.1511
19372TIP3   OH279606   5.026   3.460   2.807 -0.0013 -0.8975  0.0872
19372TIP3    H179607   4.936   3.493   2.815  1.0619  2.1985  0.8178
19372TIP3    H279608   5.080   3.529   2.845  2.9462 -1.1955 -3.0172
19373TIP3   OH279609   1.128   6.094   5.425  0.3454  0.1488  0.0714
19373TIP3    H179610   1.196   6.052   5.479  0.8312  0.6634 -0.1344
19373TIP3    H279611   1.046   6.068   5.467  0.7124  0.4397  0.9952
19374TIP3   OH279612   4.524   0.128  15.920 -0.0463  0.4591  0.9103
19374TIP3    H179613   4.591   0.196  15.911  0.1251  0.4091  1.6656
19374TIP3    H279614   4.480   0.125  15.836  0.9229  0.4777  0.3874
19375TIP3   OH279615   6.432   5.971   4.483  0.4007  0.1449  0.3518
19375TIP3    H179616   6.420   6.066   4.485 -1.8677 -0.0272 -1.4303
19375TIP3    H279617   6.374   5.939   4.551  0.8315 -0.0034  0.6518
19376TIP3   OH279618   2.969   5.461   1.931 -0.3517  0.2219 -0.2181
19376TIP3    H179619   2.923   5.483   2.012 -0.2270  1.5602 -0.4754
19376TIP3    H279620   2.912   5.398   1.887 -0.7599  0.0209  0.5797
19377TIP3   OH279621   2.057   1.205  15.775 -0.1314  0.5307 -0.0592
19377TIP3    H179622   2.056   1.285  15.827 -0.8416 -0.3502  1.3348
19377TIP3    H279623   2.150   1.192  15.755  0.2389  0.6400  1.4330
19378TIP3   OH279624   3.534   2.183   2.203 -0.5143 -0.0396 -0.2284
19378TIP3    H179625   3.580   2.200   2.121 -2.5850  0.3037 -1.3993
19378TIP3    H279626   3.488   2.265   2.222 -1.9686 -0.8645 -0.0507
19379TIP3   OH279627   5.117   4.796  12.700 -0.2467 -0.5109 -0.2265
19379TIP3    H179628   5.036   4.750  12.721 -0.4537  0.1237  0.3743
19379TIP3    H279629   5.139   4.845  12.779  0.2765 -0.0252 -0.6608
19380TIP3   OH279630   1.303   2.617   2.063  0.1565 -0.2326  0.0189
19380TIP3    H179631   1.298   2.712   2.072 -0.5919 -0.2429 -0.2153
19380TIP3    H279632   1.392   2.601   2.030  0.5689  0.3112  0.8271
19381TIP3   OH279633   1.435   1.766   4.662 -0.1767 -0.5835 -0.6616
19381TIP3    H179634   1.421   1.810   4.746  0.5126 -2.1823  0.3489
19381TIP3    H279635   1.474   1.833   4.606  2.9189 -0.3725  1.4970
19382TIP3   OH279636   3.753   5.201   3.077  0.0223  0.2412 -0.3060
19382TIP3    H179637   3.817   5.196   3.148  2.2722  2.3911 -2.0078
19382TIP3    H279638   3.715   5.289   3.084 -0.3462  0.1741 -1.2524
19383TIP3   OH279639   1.541   6.478  15.603 -0.3029  0.0639 -0.1586
19383TIP3    H179640   1.529   6.399  15.552  0.0748  0.1513 -0.3836
19383TIP3    H279641   1.456   6.492  15.646 -0.2881 -0.6110  0.1024
19384TIP3   OH279642   0.126   5.800   1.162  0.1216 -0.1224  0.2344
19384TIP3    H179643   0.172   5.758   1.089  1.8519  0.1440  1.1137
19384TIP3    H279644   0.040   5.757   1.164  1.0062 -2.0426 -0.2857
19385TIP3   OH279645   0.591   3.526  13.768 -0.0399  0.3990 -0.2752
19385TIP3    H179646   0.662   3.549  13.829 -1.0589  0.0778  1.0988
19385TIP3    H279647   0.515   3.514  13.825 -0.9103 -0.4718 -1.5839
19386TIP3   OH279648   4.638   2.382  14.915 -0.0235 -0.6087 -0.0247
19386TIP3    H179649   4.564   2.422  14.960  0.3739 -0.8226  0.8372
19386TIP3    H279650   4.604   2.300  14.879 -0.2325 -0.6417  0.2538
19387TIP3   OH279651   0.642   5.593   2.751 -0.0853  0.0521  0.5755
19387TIP3    H179652   0.603   5.675   2.782 -1.2002 -0.7596  1.4239
19387TIP3    H279653   0.619   5.590   2.658  2.1549  1.8753 -0.1513
19388TIP3   OH279654   5.656   5.085   2.060  0.0367 -0.2122  0.0212
19388TIP3    H179655   5.749   5.099   2.074  0.1797 -0.6470 -0.4888
19388TIP3    H279656   5.650   5.045   1.974 -0.6032 -0.4135  0.1539
19389TIP3   OH279657   5.438   0.160   2.960 -0.0888  0.1678  0.0110
19389TIP3    H179658   5.428   0.235   2.901 -2.3701  0.7463  1.0483
19389TIP3    H279659   5.410   0.085   2.909 -1.4182  0.5731  0.1236
19390TIP3   OH279660   3.966   3.405  14.982  0.2902 -0.4453  0.2048
19390TIP3    H179661   3.965   3.500  14.966  0.9862 -0.5202 -0.3264
19390TIP3    H279662   4.012   3.369  14.906  0.4060 -1.1676  0.6174
19391TIP3   OH279663   2.435   4.630   5.494 -0.6702  0.0206  0.1864
19391TIP3    H179664   2.487   4.589   5.563 -0.4886 -0.4241 -0.2051
19391TIP3    H279665   2.396   4.707   5.535  1.3703  1.1432  0.1367
19392TIP3   OH279666   2.413   2.988   0.419  0.9465 -0.4702 -0.2631
19392TIP3    H179667   2.396   3.034   0.336 -0.3663 -0.0532  0.2159
19392TIP3    H279668   2.378   3.046   0.486  1.7242 -0.9486  0.5798
19393TIP3   OH279669   4.149   4.745  11.192 -0.7837 -0.2831 -0.2859
19393TIP3    H179670   4.169   4.652  11.179  1.3037  0.3166 -1.9396
19393TIP3    H279671   4.064   4.758  11.150 -0.1189 -1.0720 -1.9856
19394TIP3   OH279672   6.820   0.069  16.366  0.0766 -0.0545 -0.2106
19394TIP3    H179673   6.787   0.052  16.455  0.3342  0.6345  0.0286
19394TIP3    H279674   6.901   0.019  16.360 -1.8065 -3.2065 -1.4211
19395TIP3   OH279675   2.710   0.770   3.522 -0.5003 -0.2631  0.7489
19395TIP3    H179676   2.733   0.856   3.557  3.4514 -0.3051 -1.1838
19395TIP3    H279677   2.627   0.784   3.478 -0.0916  2.5723  0.6619
19396TIP3   OH279678   1.368   6.379   0.554  0.0063 -0.1114 -0.0670
19396TIP3    H179679   1.297   6.420   0.603 -0.4330 -1.2536  0.2852
19396TIP3    H279680   1.338   6.289   0.540  0.6483 -0.1414 -1.3838
19397TIP3   OH279681   5.678   6.792   4.386  0.1870 -0.0923 -0.5513
19397TIP3    H179682   5.735   6.758   4.317  0.5650 -2.2891  0.7768
19397TIP3    H279683   5.607   6.728   4.392 -0.5669  0.7894  0.2016
19398TIP3   OH279684   0.874   3.164   1.944 -0.2852 -0.2126  0.4503
19398TIP3    H179685   0.878   3.246   1.994  3.0924 -1.7056  2.9891
19398TIP3    H279686   0.945   3.172   1.880 -1.0848 -0.5090 -0.4975
19399TIP3   OH279687   2.487   2.947   3.237  0.4507  0.7888 -0.0998
19399TIP3    H179688   2.513   2.856   3.228  0.2334  0.8140 -1.1603
19399TIP3    H279689   2.569   2.996   3.236  0.5107  0.6821 -0.7229
19400TIP3   OH279690   5.123   2.916  12.342 -0.1939  0.3043  0.2669
19400TIP3    H179691   5.130   2.994  12.398 -0.3979  0.2787  0.3274
19400TIP3    H279692   5.040   2.877  12.366 -0.7390  0.8160 -0.7290
19401TIP3   OH279693   2.812   4.255  14.828 -0.2118 -0.7376  0.1002
19401TIP3    H179694   2.828   4.348  14.814 -1.5782 -0.6873 -1.4084
19401TIP3    H279695   2.717   4.248  14.837 -0.3659 -2.2028 -1.9914
19402TIP3   OH279696   2.973   5.414  11.535  0.2355 -0.3403 -0.5276
19402TIP3    H179697   3.023   5.387  11.612  0.6963  2.1190  0.1119
19402TIP3    H279698   3.009   5.360  11.464  0.8234 -1.6148  0.6756
19403TIP3   OH279699   5.127   2.182   0.217  0.0265 -0.0026 -0.0499
19403TIP3    H179700   5.064   2.241   0.257 -0.4912 -0.4779 -0.1556
19403TIP3    H279701   5.086   2.153   0.136 -0.7330 -2.2372  1.0354
19404TIP3   OH279702   3.604   1.866  10.559 -0.0570  0.1698  0.2757
19404TIP3    H179703   3.522   1.843  10.515 -0.9627  3.8143 -0.2371
19404TIP3    H279704   3.670   1.864  10.489 -0.4556  0.8781 -0.1218
19405TIP3   OH279705   1.844   5.411   5.634  0.3137 -0.2046  0.1825
19405TIP3    H179706   1.767   5.378   5.587 -1.0832  0.9208  1.5725
19405TIP3    H279707   1.895   5.332   5.654 -1.2998 -1.1914  0.6206
19406TIP3   OH279708   3.978   6.091  15.106 -0.0299 -1.0286  1.1072
19406TIP3    H179709   3.937   6.005  15.109  0.5718 -1.3562  0.2181
19406TIP3    H279710   3.955   6.127  15.020  0.2985 -0.5917  1.1938
19407TIP3   OH279711   2.523   6.261   3.632  0.1878  0.1282 -0.0882
19407TIP3    H179712   2.551   6.189   3.576  0.1144 -0.3327  0.4608
19407TIP3    H279713   2.428   6.258   3.629 -0.0552 -2.5277  3.2205
19408TIP3   OH279714   3.497   2.406   4.387 -0.0967  0.3983  0.2028
19408TIP3    H179715   3.458   2.463   4.320  0.2123 -1.0969 -1.3350
19408TIP3    H279716   3.485   2.318   4.352 -0.2474 -0.4731  2.3357
19409TIP3   OH279717   4.555   1.251   5.658 -0.3536 -0.1583 -0.7525
19409TIP3    H179718   4.542   1.326   5.714  1.3912  1.5436 -2.4576
19409TIP3    H279719   4.508   1.273   5.577  0.7291 -0.5676 -1.5121
19410TIP3   OH279720   6.333   4.235  11.739 -0.8254 -0.0161 -0.4271
19410TIP3    H179721   6.414   4.277  11.768 -0.4504 -0.3136 -1.0269
19410TIP3    H279722   6.361   4.175  11.670 -1.4949 -0.4830 -0.2970
19411TIP3   OH279723   1.504   5.428   4.113  0.4878  0.4124 -0.3735
19411TIP3    H179724   1.495   5.352   4.169  0.8339  0.5834 -0.0830
19411TIP3    H279725   1.555   5.397   4.038  0.5541  0.3376 -0.2970
19412TIP3   OH279726   2.439   0.606   1.474  0.1378  0.3159 -0.1520
19412TIP3    H179727   2.395   0.686   1.446  1.9959  2.9343  3.4837
19412TIP3    H279728   2.372   0.556   1.521 -0.1230  2.0221  1.4063
19413TIP3   OH279729   5.032   5.094   3.431  0.2387  0.2540 -0.2269
19413TIP3    H179730   5.067   5.132   3.351 -1.6341  1.2885 -0.6259
19413TIP3    H279731   4.939   5.117   3.430  0.1711  0.4458  2.3097
19414TIP3   OH279732   3.887   6.710   0.932 -0.1110 -0.0197 -0.0712
19414TIP3    H179733   3.933   6.770   0.872  1.2305 -1.0312 -0.1096
19414TIP3    H279734   3.824   6.665   0.877 -0.0493  0.2600 -0.3742
19415TIP3   OH279735   2.179   2.420   1.288 -0.7958  0.6986 -0.4562
19415TIP3    H179736   2.149   2.386   1.204  0.9013 -1.2993 -0.3375
19415TIP3    H279737   2.204   2.510   1.270 -0.4863  0.3147 -2.1022
19416TIP3   OH279738   3.672   6.379   6.405 -0.0156  0.0356  0.0968
19416TIP3    H179739   3.716   6.444   6.461  2.9196 -0.3185 -1.6179
19416TIP3    H279740   3.697   6.404   6.316  0.1543 -2.6713 -0.6894
19417TIP3   OH279741   4.658   5.937   5.568 -0.0099  0.1058  0.3715
19417TIP3    H179742   4.734   5.927   5.626  0.4078  1.1003  0.0090
19417TIP3    H279743   4.583   5.936   5.627  0.3730  0.5267  0.8823
19418TIP3   OH279744   6.098   2.590  15.784  0.1831  0.1490 -0.1266
19418TIP3    H179745   6.130   2.562  15.870 -1.2329 -0.2716  0.3004
19418TIP3    H279746   6.176   2.615  15.736  1.0549 -0.1058  1.1115
19419TIP3   OH279747   5.626   0.237   6.468  0.2356  0.0033  0.2579
19419TIP3    H179748   5.682   0.299   6.514  1.3077  1.0447 -2.2274
19419TIP3    H279749   5.688   0.180   6.421 -0.6943  0.5810 -1.8024
19420TIP3   OH279750   0.467   2.309   3.098 -0.3645 -0.6890  0.3379
19420TIP3    H179751   0.532   2.379   3.086 -0.7369 -0.1767  1.2169
19420TIP3    H279752   0.401   2.326   3.030  1.0681 -2.0385 -1.4988
19421TIP3   OH279753   5.714   5.830   4.602  0.2026  0.1728  0.4274
19421TIP3    H179754   5.781   5.770   4.568  0.0838 -0.1925  0.8236
19421TIP3    H279755   5.673   5.866   4.523  0.6867  0.2020  0.1814
19422TIP3   OH279756   3.447   5.393  14.992 -0.0390 -0.0274 -0.4037
19422TIP3    H179757   3.483   5.304  14.982 -0.9765 -0.5639  0.8215
19422TIP3    H279758   3.497   5.431  15.064 -2.2354 -0.9999  1.7335
19423TIP3   OH279759   2.054   3.760   0.789  0.4370 -0.5229 -0.4445
19423TIP3    H179760   2.037   3.826   0.722 -1.5343  1.0043  1.4080
19423TIP3    H279761   2.121   3.798   0.845  0.0497 -0.5166  0.0280
19424TIP3   OH279762   3.384   0.460   4.904  0.1426  0.4664  0.1495
19424TIP3    H179763   3.467   0.423   4.934 -0.3696 -2.2816 -1.4712
19424TIP3    H279764   3.324   0.444   4.977 -0.0416 -2.0464 -0.4663
19425TIP3   OH279765   0.216   4.857   4.849  0.1402 -0.0557  0.1902
19425TIP3    H179766   0.127   4.829   4.831  0.0660 -0.6819  1.3661
19425TIP3    H279767   0.238   4.814   4.932  1.6570 -0.2062 -0.2537
19426TIP3   OH279768   2.094   5.041   1.196 -0.1788  0.7175 -0.4591
19426TIP3    H179769   2.114   5.105   1.264  1.9097  2.3204 -2.4754
19426TIP3    H279770   2.069   5.092   1.120  0.0910 -0.9331 -1.7161
19427TIP3   OH279771   5.019   4.767  14.524 -0.1324  0.1608 -0.2663
19427TIP3    H179772   5.101   4.719  14.534  0.2353  0.3170 -2.1740
19427TIP3    H279773   4.961   4.705  14.479 -1.0355  0.1014  0.9384
19428TIP3   OH279774   0.677   5.946  15.296 -0.1467  0.3821  0.1602
19428TIP3    H179775   0.596   5.933  15.247  0.0233 -1.4502  0.2804
19428TIP3    H279776   0.744   5.956  15.228  0.1793 -2.7318 -0.1336
19429TIP3   OH279777   2.434   6.675   2.768  0.3812  0.3645 -0.0249
19429TIP3    H179778   2.514   6.695   2.719  0.5997 -0.5281 -0.0618
19429TIP3    H279779   2.364   6.682   2.704  0.4007  1.3213  0.0465
19430TIP3   OH279780   3.725   1.957   0.878 -0.8683 -0.6351  0.1331
19430TIP3    H179781   3.684   1.970   0.964 -1.7027 -2.2679  0.0232
19430TIP3    H279782   3.721   2.044   0.837 -1.2227 -0.0184  1.4092
19431TIP3   OH279783   2.583   4.715  17.140  0.2922 -0.3354 -0.0557
19431TIP3    H179784   2.527   4.638  17.133  0.3536 -0.4573  0.7449
19431TIP3    H279785   2.612   4.731  17.050  2.1141 -2.6016  0.0531
19432TIP3   OH279786   3.529   4.097  15.994 -0.3210  0.3669 -0.1136
19432TIP3    H179787   3.553   4.131  16.081  0.2330  1.3672 -0.6431
19432TIP3    H279788   3.590   4.026  15.978 -0.4807  0.1199  0.3479
19433TIP3   OH279789   1.382   3.162  10.430 -0.1557 -0.4910 -0.8534
19433TIP3    H179790   1.458   3.217  10.450  0.1280 -0.8403 -0.9482
19433TIP3    H279791   1.310   3.223  10.418 -0.2007 -0.2288  0.5968
19434TIP3   OH279792   6.623   3.826   2.574  0.3109  0.1869 -0.8284
19434TIP3    H179793   6.571   3.890   2.623  0.2285  0.0326 -0.7155
19434TIP3    H279794   6.692   3.799   2.635 -1.3585 -2.0253  0.1737
19435TIP3   OH279795   6.724   3.767  11.148 -0.7848 -0.5271 -0.0064
19435TIP3    H179796   6.678   3.715  11.083  0.2350 -0.3987 -0.8609
19435TIP3    H279797   6.736   3.853  11.107 -0.8016 -0.1955  0.6537
19436TIP3   OH279798   2.480   0.443   2.194  0.3718 -0.7316 -0.2257
19436TIP3    H179799   2.573   0.425   2.190  0.5090 -0.0293 -0.3386
19436TIP3    H279800   2.473   0.526   2.242 -0.2434 -1.1572  0.4530
19437TIP3   OH279801   4.451   5.791   0.888  0.4355 -0.1382  0.3535
19437TIP3    H179802   4.433   5.855   0.957  1.1936  2.0179 -1.3116
19437TIP3    H279803   4.543   5.768   0.902  0.6445  0.4435 -0.0051
19438TIP3   OH279804   5.587   5.389   2.887 -0.2576  0.0483 -0.3040
19438TIP3    H179805   5.610   5.426   2.972  2.7027 -2.3341  0.0777
19438TIP3    H279806   5.656   5.419   2.828  0.0786 -1.6970 -0.8506
19439TIP3   OH279807   0.246   6.416   0.089 -0.0263  1.1889 -0.2432
19439TIP3    H179808   0.250   6.380   0.001  1.0754 -2.4202  1.1081
19439TIP3    H279809   0.328   6.466   0.098  0.9655 -0.3261 -0.5743
19440TIP3   OH279810   4.640   0.900  12.068  0.3903 -0.1425  0.0060
19440TIP3    H179811   4.597   0.972  12.114  3.1223  0.1930  2.3142
19440TIP3    H279812   4.718   0.940  12.028  1.3844 -1.5670  0.4151
19441TIP3   OH279813   5.114   5.569   2.644  0.4976 -0.2094 -0.1649
19441TIP3    H179814   5.088   5.618   2.722  0.3351 -0.9792  0.2791
19441TIP3    H279815   5.196   5.527   2.669  0.0573 -1.0758 -0.1280
19442TIP3   OH279816   6.171   0.948   6.586  0.6601 -0.1740 -0.0113
19442TIP3    H179817   6.252   0.995   6.605 -0.5934  1.1878  2.4564
19442TIP3    H279818   6.103   1.016   6.587 -0.6514 -1.4141 -0.9691
19443TIP3   OH279819   6.442   5.680  15.524  0.5335  0.7967 -0.0802
19443TIP3    H179820   6.479   5.750  15.579  0.6286  1.0293 -0.4355
19443TIP3    H279821   6.468   5.599  15.567  0.0317  0.9839  0.5897
19444TIP3   OH279822   4.030   0.428  11.249  0.2532  0.2510 -0.2732
19444TIP3    H179823   3.942   0.414  11.283  1.0367 -0.3750  1.6418
19444TIP3    H279824   4.042   0.358  11.185 -0.6932  0.4562 -0.6859
19445TIP3   OH279825   4.454   1.289  14.870  0.0312  0.7748 -0.0725
19445TIP3    H179826   4.492   1.293  14.958  0.7468  0.3421 -0.3526
19445TIP3    H279827   4.505   1.352  14.819  2.4369 -1.8534 -1.1873
19446TIP3   OH279828   1.466   0.308   2.558  0.1193  0.0812 -0.0700
19446TIP3    H179829   1.399   0.244   2.534 -0.1370 -0.2501  1.3975
19446TIP3    H279830   1.426   0.393   2.541 -0.2385 -0.1272 -0.2791
19447TIP3   OH279831   2.395   3.018   2.637  0.8199 -0.7911  0.0463
19447TIP3    H179832   2.442   2.961   2.697  1.9822 -0.5619 -0.6055
19447TIP3    H279833   2.425   3.106   2.659  1.2432 -0.7021 -0.8281
19448TIP3   OH279834   1.802   1.550  13.672 -0.2876 -0.5503  0.1000
19448TIP3    H179835   1.709   1.542  13.650 -0.4187  0.3587  0.2757
19448TIP3    H279836   1.810   1.639  13.707  0.5987 -0.7213  0.3406
19449TIP3   OH279837   0.913   0.326  11.275  0.1944  0.1400  0.3336
19449TIP3    H179838   0.872   0.374  11.203 -1.2390  0.5603  1.3946
19449TIP3    H279839   0.900   0.381  11.352  0.3870 -0.9799  1.1983
19450TIP3   OH279840   6.537   3.437  13.960 -0.1627 -0.0735  0.6237
19450TIP3    H179841   6.448   3.472  13.966 -1.4901 -3.2771  1.4203
19450TIP3    H279842   6.578   3.462  14.043 -0.1758  1.6241  0.1531
19451TIP3   OH279843   2.455   0.031  10.626  0.2178 -0.3903  0.7167
19451TIP3    H179844   2.480  -0.001  10.539  2.0393  1.3629  0.5330
19451TIP3    H279845   2.375   0.081  10.612  0.8177  0.3694 -0.0826
19452TIP3   OH279846   5.446   4.455   5.665 -0.2595 -0.2505 -0.5856
19452TIP3    H179847   5.541   4.446   5.659 -0.3708 -2.4735  0.0635
19452TIP3    H279848   5.433   4.531   5.722  1.1563 -0.7778  0.5064
19453TIP3   OH279849   0.451   6.620   0.133  0.5138  1.0178  0.3952
19453TIP3    H179850   0.460   6.662   0.218  0.8934  0.1459  0.8041
19453TIP3    H279851   0.501   6.675   0.073 -0.9934  2.4795  0.4116
19454TIP3   OH279852   4.852   1.971   2.924  0.2871  0.0959 -0.1751
19454TIP3    H179853   4.932   1.928   2.952  1.3551  1.6492 -0.6752
19454TIP3    H279854   4.798   1.977   3.003  0.4993 -1.2676  0.0911
19455TIP3   OH279855   3.742   5.369  13.526 -0.4289  0.2769 -0.3210
19455TIP3    H179856   3.669   5.396  13.582 -0.3890  1.6959 -0.9063
19455TIP3    H279857   3.816   5.359  13.585 -1.0255 -0.9104  0.2415
19456TIP3   OH279858   0.071   4.398   3.556  0.3634  0.0421  1.0086
19456TIP3    H179859   0.084   4.303   3.545  2.0725  0.2755  0.8049
19456TIP3    H279860   0.014   4.422   3.483  1.5868 -0.5073 -0.1728
19457TIP3   OH279861   3.360   1.789  13.948 -0.2852 -0.0125 -0.0920
19457TIP3    H179862   3.421   1.763  13.879 -1.2535 -1.5224 -0.4236
19457TIP3    H279863   3.293   1.840  13.902  0.2817  0.9794  0.1464
19458TIP3   OH279864   4.235   1.278   2.988 -0.6045  0.6100 -0.4209
19458TIP3    H179865   4.171   1.209   3.008 -0.1689  0.3754  0.1786
19458TIP3    H279866   4.194   1.327   2.916 -0.8418 -0.3872 -0.9995
19459TIP3   OH279867   0.668   5.804   4.097 -0.1406 -0.6734  0.5091
19459TIP3    H179868   0.588   5.789   4.147 -0.9391  1.3624 -0.0858
19459TIP3    H279869   0.657   5.752   4.018 -2.1309  1.5225 -0.7897
19460TIP3   OH279870   6.787   2.297  11.111  0.0391  0.4396  0.2972
19460TIP3    H179871   6.835   2.311  11.029  1.0435  3.0919  1.2422
19460TIP3    H279872   6.774   2.202  11.115  1.4084  0.0672 -2.1149
19461TIP3   OH279873   0.355   2.016   5.213  0.5162 -0.4906 -0.1069
19461TIP3    H179874   0.364   1.968   5.131 -1.1851  0.7252 -1.0523
19461TIP3    H279875   0.394   1.958   5.279 -1.1961 -3.0860 -1.2168
19462TIP3   OH279876   6.153   0.034   0.731  0.7038 -0.1269 -0.5866
19462TIP3    H179877   6.219  -0.034   0.716 -1.4893 -2.5505 -0.0871
19462TIP3    H279878   6.117   0.052   0.644 -1.6846 -3.0061 -0.3566
19463TIP3   OH279879   2.310   1.623   2.526 -0.0186 -0.2329  0.1884
19463TIP3    H179880   2.248   1.693   2.542 -0.4541 -0.6313  0.2615
19463TIP3    H279881   2.365   1.621   2.604  0.5172  0.5577 -0.1619
19464TIP3   OH279882   3.172   3.597  14.863  0.1944 -0.2926  0.0305
19464TIP3    H179883   3.221   3.610  14.944  0.0697  1.1911 -0.1072
19464TIP3    H279884   3.238   3.569  14.799  0.9257  1.7032 -0.1594
19465TIP3   OH279885   5.837   6.084   2.816  0.7490  0.0741 -0.3469
19465TIP3    H179886   5.827   6.169   2.859  0.1988 -0.3338  0.3549
19465TIP3    H279887   5.917   6.093   2.764  1.2930  0.6719  0.5654
19466TIP3   OH279888   0.930   0.717   1.997 -0.4054 -0.2334 -0.1314
19466TIP3    H179889   0.845   0.722   1.955 -0.9488  0.4734  0.9852
19466TIP3    H279890   0.992   0.750   1.932 -1.0705 -0.1473 -0.7285
19467TIP3   OH279891   5.061   0.216  13.227  0.3639 -0.3147  0.0074
19467TIP3    H179892   5.022   0.275  13.291 -1.2308 -0.3514 -0.8764
19467TIP3    H279893   5.097   0.145  13.280 -3.0879 -1.6517  0.8789
19468TIP3   OH279894   0.409   0.160  15.410 -0.3710  0.3575 -0.0299
19468TIP3    H179895   0.336   0.161  15.348  0.8998  1.3899 -1.5762
19468TIP3    H279896   0.474   0.102  15.369  0.4996  1.0840  0.3107
19469TIP3   OH279897   1.609   4.082  11.395  0.5298  0.5033  0.0804
19469TIP3    H179898   1.639   4.072  11.304 -0.5388  1.8563 -0.4464
19469TIP3    H279899   1.517   4.108  11.387  0.3859  0.5059  1.5635
19470TIP3   OH279900   2.391   6.311   1.857 -0.6637 -0.3351  0.2856
19470TIP3    H179901   2.421   6.389   1.903 -2.3748 -0.2071  1.2531
19470TIP3    H279902   2.462   6.291   1.796 -0.9288  3.0410 -1.3567
19471TIP3   OH279903   6.172   2.333  13.735  0.3633 -0.6665  0.0666
19471TIP3    H179904   6.257   2.306  13.771  1.6424 -0.0152 -2.2789
19471TIP3    H279905   6.186   2.338  13.641 -1.4016  2.5167 -0.1687
19472TIP3   OH279906   3.496   0.907  11.934  0.1197  0.1101 -0.0607
19472TIP3    H179907   3.446   0.985  11.912 -2.6299 -1.6111 -0.4256
19472TIP3    H279908   3.515   0.915  12.028 -2.3803  0.1077  0.5007
19473TIP3   OH279909   4.594   4.984  10.799  0.2115  0.3075  0.0865
19473TIP3    H179910   4.688   5.005  10.798  0.3709 -0.3535  0.8091
19473TIP3    H279911   4.551   5.068  10.781  0.8943  0.9180  1.2110
19474TIP3   OH279912   3.661   1.835  10.989 -0.2563  0.0876  0.4919
19474TIP3    H179913   3.688   1.749  10.959 -0.6182  1.0610 -3.0469
19474TIP3    H279914   3.714   1.852  11.067  2.8955 -1.6119 -1.1270
19475TIP3   OH279915   4.704   6.233   0.567  0.1565  0.1876 -0.0711
19475TIP3    H179916   4.719   6.284   0.487 -1.7956  2.5427  0.9260
19475TIP3    H279917   4.639   6.168   0.541 -0.9909  1.3788 -0.3121
19476TIP3   OH279918   6.034   1.848  11.787  0.3632  0.0591  0.2292
19476TIP3    H179919   6.039   1.934  11.747  2.9786 -0.7528 -1.3872
19476TIP3    H279920   5.967   1.802  11.737 -0.6543  0.9290  0.7523
19477TIP3   OH279921   5.814   3.323   5.018 -0.4154 -0.6911  0.3930
19477TIP3    H179922   5.774   3.378   5.085  1.9925  0.0805  1.2939
19477TIP3    H279923   5.802   3.372   4.937  0.8314  0.7913  1.0392
19478TIP3   OH279924   2.930   4.656   4.774 -0.2657 -0.5762  0.1097
19478TIP3    H179925   2.881   4.693   4.848 -1.7529 -0.3133 -0.9757
19478TIP3    H279926   3.005   4.714   4.763 -0.2966 -0.3359  1.0935
19479TIP3   OH279927   5.103   0.336  15.945  0.1863 -0.0690 -0.0243
19479TIP3    H179928   5.015   0.311  15.972  0.9837 -0.1681  2.7880
19479TIP3    H279929   5.154   0.255  15.950  0.3751 -0.1735 -2.3264
19480TIP3   OH279930   3.491   0.351  15.213 -0.1481  0.4483 -0.1398
19480TIP3    H179931   3.547   0.274  15.209  0.1886  0.7092 -4.2814
19480TIP3    H279932   3.551   0.424  15.227 -0.1580  0.2755  0.9190
19481TIP3   OH279933   4.893   1.875   1.188  0.0293 -0.1313 -0.2163
19481TIP3    H179934   4.844   1.956   1.173 -1.6468 -1.0067  0.3435
19481TIP3    H279935   4.937   1.857   1.105 -0.4962  0.7408 -0.6897
19482TIP3   OH279936   2.249   4.934  16.687  0.8239  0.4296  0.2138
19482TIP3    H179937   2.274   4.847  16.657 -0.1713 -0.2179  1.1938
19482TIP3    H279938   2.329   4.971  16.723  0.9026 -0.7545  1.3263
19483TIP3   OH279939   3.024   3.233  12.464  0.4746  0.3780 -0.0435
19483TIP3    H179940   3.031   3.319  12.424 -0.5925  1.7677  2.5269
19483TIP3    H279941   3.093   3.231  12.530 -0.1238 -0.3574  0.5786
19484TIP3   OH279942   5.988   3.435   5.611  0.3473 -0.5133 -0.1511
19484TIP3    H179943   5.990   3.362   5.549  0.3219 -0.5338 -0.1279
19484TIP3    H279944   5.895   3.456   5.621  0.3780 -0.2684 -0.4007
19485TIP3   OH279945   1.254   0.579  17.060 -0.3813  0.3089  0.2650
19485TIP3    H179946   1.331   0.549  17.012 -1.1963  0.9434 -1.5364
19485TIP3    H279947   1.204   0.630  16.996 -3.3867 -1.8144  0.7041
19486TIP3   OH279948   2.542   4.056   0.626  0.5337  0.1587 -0.6100
19486TIP3    H179949   2.489   3.988   0.585  0.9048 -0.3934 -0.1913
19486TIP3    H279950   2.629   4.045   0.587  0.6294  0.3017 -0.4360
19487TIP3   OH279951   2.471   2.375   0.007  0.2638 -0.5278  0.3845
19487TIP3    H179952   2.540   2.342   0.065  0.6094 -0.9671 -0.2734
19487TIP3    H279953   2.474   2.318  -0.069  0.4619  0.6514 -0.5142
19488TIP3   OH279954   6.265   2.198   1.821 -1.1473 -0.5508 -0.3307
19488TIP3    H179955   6.325   2.242   1.761 -2.1565  0.0309 -0.9387
19488TIP3    H279956   6.295   2.107   1.822 -0.4490 -0.3364 -0.8540
19489TIP3   OH279957   6.319   1.253  11.919  0.4015 -0.2145 -0.0722
19489TIP3    H179958   6.335   1.176  11.864 -0.1733 -0.7144  0.4501
19489TIP3    H279959   6.264   1.310  11.865  2.6964  0.9186 -1.3675
19490TIP3   OH279960   6.615   3.685  11.384  0.0299 -0.2487  0.4141
19490TIP3    H179961   6.640   3.600  11.420  0.2078 -1.3214 -2.0145
19490TIP3    H279962   6.657   3.688  11.298 -1.3256  1.5905 -0.2560
19491TIP3   OH279963   1.804   2.213  11.725  0.0342 -0.0126 -0.2522
19491TIP3    H179964   1.893   2.233  11.696 -0.1909  1.5932  0.0582
19491TIP3    H279965   1.780   2.135  11.675  0.8094  0.8038 -2.0167
19492TIP3   OH279966   6.354   5.975   5.175  0.2101 -0.2455 -0.2081
19492TIP3    H179967   6.356   6.024   5.093 -0.1964  0.3769  0.1451
19492TIP3    H279968   6.400   5.894   5.156  0.1926 -0.0684 -1.0299
19493TIP3   OH279969   3.965   2.494   4.021 -0.2739 -0.1756  0.1857
19493TIP3    H179970   3.917   2.450   3.951 -0.9585 -0.1655  0.6351
19493TIP3    H279971   4.057   2.473   4.005 -0.6557 -2.8889  1.1319
19494TIP3   OH279972   1.093   0.153  16.198 -0.6037  0.7170  0.1281
19494TIP3    H179973   1.122   0.241  16.176 -1.6144  1.2587  0.8962
19494TIP3    H279974   1.152   0.096  16.150 -0.0264  1.8112 -0.4995
19495TIP3   OH279975   2.415   6.170   6.467 -0.1856  0.4784  0.2370
19495TIP3    H179976   2.431   6.261   6.491  1.5063  0.6268 -1.2462
19495TIP3    H279977   2.479   6.120   6.518 -0.6629  0.1748  0.5491
19496TIP3   OH279978   1.592   4.258  15.425 -0.0868  0.1082  0.4242
19496TIP3    H179979   1.585   4.275  15.519  1.1279 -0.1445  0.5684
19496TIP3    H279980   1.606   4.164  15.418 -0.3053  0.1052 -0.0223
19497TIP3   OH279981   2.398   5.703   1.412  0.5318  0.1712  0.6809
19497TIP3    H179982   2.380   5.679   1.503  0.5435 -1.9515  0.1636
19497TIP3    H279983   2.479   5.658   1.390 -0.0923 -0.3411 -0.7195
19498TIP3   OH279984   2.294   3.968  13.905 -0.5125 -0.0479  0.1153
19498TIP3    H179985   2.203   3.995  13.893 -0.7563 -1.2758 -0.9942
19498TIP3    H279986   2.307   3.897  13.843  1.6951  1.1443 -0.9242
19499TIP3   OH279987   2.530   3.814  12.470 -0.1886 -0.6065 -0.1165
19499TIP3    H179988   2.572   3.729  12.482  0.7499 -0.1519 -0.0982
19499TIP3    H279989   2.547   3.837  12.379  0.5737  0.0776  0.1836
19500TIP3   OH279990   1.844   2.331   1.670  0.6219  0.2160 -0.2628
19500TIP3    H179991   1.884   2.381   1.599  1.1462  0.6674  0.3383
19500TIP3    H279992   1.756   2.310   1.638  0.3494  1.6194 -0.4846
19501TIP3   OH279993   5.321   5.798  16.917 -0.3153  0.3693 -0.2559
19501TIP3    H179994   5.267   5.737  16.967  0.8665  0.1138  0.7588
19501TIP3    H279995   5.281   5.883  16.931  1.1144  0.6521  2.9366
19502TIP3   OH279996   4.644   5.629   1.208  0.2623  0.2733 -0.7152
19502TIP3    H179997   4.561   5.676   1.207  0.4513  0.6595  0.1665
19502TIP3    H279998   4.632   5.556   1.148 -0.5040  0.6705 -1.0534
19503TIP3   OH279999   4.106   2.201  14.537 -0.4804 -0.5267 -0.2467
19503TIP3    H180000   4.133   2.159  14.455  1.7305 -1.1576  0.7402
19503TIP3    H280001   4.161   2.161  14.604  0.6072  2.7823  1.0329
19504TIP3   OH280002   0.479   1.353   0.974  0.4096 -0.1746 -0.2083
19504TIP3    H180003   0.436   1.382   0.893 -0.3077 -0.1815  0.1629
19504TIP3    H280004   0.451   1.262   0.984 -0.3335  0.1342  0.5864
19505TIP3   OH280005   6.033   4.262   4.091  0.1505  0.4074 -0.5980
19505TIP3    H180006   6.113   4.233   4.046 -0.2366  0.0732 -1.0840
19505TIP3    H280007   5.964   4.250   4.026 -0.9691 -3.1243  1.0279
19506TIP3   OH280008   0.028   6.227  11.568 -0.2367  0.2934 -0.0385
19506TIP3    H180009   0.094   6.286  11.602 -0.2857 -0.1945  0.9436
19506TIP3    H280010   0.074   6.145  11.552 -0.6504 -0.1531  0.9681
19507TIP3   OH280011   4.404   2.927   4.270  0.2185  0.1778  0.0166
19507TIP3    H180012   4.410   2.843   4.225 -3.1188 -0.8398  1.2128
19507TIP3    H280013   4.481   2.929   4.327  1.0591 -1.4188 -1.0055
19508TIP3   OH280014   4.993   1.633   4.280  0.3734  0.0728 -0.2082
19508TIP3    H180015   4.906   1.641   4.241  0.0753 -2.9159 -0.3860
19508TIP3    H280016   4.976   1.613   4.372  0.6206 -3.7499 -0.8470
19509TIP3   OH280017   6.640   6.142   0.132  0.0570 -0.1866 -1.0115
19509TIP3    H180018   6.728   6.157   0.168  0.1060 -4.1006  1.0429
19509TIP3    H280019   6.601   6.230   0.126  2.7843  1.3873  1.5069
19510TIP3   OH280020   1.330   2.966  10.595 -0.6745 -0.2655 -0.7393
19510TIP3    H180021   1.284   3.005  10.670  1.1261 -0.6886  0.6350
19510TIP3    H280022   1.345   3.040  10.536 -0.5006  0.4333  0.1605
19511TIP3   OH280023   5.230   3.475  15.195 -0.2736  0.1608 -0.3469
19511TIP3    H180024   5.307   3.464  15.250 -0.6189 -2.0948 -0.2412
19511TIP3    H280025   5.264   3.494  15.108  0.4464 -1.1949 -0.3820
19512TIP3   OH280026   0.033   0.258   2.262 -0.7894  0.3400  0.1445
19512TIP3    H180027   0.107   0.203   2.234 -0.6275  0.9968 -0.7787
19512TIP3    H280028   0.015   0.313   2.186 -2.8242 -0.4120  0.0341
19513TIP3   OH280029   0.335   6.683   4.240 -0.3338 -0.9648 -0.2007
19513TIP3    H180030   0.422   6.643   4.232 -0.3135 -0.5533 -3.7055
19513TIP3    H280031   0.351   6.777   4.237 -0.8778 -0.8878 -1.1055
19514TIP3   OH280032   0.205   6.204   2.169 -0.0806 -0.2056  0.1137
19514TIP3    H180033   0.298   6.226   2.158  0.2664 -0.8990  1.4625
19514TIP3    H280034   0.200   6.110   2.153 -0.0411 -0.7003  2.6387
19515TIP3   OH280035   4.176   3.640  12.701 -0.4026 -0.6378 -0.0366
19515TIP3    H180036   4.206   3.654  12.791 -1.1910 -1.3110  0.3442
19515TIP3    H280037   4.201   3.549  12.682 -0.9831 -0.7696 -0.1885
19516TIP3   OH280038   1.672   6.191   4.651 -0.2855 -0.1758  0.7829
19516TIP3    H180039   1.624   6.253   4.597 -0.4781 -1.4350 -0.5493
19516TIP3    H280040   1.737   6.244   4.696 -1.0210  1.1177  0.3858
19517TIP3   OH280041   3.767   0.214  13.855  0.8230  0.0020 -0.1316
19517TIP3    H180042   3.822   0.241  13.781  0.9312  3.9811  1.1399
19517TIP3    H280043   3.817   0.241  13.932 -1.2664  0.2213  1.2054
19518TIP3   OH280044   3.121   4.752  16.606 -0.1885  0.6743 -0.7442
19518TIP3    H180045   3.144   4.672  16.653 -1.6440  0.9207  0.4582
19518TIP3    H280046   3.203   4.801  16.600  0.4670 -0.3526 -0.4118
19519TIP3   OH280047   1.170   6.824   0.315  0.4486 -0.0853  0.2856
19519TIP3    H180048   1.203   6.760   0.252 -2.1326  1.2098 -2.6209
19519TIP3    H280049   1.244   6.883   0.330  1.3483 -0.8186 -1.0326
19520TIP3   OH280050   3.138   3.743   3.669  0.1250  0.4194  0.5388
19520TIP3    H180051   3.180   3.675   3.721 -1.9624 -1.4648 -0.0876
19520TIP3    H280052   3.210   3.795   3.634  1.7032 -0.1433  2.7560
19521TIP3   OH280053   2.161   3.915  14.461 -0.0999  0.2993  0.0195
19521TIP3    H180054   2.237   3.859  14.447 -0.0421  0.5885 -0.8687
19521TIP3    H280055   2.187   3.999  14.423 -0.3808  0.7756  0.8668
19522TIP3   OH280056   2.932   0.081   0.209 -0.2841 -0.7062 -0.9279
19522TIP3    H180057   2.903   0.024   0.280 -3.4200  1.3883 -0.3420
19522TIP3    H280058   3.003   0.133   0.248 -0.1442 -1.4129 -0.2030
19523TIP3   OH280059   1.979   1.920   1.990 -0.1676  0.4002  0.2923
19523TIP3    H180060   1.914   1.990   1.987  0.1476  0.8207  2.0098
19523TIP3    H280061   2.046   1.952   2.051  1.8974  0.1709 -1.6979
19524TIP3   OH280062   2.958   5.823  13.947 -0.4429 -0.1827 -0.2296
19524TIP3    H180063   3.002   5.827  13.862 -0.3767  0.0444 -0.1832
19524TIP3    H280064   2.871   5.790  13.927  0.2568 -2.2277 -0.1375
19525TIP3   OH280065   0.599   0.297  16.199 -0.1981 -1.1084  0.1220
19525TIP3    H180066   0.629   0.382  16.229  1.1146 -1.4994 -0.0045
19525TIP3    H280067   0.583   0.309  16.105 -0.2226 -0.9470  0.1463
19526TIP3   OH280068   4.921   0.288   3.159 -0.5322  0.6784 -0.1084
19526TIP3    H180069   4.973   0.355   3.115  2.6344 -1.7527 -0.4256
19526TIP3    H280070   4.978   0.253   3.227 -2.9416 -0.1043  1.6843
19527TIP3   OH280071   2.852   6.162  11.616  0.0979 -0.1910  0.0512
19527TIP3    H180072   2.913   6.089  11.603  1.6687  0.6779  2.0641
19527TIP3    H280073   2.894   6.236  11.572 -0.1158  0.1370  0.3901
19528TIP3   OH280074   3.296   2.795  13.804 -0.1001  0.1442  0.1980
19528TIP3    H180075   3.234   2.862  13.833 -1.1729 -1.1209  0.9372
19528TIP3    H280076   3.347   2.774  13.882  2.1987  2.0473 -0.6726
19529TIP3   OH280077   1.319   3.913   0.825  0.1020  0.4331  0.4541
19529TIP3    H180078   1.302   3.893   0.917  0.1814 -0.3392  0.3130
19529TIP3    H280079   1.300   4.006   0.816 -1.6041  0.1600  0.8693
19530TIP3   OH280080   0.640   0.427  14.181 -0.4648  0.2568  0.5203
19530TIP3    H180081   0.572   0.478  14.137 -0.7802  0.7582  1.5495
19530TIP3    H280082   0.653   0.472  14.265  1.6326  0.5604  0.0803
19531TIP3   OH280083   6.517   4.037   5.493 -0.1826  0.2063 -0.1714
19531TIP3    H180084   6.469   4.114   5.463 -1.2341 -0.6483 -0.7816
19531TIP3    H280085   6.568   4.010   5.417 -0.2361  0.0017 -0.1371
19532TIP3   OH280086   0.162   4.249  16.976 -0.1820 -0.4830 -0.2923
19532TIP3    H180087   0.127   4.338  16.975 -1.5716 -0.7869  3.4886
19532TIP3    H280088   0.257   4.261  16.971 -0.3868  1.0437 -1.4176
19533TIP3   OH280089   5.357   3.247   2.039  0.3255  0.3754 -0.3489
19533TIP3    H180090   5.433   3.195   2.065  0.5469 -0.0937 -1.8647
19533TIP3    H280091   5.282   3.193   2.064  0.4924  0.4064  0.2515
19534TIP3   OH280092   6.046   5.696  11.703  0.2889  0.2993 -0.6466
19534TIP3    H180093   6.018   5.604  11.705  1.0504  0.0092  2.9114
19534TIP3    H280094   5.965   5.746  11.710 -0.1300 -0.0173 -2.5806
19535TIP3   OH280095   0.909   4.530  12.725 -0.2032  0.2355 -0.2702
19535TIP3    H180096   0.862   4.469  12.668 -0.3392  1.5782 -1.6741
19535TIP3    H280097   0.897   4.495  12.813 -1.8807 -0.7239 -0.8308
19536TIP3   OH280098   0.429   3.699  11.083  0.4502  0.1682  0.1470
19536TIP3    H180099   0.513   3.722  11.044  0.4134  0.0410 -0.0066
19536TIP3    H280100   0.368   3.696  11.010  0.1373  1.0713  0.3646
19537TIP3   OH280101   0.989   3.641  17.035  0.2390  0.2531  0.1291
19537TIP3    H180102   1.038   3.568  17.074 -0.4193 -0.6455 -0.6665
19537TIP3    H280103   1.055   3.690  16.986  0.8180  0.6190  1.2343
19538TIP3   OH280104   6.183   1.243   3.360  0.3977  0.0798 -0.9955
19538TIP3    H180105   6.097   1.271   3.389  0.3737  0.5359 -1.4796
19538TIP3    H280106   6.241   1.262   3.433  0.0375 -0.5329 -0.5440
19539TIP3   OH280107   0.593   3.970  13.273  0.0298  0.0186 -0.0078
19539TIP3    H180108   0.514   3.952  13.324  1.1809 -0.5431  1.6590
19539TIP3    H280109   0.594   4.065  13.263 -1.1142 -0.0091 -0.5206
19540TIP3   OH280110   2.992   5.149   0.356  0.8226  0.2416  0.0610
19540TIP3    H180111   2.923   5.157   0.290  1.0916 -0.1741 -0.2798
19540TIP3    H280112   3.063   5.104   0.311  1.4986  1.0669  0.2753
19541TIP3   OH280113   2.835   1.366  11.031  0.4173 -0.2906 -0.0059
19541TIP3    H180114   2.770   1.387  11.098  0.1328 -0.1636 -0.3181
19541TIP3    H280115   2.916   1.349  11.080 -0.2309 -2.0477  0.5095
19542TIP3   OH280116   3.172   5.608   4.862  0.2892  0.4192  0.5735
19542TIP3    H180117   3.258   5.590   4.824  0.2878 -0.7077  1.0740
19542TIP3    H280118   3.122   5.649   4.791  0.5017 -1.0271 -0.4551
19543TIP3   OH280119   0.516   0.117   2.503 -0.3620  0.4301 -0.4444
19543TIP3    H180120   0.513   0.086   2.594  1.7711 -2.0299 -1.0951
19543TIP3    H280121   0.565   0.199   2.506  0.2273  0.0516  0.5532
19544TIP3   OH280122   1.232   4.283  15.623 -0.2493  0.0605 -0.1421
19544TIP3    H180123   1.261   4.356  15.678 -2.2332 -0.6073  1.9690
19544TIP3    H280124   1.239   4.206  15.679 -0.6591 -0.9601 -1.4429
19545TIP3   OH280125   3.473   2.901  12.953  0.1011  0.2687 -0.2144
19545TIP3    H180126   3.505   2.980  12.911 -0.4061  0.0425 -1.0563
19545TIP3    H280127   3.485   2.832  12.887 -1.1075 -0.0108 -0.1705
19546TIP3   OH280128   5.653   3.824  11.511  0.1693  0.3899  0.4738
19546TIP3    H180129   5.638   3.914  11.482 -0.3512 -0.4036 -1.8972
19546TIP3    H280130   5.637   3.770  11.434  0.7944 -1.7418  1.7366
19547TIP3   OH280131   0.479   0.131  12.341 -0.2683  0.0999 -0.4412
19547TIP3    H180132   0.445   0.210  12.385  1.4592  0.9661 -0.5894
19547TIP3    H280133   0.442   0.058  12.391 -0.3371  1.0309  0.9181
19548TIP3   OH280134   3.396   6.100   3.077 -0.3503 -0.0047 -0.1626
19548TIP3    H180135   3.432   6.023   3.032  0.1742 -0.3254  0.7864
19548TIP3    H280136   3.326   6.130   3.019  0.3869 -0.3203 -1.2655
19549TIP3   OH280137   3.560   6.447   5.180  0.7338 -0.1174  0.5000
19549TIP3    H180138   3.502   6.491   5.242  0.9546 -1.4414  1.6713
19549TIP3    H280139   3.557   6.503   5.102  0.3572  1.5219  1.6269
19550TIP3   OH280140   2.144   5.739  16.707  0.4986 -0.0667 -0.3283
19550TIP3    H180141   2.090   5.740  16.786  0.8896  0.6953 -0.0569
19550TIP3    H280142   2.146   5.830  16.679  2.8818  0.2112  0.5428
19551TIP3   OH280143   5.350   6.628  17.055  0.0576 -0.2707  0.2590
19551TIP3    H180144   5.421   6.677  17.013 -0.3931  0.6620  0.5638
19551TIP3    H280145   5.380   6.537  17.054  0.2306 -0.2262 -1.7117
19552TIP3   OH280146   2.194   2.766  15.141  0.2848 -0.4076 -0.3980
19552TIP3    H180147   2.279   2.726  15.159  0.3852 -0.5515 -1.1703
19552TIP3    H280148   2.168   2.731  15.056 -0.1936  0.2276 -0.5214
19553TIP3   OH280149   4.537   3.260   3.269  0.7170 -0.2304 -0.2024
19553TIP3    H180150   4.488   3.182   3.296 -0.9831  0.5459 -0.8753
19553TIP3    H280151   4.618   3.226   3.230 -0.1455 -1.6897 -0.8041
19554TIP3   OH280152   2.169   1.160  13.097  0.0571  0.6634  0.3728
19554TIP3    H180153   2.133   1.225  13.036  0.2718  0.7612  0.3498
19554TIP3    H280154   2.113   1.083  13.085  1.0705  0.1317 -1.1205
19555TIP3   OH280155   0.799   3.615   1.921 -0.0493 -0.2455  0.1494
19555TIP3    H180156   0.824   3.705   1.905  0.7056 -0.3585  0.6681
19555TIP3    H280157   0.861   3.563   1.870 -0.9253 -0.4640 -0.7281
19556TIP3   OH280158   2.784   2.587   6.175 -0.0783  0.1636  0.1838
19556TIP3    H180159   2.832   2.505   6.184  0.6557  0.7019  1.5230
19556TIP3    H280160   2.733   2.594   6.256 -1.3337  0.2996 -0.5931
19557TIP3   OH280161   5.164   3.985   0.753 -0.9031  0.1984 -0.0141
19557TIP3    H180162   5.144   3.891   0.750  1.3769 -0.3589  0.3483
19557TIP3    H280163   5.145   4.017   0.665 -2.5997 -0.3780  0.1181
19558TIP3   OH280164   6.257   5.153   1.770 -0.3577  0.3889  0.6804
19558TIP3    H180165   6.268   5.205   1.690 -0.8892 -1.4954 -0.6850
19558TIP3    H280166   6.343   5.116   1.788 -0.0115  1.5712  1.5738
19559TIP3   OH280167   0.977   1.882  12.541 -0.5524  0.6378 -0.5148
19559TIP3    H180168   0.881   1.883  12.541 -0.6471 -1.8262 -1.2591
19559TIP3    H280169   1.000   1.848  12.627 -0.6270 -2.9352 -1.7103
19560TIP3   OH280170   4.812   5.378   4.814 -0.5015 -1.0220  0.3144
19560TIP3    H180171   4.895   5.415   4.785 -1.6548 -0.1205 -2.1310
19560TIP3    H280172   4.787   5.432   4.889  0.7316 -0.8044  0.5870
19561TIP3   OH280173   1.076   2.388   3.428 -0.5039 -0.2201 -0.4821
19561TIP3    H180174   1.064   2.329   3.502  1.8632  0.0438  0.1962
19561TIP3    H280175   1.006   2.453   3.437 -1.5038 -1.3606  0.2866
19562TIP3   OH280176   1.799   6.536   3.929  0.1033  0.0067  0.4004
19562TIP3    H180177   1.786   6.580   4.013  2.4309 -1.6438  1.7010
19562TIP3    H280178   1.866   6.470   3.945 -0.1739 -1.1458 -2.5049
19563TIP3   OH280179   1.889   2.867   3.358  0.2248  0.1532 -0.6324
19563TIP3    H180180   1.876   2.907   3.444 -0.1923 -0.6368 -0.3145
19563TIP3    H280181   1.932   2.935   3.306 -1.4866  1.4145 -0.4583
19564TIP3   OH280182   0.632   5.936  11.818  0.0174 -0.2997 -0.0401
19564TIP3    H180183   0.558   5.879  11.795  1.7972 -1.8647 -2.3609
19564TIP3    H280184   0.695   5.878  11.862  0.4359  0.7120  0.7434
19565TIP3   OH280185   2.768   5.887   4.891 -0.1438 -0.1556  0.4109
19565TIP3    H180186   2.821   5.955   4.931 -0.9656  1.2651 -0.8170
19565TIP3    H280187   2.825   5.847   4.825 -0.3638  0.8991 -0.4326
19566TIP3   OH280188   1.888   6.325   1.775  0.0937 -0.0199  0.4616
19566TIP3    H180189   1.977   6.290   1.767  0.2055  0.3495  0.0304
19566TIP3    H280190   1.900   6.420   1.776 -0.3108  0.0357  0.1872
19567TIP3   OH280191   4.845   5.154   0.382  0.1068 -0.5317 -0.3298
19567TIP3    H180192   4.882   5.226   0.330 -0.0273 -0.5592 -0.4649
19567TIP3    H280193   4.852   5.077   0.325  2.3753 -1.1420  0.6465
19568TIP3   OH280194   6.617   2.856   4.054 -0.2432 -0.3828 -0.0627
19568TIP3    H180195   6.676   2.824   4.122 -0.3184  1.6821  1.0353
19568TIP3    H280196   6.531   2.823   4.079 -0.1489 -0.2595  0.4275
19569TIP3   OH280197   3.942   1.446   5.385  0.0150  0.3949 -0.1404
19569TIP3    H180198   3.971   1.438   5.294 -2.1009  2.2368 -1.0796
19569TIP3    H280199   4.008   1.399   5.435 -0.4652 -3.8332 -2.8820
19570TIP3   OH280200   5.222   6.067  16.956  0.4173  0.2129  0.9774
19570TIP3    H180201   5.149   6.126  16.976 -0.2154 -0.7813  1.7001
19570TIP3    H280202   5.300   6.122  16.964 -0.1635  0.9827  1.5143
19571TIP3   OH280203   0.012   2.479   0.936 -0.4004 -0.0828  0.3611
19571TIP3    H180204   0.062   2.560   0.929 -1.2343  0.3708 -0.6020
19571TIP3    H280205   0.012   2.443   0.848 -2.6141  0.4675  0.0682
19572TIP3   OH280206   6.469   4.988  15.752  0.5842  0.7394  0.2651
19572TIP3    H180207   6.474   5.036  15.669 -1.4724  0.1899 -0.2336
19572TIP3    H280208   6.391   4.933  15.743  2.1594 -1.7950  1.3119
19573TIP3   OH280209   0.115   2.469   3.173  0.3742 -0.2274  0.4216
19573TIP3    H180210   0.081   2.438   3.089  0.4593 -0.4934  0.4836
19573TIP3    H280211   0.159   2.551   3.152  0.2365 -0.2002  0.2364
19574TIP3   OH280212   3.661   2.270   1.013 -0.3724 -0.0949  0.3982
19574TIP3    H180213   3.683   2.348   1.065 -0.2978 -0.1855  0.5040
19574TIP3    H280214   3.567   2.259   1.026 -0.5309  0.4346 -0.2516
19575TIP3   OH280215   5.104   5.508   2.180  0.2965 -0.1602 -0.1196
19575TIP3    H180216   5.028   5.453   2.160  1.0187 -0.9113 -0.9339
19575TIP3    H280217   5.178   5.447   2.176  1.2785  1.0672 -2.3607
19576TIP3   OH280218   2.259   5.946   0.080 -0.1581 -0.4151 -0.1259
19576TIP3    H180219   2.299   6.029   0.055 -1.9446  0.1675 -1.1903
19576TIP3    H280220   2.330   5.898   0.124  0.7464  1.9084  1.1406
19577TIP3   OH280221   5.479   6.576   0.200  0.1867  0.1827 -0.1322
19577TIP3    H180222   5.562   6.548   0.162  0.7055  1.3405  0.1082
19577TIP3    H280223   5.457   6.656   0.153 -0.6560  0.0457  0.0041
19578TIP3   OH280224   5.392   6.061  11.537  0.4709  0.3087  0.3015
19578TIP3    H180225   5.405   6.136  11.479  0.1959 -0.5830 -0.9412
19578TIP3    H280226   5.428   6.090  11.621 -0.4515  2.1610  0.1100
19579TIP3   OH280227   1.484   3.549  11.387  0.3052 -0.3952 -0.7877
19579TIP3    H180228   1.406   3.594  11.419  0.2664 -0.6160 -0.5694
19579TIP3    H280229   1.541   3.619  11.355  0.0992 -0.2191 -0.7698
19580TIP3   OH280230   6.686   4.458   0.081 -0.3420 -0.4357 -0.2287
19580TIP3    H180231   6.761   4.407   0.110 -0.0781 -0.9047 -1.6889
19580TIP3    H280232   6.659   4.418  -0.001 -1.6890  0.2368 -0.1436
19581TIP3   OH280233   2.076   2.025  17.026  0.2323  0.1572 -0.2727
19581TIP3    H180234   2.108   2.099  17.078  1.0076 -0.6339  0.4191
19581TIP3    H280235   2.132   1.952  17.052 -2.4995 -1.5100  1.4919
19582TIP3   OH280236   2.376   2.767   0.061 -0.1728  0.3428 -0.5220
19582TIP3    H180237   2.291   2.778   0.018  0.6085  2.5915 -1.6332
19582TIP3    H280238   2.433   2.735  -0.009  0.0532 -0.5319  0.0576
19583TIP3   OH280239   0.341   0.106   4.943  0.2222 -0.1868  0.0504
19583TIP3    H180240   0.430   0.141   4.953  1.0327 -2.2611  0.7651
19583TIP3    H280241   0.293   0.174   4.897  2.7307  0.2087 -2.1996
19584TIP3   OH280242   5.551   4.767   5.403  0.4544  0.6163  0.1334
19584TIP3    H180243   5.576   4.781   5.494 -0.4000  0.1911  0.4474
19584TIP3    H280244   5.462   4.803   5.397  0.5623  0.7801 -0.5729
19585TIP3   OH280245   4.967   3.164  15.045  0.4137  0.3562 -0.0944
19585TIP3    H180246   4.967   3.071  15.067 -1.7173  0.0957 -0.8800
19585TIP3    H280247   4.935   3.166  14.955 -0.0281  1.8683  0.0771
19586TIP3   OH280248   4.479   1.995  14.526 -0.3850  0.1554  0.2150
19586TIP3    H180249   4.535   2.000  14.449  1.5271 -2.9740  1.2184
19586TIP3    H280250   4.399   1.951  14.495  0.7599 -1.9549  0.1127
19587TIP3   OH280251   1.360   1.517  13.172 -0.3896 -0.2634  0.0203
19587TIP3    H180252   1.310   1.437  13.153 -1.9137  0.4870  0.6928
19587TIP3    H280253   1.444   1.486  13.203 -0.6124 -1.5933 -0.6213
19588TIP3   OH280254   2.574   0.798  15.069 -0.2410  0.0472  0.2081
19588TIP3    H180255   2.494   0.849  15.064 -0.7893 -0.7608  0.5198
19588TIP3    H280256   2.546   0.708  15.055  0.7356 -0.1606 -0.5402
19589TIP3   OH280257   1.293   3.108   5.230 -0.6121  0.1876  0.0826
19589TIP3    H180258   1.310   3.024   5.186 -1.5550 -0.4124  0.8256
19589TIP3    H280259   1.282   3.085   5.322  0.8154  1.3612  0.5899
19590TIP3   OH280260   2.832   2.828   4.115 -0.3460  0.7472  0.0685
19590TIP3    H180261   2.915   2.791   4.086 -0.8249 -0.0240 -0.3723
19590TIP3    H280262   2.767   2.789   4.056 -1.1184  0.6439  0.9584
19591TIP3   OH280263   2.495   2.685  13.510 -0.1392 -0.3417  0.3153
19591TIP3    H180264   2.412   2.734  13.513 -0.1521 -0.3607  3.0747
19591TIP3    H280265   2.495   2.635  13.592  1.0161 -3.1005 -1.2678
19592TIP3   OH280266   6.685   4.256  13.592  0.3830 -0.1309  0.2693
19592TIP3    H180267   6.714   4.326  13.535 -1.7266  1.2219  0.7379
19592TIP3    H280268   6.758   4.242  13.652  0.2015  3.0785  1.4250
19593TIP3   OH280269   2.471   5.814   0.510 -0.1951  0.0974  0.5585
19593TIP3    H180270   2.488   5.722   0.529  0.1433 -0.0033 -0.2190
19593TIP3    H280271   2.545   5.860   0.548 -0.8581  0.1641  1.8439
19594TIP3   OH280272   6.719   6.347  13.477 -0.2719 -0.0493 -0.1416
19594TIP3    H180273   6.777   6.404  13.528  0.5298 -0.6518 -0.3612
19594TIP3    H280274   6.647   6.326  13.536  0.1349  0.0728  0.4037
19595TIP3   OH280275   0.756   6.084  12.314 -0.1354 -0.3720 -0.0674
19595TIP3    H180276   0.843   6.114  12.341  0.5487 -1.4185 -1.0134
19595TIP3    H280277   0.746   6.115  12.224 -1.3718  0.9869  0.5020
19596TIP3   OH280278   2.461   0.258   5.242 -0.1425 -1.0641  0.0731
19596TIP3    H180279   2.494   0.209   5.166 -1.7538  0.0760 -1.4571
19596TIP3    H280280   2.414   0.332   5.203 -2.2668 -1.2134  2.1489
19597TIP3   OH280281   1.979   1.904   6.351  0.1230 -0.3331 -0.9322
19597TIP3    H180282   2.029   1.979   6.318 -0.3218 -0.2236 -1.3778
19597TIP3    H280283   1.928   1.940   6.424 -0.6058 -0.0295 -1.5766
19598TIP3   OH280284   0.215   3.415   1.013 -0.1446 -0.3707  0.0963
19598TIP3    H180285   0.203   3.481   0.944 -0.3017 -0.4471  0.0496
19598TIP3    H280286   0.269   3.347   0.972  1.3936  0.4683  0.6261
19599TIP3   OH280287   2.063   3.486  15.039 -1.3652  0.2229  0.4638
19599TIP3    H180288   2.050   3.426  15.112  1.4016 -1.2593 -0.1369
19599TIP3    H280289   2.075   3.430  14.962  1.4535  1.4302 -0.1046
19600TIP3   OH280290   2.741   5.668  13.862  0.0125  0.1769  0.2930
19600TIP3    H180291   2.651   5.685  13.835  0.0593  1.2026  0.7497
19600TIP3    H280292   2.768   5.593  13.809 -1.3845 -0.6883  0.7575
19601TIP3   OH280293   2.602   4.046   5.705 -0.4196  0.3052 -0.0125
19601TIP3    H180294   2.518   4.067   5.664  0.0247 -1.1798 -1.8515
19601TIP3    H280295   2.660   4.024   5.632  1.9672  2.3724  1.0829
19602TIP3   OH280296   5.916   0.610   3.547 -0.0390  0.0209  0.1128
19602TIP3    H180297   5.878   0.696   3.569  0.2358  0.6655 -1.7848
19602TIP3    H280298   5.841   0.555   3.527 -0.1598  0.1620  0.1768
19603TIP3   OH280299   4.724   4.724  11.459  0.5926 -0.2822  0.5453
19603TIP3    H180300   4.749   4.800  11.511 -0.4512  0.6617 -0.2705
19603TIP3    H280301   4.807   4.681  11.438  1.1490  0.2381  1.5911
19604TIP3   OH280302   1.150   3.457   1.489 -0.9873 -0.2037  0.1862
19604TIP3    H180303   1.239   3.467   1.454 -0.3049 -1.1778  1.5636
19604TIP3    H280304   1.125   3.368   1.467 -1.2721 -0.2278  0.5959
19605TIP3   OH280305   2.419   2.505  11.164  0.4714  0.4149 -0.7008
19605TIP3    H180306   2.323   2.512  11.160  0.3086 -1.2301 -0.4857
19605TIP3    H280307   2.435   2.435  11.227  1.8219  0.6075 -0.8081
19606TIP3   OH280308   1.835   6.776   5.491 -0.3705  0.2304  0.4460
19606TIP3    H180309   1.927   6.802   5.497 -0.5552  0.7043  1.5430
19606TIP3    H280310   1.828   6.700   5.549 -1.1579  1.6996  2.3737
19607TIP3   OH280311   5.154   6.347  17.014 -0.5073 -0.4424  0.2515
19607TIP3    H180312   5.076   6.360  17.067 -1.0807  1.5189 -0.9486
19607TIP3    H280313   5.227   6.372  17.071 -0.8920 -0.6284  0.8325
19608TIP3   OH280314   0.110   2.287  15.438 -0.2618  0.1937 -0.7062
19608TIP3    H180315   0.062   2.213  15.476  2.7829 -1.1150  0.8866
19608TIP3    H280316   0.067   2.364  15.475 -0.9798 -0.8974  0.8709
19609TIP3   OH280317   1.952   4.695  11.823  0.0364  0.3558 -0.0479
19609TIP3    H180318   1.867   4.740  11.817 -0.4158 -0.0770  2.0439
19609TIP3    H280319   2.017   4.765  11.814 -0.5897  0.9129 -0.2985
19610TIP3   OH280320   6.008   1.859  12.059  0.3604  0.2293  0.1343
19610TIP3    H180321   6.008   1.828  11.968 -1.7276  0.0795  0.1372
19610TIP3    H280322   6.049   1.789  12.108  1.5302  0.3137 -0.6712
19611TIP3   OH280323   6.074   3.257   6.085 -0.4517  0.3762 -0.0762
19611TIP3    H180324   6.102   3.333   6.034 -0.3546 -0.1315 -0.8039
19611TIP3    H280325   6.014   3.210   6.027  1.1814 -1.2706 -0.5238
19612TIP3   OH280326   0.740   0.805  16.329  0.2054 -0.1088 -0.0333
19612TIP3    H180327   0.762   0.892  16.296 -0.6692  0.4541  0.8164
19612TIP3    H280328   0.815   0.780  16.383  0.2975  0.2850  0.0229
19613TIP3   OH280329   5.818   6.601   1.325 -0.1246  0.4124 -0.2858
19613TIP3    H180330   5.740   6.546   1.333  0.0103  0.3298  0.6190
19613TIP3    H280331   5.785   6.691   1.323 -0.2361  0.3904  0.3713
19614TIP3   OH280332   2.229   6.021   2.382 -0.1164 -0.5413 -0.3269
19614TIP3    H180333   2.278   6.081   2.326 -0.6235  1.5336  1.3206
19614TIP3    H280334   2.139   6.024   2.348 -0.9203  2.3962  1.7038
19615TIP3   OH280335   2.199   5.901  14.730 -0.3564  0.1239 -0.6896
19615TIP3    H180336   2.243   5.929  14.650 -1.1593  2.2913 -0.4645
19615TIP3    H280337   2.108   5.886  14.703 -0.3621 -0.3438 -0.4115
19616TIP3   OH280338   1.322   0.729   5.034 -0.2480  0.6229  0.1508
19616TIP3    H180339   1.346   0.708   5.124 -1.1534 -0.5152  0.1422
19616TIP3    H280340   1.384   0.798   5.008 -0.8985  2.0253  2.1123
19617TIP3   OH280341   4.392   0.800  12.393  0.1372 -0.6542  0.5182
19617TIP3    H180342   4.483   0.774  12.375 -0.0580 -2.7813  2.1972
19617TIP3    H280343   4.386   0.798  12.489 -1.2400  1.1843  0.4975
19618TIP3   OH280344   0.692   6.535   5.998 -0.0544  0.2265  0.5251
19618TIP3    H180345   0.681   6.441   6.007  0.3014  0.2631  1.5134
19618TIP3    H280346   0.627   6.572   6.058  1.9316  0.5225  2.6468
19619TIP3   OH280347   0.054   2.736  14.890  0.1703 -0.5995 -0.0519
19619TIP3    H180348  -0.004   2.725  14.814  1.3870 -0.5620 -1.0172
19619TIP3    H280349   0.040   2.657  14.942 -0.2415 -0.9095 -0.6196
19620TIP3   OH280350   1.794   1.205  13.424 -0.2277 -0.3085 -0.2688
19620TIP3    H180351   1.810   1.193  13.518  0.6682  0.7102 -0.2649
19620TIP3    H280352   1.852   1.277  13.399 -0.0298 -0.9340 -1.7282
19621TIP3   OH280353   3.420   1.139   5.053 -0.1727  0.1710  0.5318
19621TIP3    H180354   3.412   1.219   5.104  1.4623 -0.9024  2.6596
19621TIP3    H280355   3.393   1.069   5.114 -2.0387 -0.9074 -1.4002
19622TIP3   OH280356   6.378   2.788  14.262 -0.0711 -0.1350  0.2326
19622TIP3    H180357   6.334   2.704  14.276  0.6635 -0.5646  0.0330
19622TIP3    H280358   6.392   2.792  14.168 -0.8520  0.6126  0.1332
19623TIP3   OH280359   2.819   4.633  15.826  0.5832 -0.0491  0.3956
19623TIP3    H180360   2.840   4.580  15.902  0.4222  1.5243  1.5916
19623TIP3    H280361   2.724   4.629  15.819  0.4248  1.1301  1.3557
19624TIP3   OH280362   1.020   1.686  13.012  0.2948 -0.1743  0.2026
19624TIP3    H180363   1.104   1.724  12.984 -0.4608 -0.2348 -2.4621
19624TIP3    H280364   1.032   1.592  13.000  1.1608 -0.6931  3.9257
19625TIP3   OH280365   3.710   5.931   2.568  0.4845  0.4745 -0.1014
19625TIP3    H180366   3.646   6.002   2.567 -0.2651 -0.1346  0.9472
19625TIP3    H280367   3.794   5.972   2.550 -0.1466  1.3732 -1.0471
19626TIP3   OH280368   6.680   5.412  14.111  0.3293 -0.3657 -0.5905
19626TIP3    H180369   6.656   5.484  14.053  1.8745  1.6719  1.0830
19626TIP3    H280370   6.692   5.337  14.054 -3.3975  0.0447 -2.2120
19627TIP3   OH280371   4.080   0.389  13.863 -0.0158  0.6740  0.3787
19627TIP3    H180372   4.044   0.351  13.944 -1.3788  1.8309  0.3414
19627TIP3    H280373   4.003   0.411  13.811  0.8368  0.7075 -0.8918
19628TIP3   OH280374   0.832   5.854  14.857 -0.3582  0.1739 -0.3849
19628TIP3    H180375   0.801   5.791  14.923 -1.4037  1.2704  0.2228
19628TIP3    H280376   0.903   5.809  14.812 -0.7801 -1.2709  0.3252
19629TIP3   OH280377   3.029   2.935  16.124 -0.0392  0.8184  0.2325
19629TIP3    H180378   3.057   2.944  16.032 -0.2535  0.5568  0.1425
19629TIP3    H280379   3.101   2.888  16.166 -0.7929 -0.8319 -0.2372
19630TIP3   OH280380   3.505   2.456   2.656  0.2184 -0.7463  0.1639
19630TIP3    H180381   3.461   2.461   2.741 -0.1375  0.3345 -0.0634
19630TIP3    H280382   3.482   2.370   2.621  1.6287 -1.8477  1.8210
19631TIP3   OH280383   0.541   6.523   3.123  0.2546  0.1117  0.1755
19631TIP3    H180384   0.573   6.567   3.202  0.5942 -0.7256  0.5183
19631TIP3    H280385   0.619   6.499   3.074  0.2949 -2.5184  1.3304
19632TIP3   OH280386   6.760   5.123   2.424  0.4138 -0.2005 -0.0991
19632TIP3    H180387   6.746   5.169   2.507 -1.0002 -1.5623  0.4812
19632TIP3    H280388   6.812   5.184   2.371 -3.1143  3.0871 -0.2518
19633TIP3   OH280389   1.244   2.255   1.005  0.1790  0.0692 -0.0958
19633TIP3    H180390   1.307   2.219   0.943 -0.8107 -0.8827 -0.5914
19633TIP3    H280391   1.162   2.211   0.983 -1.0776  2.5440 -0.5932
19634TIP3   OH280392   1.004   2.316  10.480 -0.2613 -0.2241  0.0746
19634TIP3    H180393   0.927   2.291  10.530  0.2532  0.2710  1.1584
19634TIP3    H280394   1.076   2.267  10.520  0.3356  0.9829  0.5362
19635TIP3   OH280395   0.027   0.800   4.279 -0.4708 -0.5178 -0.0533
19635TIP3    H180396   0.068   0.779   4.195  0.1601  0.6283 -0.0427
19635TIP3    H280397   0.100   0.812   4.340 -0.5707  3.2196 -0.4101
19636TIP3   OH280398   0.668   1.022  15.409 -0.6578  0.8368 -0.2063
19636TIP3    H180399   0.747   1.010  15.462 -0.2321  0.6423 -0.8748
19636TIP3    H280400   0.597   1.024  15.473 -0.3234 -0.9485  0.2833
19637TIP3   OH280401   0.918   0.965   5.567  0.5579 -0.0928  0.0663
19637TIP3    H180402   0.922   0.942   5.660  0.9390 -2.7899 -0.5300
19637TIP3    H280403   1.004   0.943   5.533  0.3390  0.6170 -0.9753
19638TIP3   OH280404   4.549   4.523   1.596 -0.0270  0.1170  0.1859
19638TIP3    H180405   4.583   4.552   1.511 -1.7861  0.4349 -0.4670
19638TIP3    H280406   4.613   4.554   1.660  1.5962 -0.5679 -1.0475
19639TIP3   OH280407   2.393   3.832   0.422 -0.0255  0.2857  0.2672
19639TIP3    H180408   2.385   3.756   0.365  0.9757  0.6081 -0.3450
19639TIP3    H280409   2.465   3.810   0.481 -0.3546  0.3818  0.7049
19640TIP3   OH280410   4.748   1.825   2.541 -0.4802 -0.1041  0.3655
19640TIP3    H180411   4.772   1.761   2.608  0.1072 -3.4480 -2.7459
19640TIP3    H280412   4.654   1.811   2.527 -0.3445 -0.3798 -0.3420
19641TIP3   OH280413   4.088   0.218   0.320  0.3014 -0.0908 -0.5247
19641TIP3    H180414   4.159   0.160   0.349  0.9265  0.7024 -0.4258
19641TIP3    H280415   4.126   0.306   0.324 -0.4497  0.2787 -1.2091
19642TIP3   OH280416   2.188   4.014  11.534 -0.3711  0.1609  0.1386
19642TIP3    H180417   2.142   3.963  11.467  0.4930  0.2741 -0.5527
19642TIP3    H280418   2.174   4.105  11.509 -1.3744  0.2663  1.0142
19643TIP3   OH280419   6.294   2.957  15.564  0.3721  0.2388 -0.5552
19643TIP3    H180420   6.255   3.043  15.554  3.2534  1.4400 -3.0267
19643TIP3    H280421   6.258   2.905  15.493 -1.0616 -0.5708  0.6990
19644TIP3   OH280422   0.157   1.686  11.459  0.0034  0.0566 -0.1633
19644TIP3    H180423   0.140   1.780  11.453 -0.0333  0.0698  0.1339
19644TIP3    H280424   0.135   1.652  11.372  0.7291  0.4344 -0.5066
19645TIP3   OH280425   3.458   0.647  10.615  0.4280  0.1454 -0.8751
19645TIP3    H180426   3.364   0.663  10.628  0.4567  0.8361 -1.4675
19645TIP3    H280427   3.497   0.734  10.614  0.8347 -0.0320 -2.4811
19646TIP3   OH280428   1.610   2.975  16.219  0.0758  0.1314  0.6775
19646TIP3    H180429   1.697   3.008  16.195 -0.2476  0.6025  0.1588
19646TIP3    H280430   1.571   3.045  16.271 -0.1333  0.0640  0.6106
19647TIP3   OH280431   1.448   4.516  15.087  0.0959  0.2422  0.3870
19647TIP3    H180432   1.497   4.541  15.165 -1.2607  0.9095  1.0584
19647TIP3    H280433   1.415   4.428  15.105 -0.3683  0.4663  0.6637
19648TIP3   OH280434   5.050   5.694  13.990  0.9486  0.4232 -0.5924
19648TIP3    H180435   5.133   5.649  14.005  0.9729  0.7642  0.3159
19648TIP3    H280436   4.996   5.671  14.066  0.9472  1.8944 -0.1267
19649TIP3   OH280437   2.776   5.417  13.759 -0.0898 -0.3180  0.7602
19649TIP3    H180438   2.786   5.345  13.821 -1.8164 -1.5248 -0.2973
19649TIP3    H280439   2.704   5.391  13.702 -0.2780  1.9159 -0.1439
19650TIP3   OH280440   2.382   1.203   2.963  0.5410 -0.2452 -0.0707
19650TIP3    H180441   2.476   1.212   2.979  0.3574  0.1175  0.8814
19650TIP3    H280442   2.362   1.267   2.895  0.6110  1.2756  1.2742
19651TIP3   OH280443   2.179   3.984  12.265  0.0081 -0.2156 -0.1105
19651TIP3    H180444   2.220   3.906  12.230  1.5699  0.7868 -0.6336
19651TIP3    H280445   2.128   3.953  12.340  0.4755 -1.7383 -0.3890
19652TIP3   OH280446   0.077   5.649   0.495 -0.1379 -0.3833  0.1731
19652TIP3    H180447   0.139   5.632   0.424 -1.7081 -2.4380 -0.7938
19652TIP3    H280448   0.128   5.697   0.560  1.5559  1.0029 -2.0115
19653TIP3   OH280449   6.040   4.584   2.670  0.1731 -0.2651  0.1794
19653TIP3    H180450   5.957   4.540   2.682  0.8244 -2.2661 -1.8563
19653TIP3    H280451   6.018   4.677   2.669 -1.9101 -0.7057  0.3713
19654TIP3   OH280452   1.658   2.939  15.268  0.3770  0.0961  0.0055
19654TIP3    H180453   1.585   2.906  15.216 -0.9010  2.7428 -0.0383
19654TIP3    H280454   1.650   2.894  15.352 -1.1073  0.0596 -0.1244
19655TIP3   OH280455   3.079   2.714  14.242  0.1449 -0.1862  0.0918
19655TIP3    H180456   3.127   2.632  14.229  0.8389 -0.4024  3.2624
19655TIP3    H280457   3.101   2.767  14.164  1.6856 -2.0490 -0.8224
19656TIP3   OH280458   5.457   2.581  16.388  0.0104  0.0777  0.2379
19656TIP3    H180459   5.367   2.564  16.358  0.4594  0.0279 -1.1766
19656TIP3    H280460   5.506   2.503  16.360  1.0562  1.3184 -1.6459
19657TIP3   OH280461   1.660   1.574   2.334  0.4761 -0.5817  0.1865
19657TIP3    H180462   1.590   1.565   2.398  0.9215 -0.3592  0.7118
19657TIP3    H280463   1.617   1.607   2.255 -0.0397 -0.6411  0.4440
19658TIP3   OH280464   1.263   4.593  16.959 -0.0921 -0.4781 -0.0454
19658TIP3    H180465   1.353   4.562  16.963 -0.0112 -0.1569  2.7703
19658TIP3    H280466   1.269   4.688  16.963 -0.5471 -0.4709  0.7047
19659TIP3   OH280467   2.469   3.745   3.739 -0.4514  0.3005 -0.0587
19659TIP3    H180468   2.487   3.786   3.655 -1.0045 -1.1974 -0.9483
19659TIP3    H280469   2.374   3.749   3.748 -0.3134  1.7924  1.2410
19660TIP3   OH280470   3.607   1.162   0.860 -0.5149  0.0446  0.2778
19660TIP3    H180471   3.549   1.100   0.904 -0.1037 -2.3328 -2.2361
19660TIP3    H280472   3.678   1.108   0.825  0.1458  1.9833 -1.6351
19661TIP3   OH280473   4.097   5.905  11.333 -0.4717 -0.0994  0.7039
19661TIP3    H180474   4.148   5.901  11.414 -0.9193 -3.5975  0.9620
19661TIP3    H280475   4.015   5.947  11.358  0.3135  1.0426  1.4527
19662TIP3   OH280476   2.707   1.742   4.933 -0.6874 -0.1445 -0.0343
19662TIP3    H180477   2.635   1.679   4.936 -2.0738  1.1543 -2.3522
19662TIP3    H280478   2.688   1.796   4.856  0.8423  2.6030  1.3530
19663TIP3   OH280479   4.611   3.678   0.654 -0.2063  0.2085  0.1891
19663TIP3    H180480   4.592   3.663   0.562 -1.0614  0.0049  0.3982
19663TIP3    H280481   4.618   3.773   0.662  0.5983  0.1943 -0.2182
19664TIP3   OH280482   0.044   0.500   0.064 -0.1725  0.1105  0.4044
19664TIP3    H180483   0.066   0.439  -0.006 -2.3692  0.5887 -0.8118
19664TIP3    H280484   0.104   0.574   0.051  2.2828 -1.5079  1.6923
19665TIP3   OH280485   5.689   3.406   1.984  0.2077  0.0988  0.6308
19665TIP3    H180486   5.620   3.464   2.018  0.8672 -0.6175  3.4525
19665TIP3    H280487   5.751   3.398   2.056  1.8200 -1.5379 -0.8377
19666TIP3   OH280488   2.391   2.081   2.777  0.1237  0.1107 -0.0465
19666TIP3    H180489   2.442   2.007   2.811 -0.7329  0.0270  1.0979
19666TIP3    H280490   2.457   2.147   2.756  0.7969 -0.4485  0.2588
19667TIP3   OH280491   3.560   0.506  14.435  0.4957  0.3716  0.1553
19667TIP3    H180492   3.526   0.495  14.524  0.5163  0.7195  0.2093
19667TIP3    H280493   3.493   0.466  14.379  0.1043  0.8411  0.2778
19668TIP3   OH280494   5.931   0.924  16.592  0.3016 -0.4785 -0.3895
19668TIP3    H180495   6.021   0.953  16.583  0.2373 -0.4992 -1.1457
19668TIP3    H280496   5.932   0.864  16.667  0.6180  0.6760  0.5478
19669TIP3   OH280497   2.492   4.655   6.321  0.1162 -0.5801 -0.0132
19669TIP3    H180498   2.563   4.638   6.383  1.1247 -0.6156 -1.1325
19669TIP3    H280499   2.419   4.685   6.375  1.4548  0.9429  1.0472
19670TIP3   OH280500   5.740   0.254   1.033 -0.5529  0.3023 -0.0467
19670TIP3    H180501   5.794   0.328   1.007  0.6419 -0.6802 -0.4758
19670TIP3    H280502   5.679   0.242   0.960 -0.8578  0.9551  0.0991
19671TIP3   OH280503   0.330   6.400  12.208 -0.3261 -0.1716  0.3187
19671TIP3    H180504   0.251   6.350  12.188  0.7532 -1.5273 -0.7920
19671TIP3    H280505   0.339   6.396  12.303 -1.7329  0.2477  0.4824
19672TIP3   OH280506   5.534   5.728   4.303  0.2960 -0.4802 -0.7855
19672TIP3    H180507   5.456   5.764   4.259  0.2322  0.1122 -0.2105
19672TIP3    H280508   5.607   5.751   4.245  0.2153  0.3135 -0.5829
19673TIP3   OH280509   1.735   0.757  16.519 -0.0942  0.2116 -0.3076
19673TIP3    H180510   1.682   0.824  16.561  1.2549  0.0843  1.7184
19673TIP3    H280511   1.712   0.763  16.426 -2.2412  1.3802  0.2478
19674TIP3   OH280512   5.467   0.727  12.094  0.2080  0.1011 -0.3623
19674TIP3    H180513   5.457   0.715  11.999  0.4018  0.1654 -0.3908
19674TIP3    H280514   5.447   0.641  12.131 -2.4123  0.6552 -0.2690
19675TIP3   OH280515   0.787   5.872  10.831 -0.2817 -0.4918 -0.2361
19675TIP3    H180516   0.816   5.864  10.740 -1.2849  0.2355 -0.6351
19675TIP3    H280517   0.698   5.908  10.825 -0.4240 -0.5929  1.0258
19676TIP3   OH280518   6.600   5.870   2.938  0.3989  0.0981  0.3050
19676TIP3    H180519   6.518   5.825   2.917  2.0591 -2.7937 -0.5209
19676TIP3    H280520   6.592   5.892   3.031 -1.8277  1.2425 -0.0742
19677TIP3   OH280521   6.681   2.404   2.173 -0.3087 -0.1862 -0.2033
19677TIP3    H180522   6.626   2.333   2.208  0.5641 -0.4051  0.7726
19677TIP3    H280523   6.761   2.360   2.145 -0.0906  0.3060 -0.3549
19678TIP3   OH280524   5.413   3.679   1.329 -0.5189 -0.0833  0.1518
19678TIP3    H180525   5.372   3.617   1.269 -3.1564  1.0083  0.6729
19678TIP3    H280526   5.441   3.626   1.403  1.4203 -1.2258 -1.3098
19679TIP3   OH280527   5.860   6.177  13.937  0.1037  0.4164 -0.6453
19679TIP3    H180528   5.811   6.209  14.013 -0.3177 -1.9459  0.1349
19679TIP3    H280529   5.936   6.235  13.931 -1.1565  2.2426 -0.0284
19680TIP3   OH280530   1.499   5.544  14.417  0.6751  0.0179  0.0612
19680TIP3    H180531   1.473   5.632  14.388  1.0758 -0.0893 -0.6574
19680TIP3    H280532   1.516   5.496  14.336 -0.1753 -0.9327  0.4216
19681TIP3   OH280533   6.700   0.315   2.494  0.5408  0.1725  0.8037
19681TIP3    H180534   6.616   0.273   2.510  0.7058 -0.2601  0.5437
19681TIP3    H280535   6.743   0.260   2.429  0.4642  1.1138 -0.0792
19682TIP3   OH280536   0.531   5.573  13.710  0.0161  0.2471  0.0592
19682TIP3    H180537   0.613   5.617  13.686 -0.3393  0.8359 -0.0887
19682TIP3    H280538   0.492   5.631  13.775 -1.2930  1.0426 -1.3836
19683TIP3   OH280539   4.918   3.731   1.455  0.2125 -0.6146  0.1620
19683TIP3    H180540   4.897   3.745   1.548 -0.1516 -0.9941  0.1416
19683TIP3    H280541   4.873   3.802   1.410  0.5452 -0.3199  0.2936
19684TIP3   OH280542   4.178   0.167  10.633 -0.2852  0.2299  0.5510
19684TIP3    H180543   4.158   0.091  10.579 -0.3030  1.7085 -1.6744
19684TIP3    H280544   4.133   0.151  10.715 -2.0440 -1.1973 -0.6072
19685TIP3   OH280545   4.040   0.355   3.767  0.2538  0.3646  0.0683
19685TIP3    H180546   4.003   0.433   3.808  0.6393  0.0913  0.9918
19685TIP3    H280547   4.010   0.282   3.822  0.0653 -0.1144 -0.6591
19686TIP3   OH280548   5.038   1.108   3.701  0.0484 -0.5943  0.1530
19686TIP3    H180549   4.976   1.100   3.628  0.4238 -0.0530 -0.2405
19686TIP3    H280550   5.124   1.099   3.660  0.2877  0.2616  0.4317
19687TIP3   OH280551   1.005   0.516   0.661 -0.3177  0.4796  0.1811
19687TIP3    H180552   1.070   0.516   0.590 -1.3862 -1.4134 -0.8580
19687TIP3    H280553   1.057   0.508   0.740  0.7846  0.1186 -0.5521
19688TIP3   OH280554   1.819   1.660   3.307 -0.6870  0.2404  0.0153
19688TIP3    H180555   1.863   1.652   3.223  1.2156  1.1100  0.8643
19688TIP3    H280556   1.802   1.570   3.335  0.0405 -0.0980 -0.6043
19689TIP3   OH280557   4.730   6.047  12.583 -0.1209 -0.1925 -0.2272
19689TIP3    H180558   4.736   6.117  12.648  0.5245 -0.2819 -0.1837
19689TIP3    H280559   4.778   5.974  12.622 -1.2136 -0.8439 -0.0500
19690TIP3   OH280560   2.842   4.050  15.998 -0.2795 -0.2464  0.1023
19690TIP3    H180561   2.897   4.051  16.076  0.8383  0.8551 -0.6456
19690TIP3    H280562   2.901   4.078  15.928 -2.4921  4.6538 -0.2092
19691TIP3   OH280563   4.299   2.713  15.785  0.2737  0.8131  0.0593
19691TIP3    H180564   4.357   2.774  15.740  1.2952 -0.0841  0.1172
19691TIP3    H280565   4.212   2.752  15.777  0.9755  2.5834  0.6512
19692TIP3   OH280566   4.366   2.733   5.466 -0.0383 -0.2316  0.1117
19692TIP3    H180567   4.416   2.732   5.547 -1.2517  0.5885  0.9170
19692TIP3    H280568   4.421   2.779   5.404  0.3921  0.2675  0.8472
19693TIP3   OH280569   4.650   6.428   4.332 -0.4218  0.2076 -0.0144
19693TIP3    H180570   4.630   6.342   4.369 -1.3427 -0.0008 -0.9414
19693TIP3    H280571   4.691   6.409   4.247 -0.3700  0.6867 -0.1027
19694TIP3   OH280572   2.622   5.192  14.332  0.1878 -0.3486 -0.3418
19694TIP3    H180573   2.544   5.143  14.360 -1.6489  2.2551 -0.5680
19694TIP3    H280574   2.653   5.235  14.411 -0.6372  1.2334 -0.8425
19695TIP3   OH280575   5.523   4.728  14.126  0.2843  0.3935 -0.0778
19695TIP3    H180576   5.496   4.772  14.046  0.5023  0.7125  0.0222
19695TIP3    H280577   5.461   4.656  14.135  0.8637 -0.2373 -1.0451
19696TIP3   OH280578   5.299   0.498   1.502  0.0016 -0.2960  0.5435
19696TIP3    H180579   5.334   0.564   1.563 -0.6576  0.5160  0.0668
19696TIP3    H280580   5.277   0.548   1.423  0.4226 -1.2646 -0.2007
19697TIP3   OH280581   0.183   1.420   3.157 -0.4518 -0.3236  0.5592
19697TIP3    H180582   0.247   1.357   3.123 -1.0123 -0.1515 -0.8943
19697TIP3    H280583   0.100   1.372   3.156 -0.5972 -0.0866  1.0445
19698TIP3   OH280584   5.619   2.205   1.280  0.5171  0.0078  0.5949
19698TIP3    H180585   5.543   2.261   1.266  1.4871  1.4710  0.9195
19698TIP3    H280586   5.688   2.247   1.228  1.5378 -0.3023  1.6753
19699TIP3   OH280587   5.179   4.395  16.272  0.6251  0.1048  0.0719
19699TIP3    H180588   5.138   4.341  16.204 -1.5736 -0.0736  1.4360
19699TIP3    H280589   5.242   4.337  16.315  0.5138 -0.4116 -0.4511
19700TIP3   OH280590   4.192   6.053   0.654  0.8049 -0.1146  0.1730
19700TIP3    H180591   4.255   6.125   0.656  1.1460 -0.4310  1.5987
19700TIP3    H280592   4.144   6.060   0.736 -1.5952  0.5785 -1.2089
19701TIP3   OH280593   6.002   1.175   6.429  0.3138  0.0212  0.0397
19701TIP3    H180594   5.978   1.266   6.441  0.4975 -0.2055  2.5856
19701TIP3    H280595   5.919   1.128   6.429  0.1770  0.1661 -1.8042
19702TIP3   OH280596   4.580   2.072  12.979  0.0787 -0.7920 -0.3065
19702TIP3    H180597   4.568   2.017  12.902 -1.6209  0.4466 -0.9755
19702TIP3    H280598   4.642   2.140  12.951  0.0268 -0.7620 -0.3480
19703TIP3   OH280599   3.768   3.674  15.355  0.2601  0.2429  0.5294
19703TIP3    H180600   3.681   3.692  15.320  0.3532  2.0402  1.1585
19703TIP3    H280601   3.828   3.718  15.295  0.6340  0.4006  1.0159
19704TIP3   OH280602   0.983   3.881   3.371 -0.1697 -0.1453 -0.4805
19704TIP3    H180603   0.907   3.939   3.375  0.7026  1.1989 -2.2881
19704TIP3    H280604   0.948   3.795   3.393 -1.8220  0.7657  0.6456
19705TIP3   OH280605   2.337   2.960  17.060 -0.2981  0.0060 -0.4032
19705TIP3    H180606   2.332   2.871  17.024  0.6052  0.4714 -1.7626
19705TIP3    H280607   2.378   3.012  16.991 -1.0744  1.5610  0.2436
19706TIP3   OH280608   0.166   1.057   1.271 -0.1305 -0.4611 -0.0775
19706TIP3    H180609   0.183   0.963   1.276 -0.2121 -0.4760 -0.0673
19706TIP3    H280610   0.165   1.086   1.362 -2.9911 -0.9850  0.1728
19707TIP3   OH280611   2.481   2.411  14.479  0.2412 -0.0922  0.0047
19707TIP3    H180612   2.556   2.443  14.429  2.3460 -0.7258  2.5263
19707TIP3    H280613   2.435   2.490  14.507  0.2551  0.3264 -1.1062
19708TIP3   OH280614   5.455   6.622   3.068 -0.2949 -0.1180  0.1958
19708TIP3    H180615   5.390   6.690   3.088 -0.1782 -0.3959  1.6423
19708TIP3    H280616   5.410   6.540   3.085  0.0852 -0.3526  0.0798
19709TIP3   OH280617   1.396   3.662   1.844  0.4422  0.0060  0.0871
19709TIP3    H180618   1.308   3.654   1.881  0.1093 -1.3167 -0.9095
19709TIP3    H280619   1.384   3.717   1.766  0.7305  0.8538  0.6305
19710TIP3   OH280620   0.425   1.401   0.011  0.6211  0.2853 -0.0366
19710TIP3    H180621   0.433   1.420  -0.083  0.4860 -1.0170 -0.3341
19710TIP3    H280622   0.417   1.487   0.052  1.4082  0.9268 -1.1468
19711TIP3   OH280623   1.812   6.077   5.018 -0.8003 -0.0177  0.6157
19711TIP3    H180624   1.902   6.106   5.003 -0.8050 -0.0517  0.5253
19711TIP3    H280625   1.786   6.036   4.936 -0.8814 -0.0516  0.6588
19712TIP3   OH280626   3.288   6.705   4.920 -1.1650 -0.1680 -0.4707
19712TIP3    H180627   3.289   6.788   4.872  1.7254 -0.6800 -1.4835
19712TIP3    H280628   3.231   6.648   4.867  0.9316 -0.3246 -2.7760
19713TIP3   OH280629   4.985   5.179   4.568  0.1448  0.4976  0.1045
19713TIP3    H180630   4.948   5.155   4.652  0.8047 -1.2869 -0.0834
19713TIP3    H280631   4.993   5.097   4.520  0.9524  1.3094 -1.2277
19714TIP3   OH280632   2.795   3.064  15.759 -0.2284  0.8319  0.2222
19714TIP3    H180633   2.795   3.122  15.683 -0.3474 -0.3399 -0.7018
19714TIP3    H280634   2.703   3.060  15.786 -0.8212 -1.4856 -1.7901
19715TIP3   OH280635   2.167   4.316   1.794 -0.0010 -0.1673 -0.1550
19715TIP3    H180636   2.223   4.242   1.819  0.9569  0.9193  1.0158
19715TIP3    H280637   2.185   4.383   1.859 -2.1649  0.4951 -0.1577
19716TIP3   OH280638   0.449   4.856  12.848 -0.2183 -0.1506  0.1763
19716TIP3    H180639   0.414   4.772  12.818  0.4343 -0.1891 -0.5082
19716TIP3    H280640   0.460   4.907  12.768  1.4632 -0.2147  0.3382
19717TIP3   OH280641   4.108   6.368  12.595 -0.4936 -0.2230  0.1960
19717TIP3    H180642   4.170   6.361  12.668  1.1460 -0.9739 -1.1997
19717TIP3    H280643   4.160   6.403  12.523 -2.0186  0.2690 -0.7060
19718TIP3   OH280644   0.598   1.651  17.150  0.1226 -0.2035  0.0593
19718TIP3    H180645   0.519   1.678  17.102  1.1867 -0.5878 -2.0261
19718TIP3    H280646   0.639   1.586  17.094  1.1762 -1.1389  1.8211
19719TIP3   OH280647   2.948   1.871  12.772 -0.1684 -0.3583 -0.3133
19719TIP3    H180648   2.941   1.786  12.728  0.7027 -1.0771  0.8791
19719TIP3    H280649   2.947   1.850  12.865 -0.4081  0.9984  0.0093
19720TIP3   OH280650   4.495   1.945  15.052  0.0510  0.0398  0.1310
19720TIP3    H180651   4.422   1.885  15.067 -2.0081  2.1867 -0.5978
19720TIP3    H280652   4.499   1.998  15.132  1.8456 -0.9692  0.7715
19721TIP3   OH280653   1.157   3.478  16.179  0.0141 -0.1595 -0.1177
19721TIP3    H180654   1.197   3.462  16.264  0.8814  0.3351 -0.4186
19721TIP3    H280655   1.067   3.448  16.188  0.1617 -0.3058  0.9056
19722TIP3   OH280656   4.626   0.765   5.100  0.0909 -0.5230 -0.1015
19722TIP3    H180657   4.667   0.799   5.180 -1.3554  0.5339  0.2379
19722TIP3    H280658   4.685   0.696   5.070  1.0266 -0.4650  1.4928
19723TIP3   OH280659   4.379   2.983   1.997  0.3040 -0.0891  0.4668
19723TIP3    H180660   4.329   3.065   2.004  0.5491  0.7246 -3.9059
19723TIP3    H280661   4.315   2.920   1.964  0.9255 -0.5854  0.1998
19724TIP3   OH280662   0.169   6.661  16.732 -0.7528 -0.5665 -0.1563
19724TIP3    H180663   0.197   6.609  16.807  0.7124 -1.2916 -1.1534
19724TIP3    H280664   0.238   6.647  16.666 -1.3223  1.0855 -1.1631
19725TIP3   OH280665   0.702   3.554   4.908  0.6575 -0.1403 -0.1880
19725TIP3    H180666   0.699   3.460   4.926 -1.9992 -0.2370 -0.8238
19725TIP3    H280667   0.690   3.562   4.814  1.2549  0.8565 -0.2065
19726TIP3   OH280668   0.112   4.337   0.131  0.0754 -0.0005 -0.3342
19726TIP3    H180669   0.174   4.388   0.079  0.0966  1.9980  1.4901
19726TIP3    H280670   0.112   4.380   0.217 -0.8612 -2.3840  0.9548
19727TIP3   OH280671   0.657   2.582  11.186 -0.2042 -0.3319  0.3901
19727TIP3    H180672   0.637   2.567  11.278  1.2246 -1.3220  0.5641
19727TIP3    H280673   0.652   2.495  11.146 -0.7739  0.0809 -0.4819
19728TIP3   OH280674   1.257   1.350   3.459  0.3587  0.7979  0.0886
19728TIP3    H180675   1.346   1.340   3.490 -0.0850  0.3127  1.2359
19728TIP3    H280676   1.224   1.428   3.505  0.4562  1.5144 -1.0003
19729TIP3   OH280677   3.439   4.457   5.016  0.0504 -0.1205 -0.3008
19729TIP3    H180678   3.357   4.413   5.040 -1.3983  2.0390 -1.0184
19729TIP3    H280679   3.432   4.544   5.056  1.2025  0.7033 -1.8186
19730TIP3   OH280680   4.659   5.206  13.756  0.1704 -0.5619 -0.2063
19730TIP3    H180681   4.697   5.293  13.749  1.1797 -1.0741 -1.5513
19730TIP3    H280682   4.599   5.199  13.682 -1.4829 -0.3120  1.0507
19731TIP3   OH280683   2.734   6.231  16.834  0.6970  0.0873 -0.0176
19731TIP3    H180684   2.690   6.147  16.834  0.2504  0.3195 -0.3561
19731TIP3    H280685   2.666   6.295  16.853  1.1991  0.2993  1.1800
19732TIP3   OH280686   3.853   4.722  11.582  0.0821 -0.5380 -0.3160
19732TIP3    H180687   3.808   4.641  11.558  1.4302 -0.6822 -2.7081
19732TIP3    H280688   3.927   4.726  11.522  0.9464  1.6950  0.8075
19733TIP3   OH280689   5.468   0.555   3.780 -0.1864 -0.1124  0.3611
19733TIP3    H180690   5.512   0.552   3.695 -0.8455  0.8134 -0.0276
19733TIP3    H280691   5.392   0.498   3.769 -0.5695  0.4288  0.1394
19734TIP3   OH280692   6.142   6.463   2.749 -0.1010 -0.0749  0.0320
19734TIP3    H180693   6.091   6.447   2.670 -0.4595 -0.2988  0.3050
19734TIP3    H280694   6.078   6.464   2.820  0.0968  1.0911  0.2158
19735TIP3   OH280695   0.507   3.708  13.214  0.1208  0.1944 -0.0844
19735TIP3    H180696   0.505   3.740  13.304  1.5260  1.4056 -0.4465
19735TIP3    H280697   0.537   3.617  13.221  0.0142  0.2128  0.6739
19736TIP3   OH280698   2.303   1.169   0.368 -0.4835 -0.4868 -0.3978
19736TIP3    H180699   2.284   1.131   0.454 -1.5591 -1.9183 -1.2212
19736TIP3    H280700   2.279   1.100   0.305 -0.9498  0.9742 -1.9061
19737TIP3   OH280701   2.272   6.237   2.577  0.5989 -0.0267 -0.7250
19737TIP3    H180702   2.234   6.156   2.544  1.2799 -0.5549 -0.2410
19737TIP3    H280703   2.332   6.266   2.508  1.9538 -1.0807 -0.0353
19738TIP3   OH280704   5.350   0.997   4.355 -0.6766 -0.3738 -0.1613
19738TIP3    H180705   5.356   1.061   4.426 -2.0741 -0.5037  0.0969
19738TIP3    H280706   5.321   1.048   4.280  3.4360  0.3497 -1.5287
19739TIP3   OH280707   4.842   6.760   1.687  0.4834 -1.0361  0.2028
19739TIP3    H180708   4.832   6.761   1.782 -1.4204 -1.9598  0.0563
19739TIP3    H280709   4.846   6.853   1.662  1.9385 -0.7909  1.2201
19740TIP3   OH280710   6.188   2.698  14.814 -0.3731 -0.0503  0.0052
19740TIP3    H180711   6.106   2.702  14.766  0.2432 -1.5576 -1.2500
19740TIP3    H280712   6.166   2.656  14.897 -0.9723  0.1627 -0.0463
19741TIP3   OH280713   3.126   5.821  15.789 -0.6139 -0.3229 -0.3295
19741TIP3    H180714   3.195   5.877  15.824 -0.5795 -1.2225  1.1456
19741TIP3    H280715   3.169   5.771  15.719 -0.7990  1.8239 -2.0938
19742TIP3   OH280716   1.707   3.235   1.004  0.7827 -0.3358 -0.0826
19742TIP3    H180717   1.736   3.147   1.028  1.7198 -0.0633 -0.1897
19742TIP3    H280718   1.631   3.251   1.060  0.8515 -1.0516  0.2290
19743TIP3   OH280719   6.081   1.408  12.247  0.1452 -0.2975  0.0535
19743TIP3    H180720   6.025   1.397  12.324  1.9515 -1.2138  1.3027
19743TIP3    H280721   6.101   1.318  12.220  1.7475  0.0021  0.2062
19744TIP3   OH280722   5.711   0.996   0.494  0.4473 -0.5169  0.2211
19744TIP3    H180723   5.618   0.983   0.475 -0.3077  0.8590  2.5692
19744TIP3    H280724   5.713   1.028   0.584  3.0540  1.4823 -0.4272
19745TIP3   OH280725   2.391   0.148   3.310 -0.0295 -0.3989 -0.6110
19745TIP3    H180726   2.321   0.086   3.290 -0.9402  0.2800  0.3583
19745TIP3    H280727   2.398   0.203   3.232 -0.8782 -0.2083 -0.5606
19746TIP3   OH280728   6.199   4.878  15.707 -0.1592 -0.0396 -0.4658
19746TIP3    H180729   6.121   4.911  15.663 -1.8271  0.0662  2.3850
19746TIP3    H280730   6.166   4.819  15.774  2.1293  0.6651  1.4130
19747TIP3   OH280731   3.539   3.091  14.566 -0.1951  0.1683 -0.2369
19747TIP3    H180732   3.455   3.081  14.521  0.4434  1.1633 -1.7479
19747TIP3    H280733   3.574   3.002  14.572 -0.4551 -0.0378 -1.4443
19748TIP3   OH280734   6.367   1.205  16.051 -0.2374  0.2099  0.2868
19748TIP3    H180735   6.339   1.293  16.026  0.6230  0.2895 -0.4379
19748TIP3    H280736   6.460   1.202  16.030 -0.3703 -1.0527 -0.2354
19749TIP3   OH280737   6.481   4.364   0.904 -0.5368  0.5735 -0.2561
19749TIP3    H180738   6.485   4.350   0.809  0.1365  1.8351 -0.4392
19749TIP3    H280739   6.423   4.440   0.915  0.2183  1.0952  0.2457
19750TIP3   OH280740   5.397   4.710  16.972  0.0014  0.6324 -0.1927
19750TIP3    H180741   5.312   4.750  16.953  0.7783  1.8366 -1.3164
19750TIP3    H280742   5.428   4.677  16.887  1.4489  1.8841 -0.2111
19751TIP3   OH280743   2.568   1.399  13.742 -0.6296  0.0626 -0.3844
19751TIP3    H180744   2.570   1.479  13.795  0.2145  0.5998 -1.1981
19751TIP3    H280745   2.661   1.380  13.725 -0.7085 -1.9467  1.0465
19752TIP3   OH280746   2.025   5.833   1.518 -0.3561 -0.5251 -0.4899
19752TIP3    H180747   2.109   5.876   1.502 -0.2410 -0.3057  0.5986
19752TIP3    H280748   1.987   5.881   1.592 -1.4349 -0.6337 -0.9552
19753TIP3   OH280749   3.059   5.588   0.145 -0.7192  0.3248 -0.3353
19753TIP3    H180750   3.093   5.537   0.071 -0.0383  0.6082 -0.2241
19753TIP3    H280751   3.100   5.673   0.136 -0.7636  0.4144  0.2822
19754TIP3   OH280752   6.483   0.372   2.895  0.1242 -0.3772 -0.3291
19754TIP3    H180753   6.545   0.441   2.918 -0.5379  0.3870 -0.7494
19754TIP3    H280754   6.398   0.405   2.925 -0.4020 -0.4183 -1.6664
19755TIP3   OH280755   6.220   5.956  12.239 -0.3495  0.2577  0.2474
19755TIP3    H180756   6.222   5.873  12.287 -0.2135 -0.4627 -0.9864
19755TIP3    H280757   6.300   6.001  12.267 -0.1823 -0.2283  0.5651
19756TIP3   OH280758   5.685   0.950  15.379 -0.4852 -0.2693 -0.1000
19756TIP3    H180759   5.681   0.924  15.287  0.3825 -1.8665  0.2668
19756TIP3    H280760   5.599   0.987  15.398 -1.1669 -1.2522 -1.1860
19757TIP3   OH280761   5.711   6.190   2.472  0.6747  0.0366  0.0155
19757TIP3    H180762   5.773   6.137   2.523 -1.2636 -2.0848  0.3610
19757TIP3    H280763   5.688   6.262   2.531  0.1818 -1.1144  1.2990
19758TIP3   OH280764   6.168   4.503   1.889 -0.4048  0.8529  0.0597
19758TIP3    H180765   6.087   4.454   1.879 -0.6644  1.3311 -0.2262
19758TIP3    H280766   6.206   4.505   1.802 -0.8879  1.9881 -0.1400
19759TIP3   OH280767   5.370   3.747  13.900  0.3646 -0.4869 -0.0233
19759TIP3    H180768   5.308   3.809  13.861  0.1136 -0.6659  0.0947
19759TIP3    H280769   5.407   3.794  13.975 -0.1785 -0.6527  0.3533
19760TIP3   OH280770   2.035   4.587   1.042  0.3454  0.6843 -0.3215
19760TIP3    H180771   2.120   4.544   1.035  0.4214  0.9432 -1.2349
19760TIP3    H280772   2.038   4.635   1.125  0.2883 -0.9636  0.6634
19761TIP3   OH280773   6.376   1.519  13.531  0.2916 -0.3367 -0.3193
19761TIP3    H180774   6.440   1.500  13.601 -0.2236 -2.4042 -0.3251
19761TIP3    H280775   6.292   1.497  13.570 -0.6053  3.0289 -0.0764
19762TIP3   OH280776   2.103   2.999  14.472 -0.0676 -0.2922  0.6937
19762TIP3    H180777   2.179   2.947  14.447 -0.5587  0.2133 -2.2075
19762TIP3    H280778   2.029   2.952  14.434 -0.7379  1.3184 -0.0728
19763TIP3   OH280779   2.993   5.683   0.488  0.2011 -0.3702 -0.1387
19763TIP3    H180780   2.947   5.607   0.453  1.3318  0.3209 -3.4245
19763TIP3    H280781   3.086   5.663   0.478  0.5467  0.7100  0.6622
19764TIP3   OH280782   1.608   4.040   0.124  0.2291  0.0437  0.3979
19764TIP3    H180783   1.537   4.080   0.073  0.5636  1.1575  0.7680
19764TIP3    H280784   1.675   4.108   0.128  0.0171  0.1840  2.6943
19765TIP3   OH280785   1.492   0.182   4.883 -0.2408 -0.1600 -0.0462
19765TIP3    H180786   1.581   0.209   4.858 -0.7359  0.7756 -0.8189
19765TIP3    H280787   1.455   0.259   4.925 -0.5517 -0.6969  0.6946
19766TIP3   OH280788   6.056   0.811  13.312  0.3091 -0.0046 -0.1360
19766TIP3    H180789   6.117   0.762  13.368 -1.6244 -2.4778 -0.0093
19766TIP3    H280790   5.978   0.824  13.367  0.2063  2.0254 -0.6771
19767TIP3   OH280791   6.093   3.804  17.081  0.1346  0.1301  0.0943
19767TIP3    H180792   5.997   3.805  17.077  0.1527  0.0358 -0.4741
19767TIP3    H280793   6.120   3.753  17.004  0.6423  0.1673  0.2403
19768TIP3   OH280794   1.550   5.777   0.341  0.7552  0.0666 -0.5855
19768TIP3    H180795   1.490   5.730   0.400  1.4273 -0.8747 -0.6210
19768TIP3    H280796   1.567   5.860   0.385  1.2756 -0.6319  0.5946
19769TIP3   OH280797   0.889   0.670  11.768 -0.1685 -0.7823 -0.1411
19769TIP3    H180798   0.936   0.751  11.789 -1.0302 -0.5021  0.7701
19769TIP3    H280799   0.829   0.696  11.698  0.1398 -0.8457 -0.4345
19770TIP3   OH280800   3.285   0.203   3.889 -0.6145  0.2404  0.4236
19770TIP3    H180801   3.352   0.196   3.957 -0.3517 -1.7184  0.0097
19770TIP3    H280802   3.204   0.177   3.933 -0.8109  0.9030  0.4706
19771TIP3   OH280803   3.372   1.936   5.598 -0.2373 -0.0947  0.3112
19771TIP3    H180804   3.307   1.919   5.529  2.2241 -0.3763 -2.0754
19771TIP3    H280805   3.385   1.851   5.640  0.7498 -0.7519 -1.2443
19772TIP3   OH280806   0.596   2.030  13.424  0.4585  0.2786  0.7669
19772TIP3    H180807   0.505   2.018  13.449 -0.0484 -0.6697 -1.3805
19772TIP3    H280808   0.596   2.107  13.367  0.8551 -0.2372  0.0627
19773TIP3   OH280809   6.109   2.455   3.179 -0.1336  0.3546 -0.5890
19773TIP3    H180810   6.152   2.465   3.265 -1.5414 -0.3908  0.2412
19773TIP3    H280811   6.115   2.542   3.139  0.8989  0.6152  0.0961
19774TIP3   OH280812   3.725   2.525  12.617  0.0964 -0.4410  0.2095
19774TIP3    H180813   3.738   2.617  12.642  0.9452 -0.6146  0.4211
19774TIP3    H280814   3.651   2.527  12.556  0.6196  0.4820 -0.4110
19775TIP3   OH280815   2.548   6.569  16.110  0.5216  0.2784 -0.0595
19775TIP3    H180816   2.498   6.544  16.187  2.1840 -0.6091  0.7976
19775TIP3    H280817   2.512   6.516  16.039 -0.7206  0.7681  0.1882
19776TIP3   OH280818   1.819   6.061   0.527 -0.5851  0.8933  0.2782
19776TIP3    H180819   1.739   6.055   0.474 -1.0541  1.6279  0.8847
19776TIP3    H280820   1.868   5.982   0.506 -0.3193  1.5775 -1.9662
19777TIP3   OH280821   5.770   0.422  14.514  0.1448 -0.4302  0.3363
19777TIP3    H180822   5.731   0.340  14.481  0.3011  0.6658 -2.9365
19777TIP3    H280823   5.854   0.427  14.469  0.0713  1.5777  0.3638
19778TIP3   OH280824   6.420   5.775  11.873  0.3934 -0.0124 -0.1555
19778TIP3    H180825   6.367   5.704  11.909 -0.4749  0.7451  0.0873
19778TIP3    H280826   6.488   5.789  11.939 -1.5525  1.7957  1.6168
19779TIP3   OH280827   5.433   5.141   2.877  0.0360  0.3582  0.0693
19779TIP3    H180828   5.351   5.153   2.829  0.7101  0.5099 -1.0861
19779TIP3    H280829   5.467   5.229   2.889  0.0363  0.2963  0.5739
19780TIP3   OH280830   0.223   3.220  12.181 -0.2544  0.3374 -0.0195
19780TIP3    H180831   0.162   3.219  12.107  0.8660 -0.3555 -0.9694
19780TIP3    H280832   0.241   3.312  12.197 -0.8406  0.5056 -0.3238
19781TIP3   OH280833   2.209   1.354  14.883  0.0993 -0.1620  0.2707
19781TIP3    H180834   2.128   1.311  14.911  0.1497 -0.3343  0.1554
19781TIP3    H280835   2.180   1.422  14.822  0.0802 -0.5961 -0.2121
19782TIP3   OH280836   4.306   3.569  14.989  0.3485  0.4059 -1.0014
19782TIP3    H180837   4.272   3.543  15.075  0.2794  0.2461 -1.0758
19782TIP3    H280838   4.385   3.516  14.977 -0.5647 -0.8405 -1.7681
19783TIP3   OH280839   5.798   0.772   3.765 -0.0146  0.6573  0.4638
19783TIP3    H180840   5.793   0.864   3.789 -0.3912  1.0924 -1.1634
19783TIP3    H280841   5.754   0.726   3.836 -1.8059  1.9395  0.2490
19784TIP3   OH280842   3.198   4.478  13.010 -0.2739  0.0443  0.6358
19784TIP3    H180843   3.142   4.468  12.933  1.3776 -1.9003 -0.4354
19784TIP3    H280844   3.151   4.433  13.080  0.0492 -1.9460 -0.3502
19785TIP3   OH280845   1.462   4.958   5.076 -0.3849  0.6739  0.4278
19785TIP3    H180846   1.440   4.870   5.106 -1.7347  0.2199 -1.6582
19785TIP3    H280847   1.401   5.015   5.124  0.2284  0.4640  1.4900
19786TIP3   OH280848   5.923   3.557   3.349  0.6367  0.3909 -0.3794
19786TIP3    H180849   5.845   3.502   3.339  1.2174 -0.3468 -0.9539
19786TIP3    H280850   5.897   3.642   3.312  0.6475 -0.3759 -2.2902
19787TIP3   OH280851   1.729   0.446   2.221 -0.1738 -0.1301  0.4710
19787TIP3    H180852   1.739   0.541   2.218  0.7151 -0.2165  0.5523
19787TIP3    H280853   1.705   0.428   2.312 -0.4645  0.0235  0.4270
19788TIP3   OH280854   6.769   1.380  11.322  0.0744 -0.2704 -0.3601
19788TIP3    H180855   6.674   1.391  11.317  0.1541  0.1100 -1.1327
19788TIP3    H280856   6.784   1.346  11.410 -0.4325  3.5967  1.4405
19789TIP3   OH280857   5.554   4.150  13.231 -0.1873 -0.3798 -0.2562
19789TIP3    H180858   5.486   4.124  13.292 -1.0032  1.0660 -0.5058
19789TIP3    H280859   5.514   4.143  13.145  0.1798 -0.1427 -0.4522
19790TIP3   OH280860   2.030   2.562  14.995 -0.3160  0.2818 -0.1710
19790TIP3    H180861   1.971   2.546  15.068 -0.2062  1.6035  0.2354
19790TIP3    H280862   1.972   2.569  14.919 -0.4924 -0.4268 -0.1051
19791TIP3   OH280863   3.960   4.431  15.584 -0.4289 -0.2933 -0.1758
19791TIP3    H180864   3.974   4.389  15.668 -1.1001 -0.6137 -0.2204
19791TIP3    H280865   4.041   4.480  15.568 -1.0207  1.3998  1.5944
19792TIP3   OH280866   2.624   2.178  15.046 -0.0114 -0.2949 -0.3451
19792TIP3    H180867   2.544   2.202  14.999 -0.5351 -1.0112  0.1580
19792TIP3    H280868   2.670   2.261  15.060  0.6138 -0.1194 -2.9047
19793TIP3   OH280869   5.283   6.220  15.099  0.4152 -0.3462  0.1044
19793TIP3    H180870   5.372   6.244  15.125  0.3095 -0.9302  1.0440
19793TIP3    H280871   5.238   6.202  15.181 -0.6830  0.2768 -0.3321
19794TIP3   OH280872   2.799   5.885  10.975  0.3319 -0.0123 -0.3017
19794TIP3    H180873   2.869   5.832  10.937  1.1240  0.8593 -0.0766
19794TIP3    H280874   2.732   5.887  10.906 -0.4024 -2.5390  0.2439
19795TIP3   OH280875   6.587   6.276  14.671  0.1940  0.1587  0.2048
19795TIP3    H180876   6.573   6.330  14.749  1.9309 -0.7558  1.1926
19795TIP3    H280877   6.682   6.277  14.657  0.0652 -0.9952 -0.9615
19796TIP3   OH280878   1.700   4.107  15.182  0.3615  0.4107  0.4322
19796TIP3    H180879   1.736   4.020  15.170  1.5350  0.5644  2.4149
19796TIP3    H280880   1.739   4.139  15.263  0.3603  2.9942 -0.4744
19797TIP3   OH280881   4.095   5.743   3.819  0.2905  0.3961 -0.5958
19797TIP3    H180882   4.032   5.710   3.754  0.7875 -1.1302 -0.3399
19797TIP3    H280883   4.148   5.667   3.841  0.4911  1.0193  1.2046
19798TIP3   OH280884   1.273   3.048   5.692 -0.3938  0.7624  0.2793
19798TIP3    H180885   1.352   3.018   5.737  0.1144  0.2799 -0.8930
19798TIP3    H280886   1.274   3.002   5.608 -2.6553 -0.3624  0.7676
19799TIP3   OH280887   3.475   2.416   4.653 -0.5564  0.0599  0.1981
19799TIP3    H180888   3.502   2.439   4.564  1.4960 -1.6889  0.2907
19799TIP3    H280889   3.387   2.382   4.643  0.4716 -2.3545 -1.6221
19800TIP3   OH280890   6.615   2.382  12.875  0.0064 -0.2514  0.2862
19800TIP3    H180891   6.631   2.430  12.794 -2.0566  0.2297  0.1126
19800TIP3    H280892   6.573   2.301  12.848 -1.1898  0.1506  0.8829
19801TIP3   OH280893   6.368   3.994   4.432 -0.1721  0.1306  0.0956
19801TIP3    H180894   6.353   4.077   4.388 -2.1511 -0.9961 -1.5013
19801TIP3    H280895   6.352   4.012   4.525 -1.6851  1.2931 -0.3638
19802TIP3   OH280896   6.698   3.894   3.639 -0.9290  0.3297 -0.0715
19802TIP3    H180897   6.743   3.917   3.720  1.7950 -1.4495 -0.9341
19802TIP3    H280898   6.606   3.886   3.663 -0.3891  1.1365  2.5257
19803TIP3   OH280899   2.051   2.423   1.068  0.0022 -0.2579 -0.4654
19803TIP3    H180900   2.031   2.516   1.061 -0.5356 -0.2889  0.4912
19803TIP3    H280901   1.969   2.378   1.047  0.4453 -0.5519 -1.6405
19804TIP3   OH280902   2.233   5.316  14.629 -1.0655 -0.5206  0.2601
19804TIP3    H180903   2.309   5.308  14.688 -0.1198 -2.4765 -1.1116
19804TIP3    H280904   2.271   5.336  14.544 -2.3082  0.7973 -0.0251
19805TIP3   OH280905   5.426   1.532   5.169  0.5111  0.1207 -0.4679
19805TIP3    H180906   5.413   1.455   5.224 -1.1821 -1.5500 -3.0267
19805TIP3    H280907   5.370   1.599   5.208  1.0614 -0.2771  1.0791
19806TIP3   OH280908   2.589   4.975  13.320  0.1886 -0.1809  0.0883
19806TIP3    H180909   2.502   4.962  13.355  0.3337 -2.2278 -0.2223
19806TIP3    H280910   2.624   4.887  13.306  1.7655  0.5732 -1.1270
19807TIP3   OH280911   0.294   1.669  15.374 -0.3676  0.1615  0.0156
19807TIP3    H180912   0.241   1.745  15.350 -0.3189  0.1947  0.0142
19807TIP3    H280913   0.333   1.640  15.292  0.4517  0.7689  0.1838
19808TIP3   OH280914   2.787   6.797  13.277 -0.6285 -0.3689  0.3668
19808TIP3    H180915   2.861   6.744  13.250 -0.4412  0.2050 -0.2553
19808TIP3    H280916   2.792   6.798  13.373  0.9111  0.6941  0.3068
19809TIP3   OH280917   1.229   1.680  14.958  0.3804 -0.8617  0.4147
19809TIP3    H180918   1.325   1.676  14.956  0.3303 -2.1941 -0.3818
19809TIP3    H280919   1.201   1.589  14.963 -0.8587 -0.4387  3.0681
19810TIP3   OH280920   1.290   6.765   4.646 -0.0143  0.6587  0.8875
19810TIP3    H180921   1.328   6.819   4.715 -0.6643  1.5741  0.5397
19810TIP3    H280922   1.199   6.793   4.641  0.2422  1.2446 -0.9511
19811TIP3   OH280923   5.046   3.189  16.351  0.1677  0.3573  0.0354
19811TIP3    H180924   5.035   3.115  16.411  2.1219  0.1310  0.1690
19811TIP3    H280925   4.979   3.176  16.285 -0.5042 -0.6924  0.8811
19812TIP3   OH280926   0.609   0.130  15.806  0.1809 -1.2384 -0.1929
19812TIP3    H180927   0.546   0.103  15.739  0.2455 -2.7510  0.3294
19812TIP3    H280928   0.556   0.174  15.872  0.1286  0.3639 -1.2360
19813TIP3   OH280929   2.457   6.284   0.600  0.1869 -0.3890 -0.1133
19813TIP3    H180930   2.387   6.322   0.653  1.0479  0.9546  0.1229
19813TIP3    H280931   2.520   6.251   0.664  0.5604 -0.0529 -0.3030
19814TIP3   OH280932   4.179   6.021   5.898 -0.3513 -0.0180 -0.5828
19814TIP3    H180933   4.201   5.930   5.921 -0.4231  0.0058 -0.4195
19814TIP3    H280934   4.133   6.055   5.975 -0.7396  0.0117 -0.8207
19815TIP3   OH280935   1.691   0.201   0.336 -0.6251 -0.0068  0.2916
19815TIP3    H180936   1.784   0.207   0.359 -0.7860  0.6805  0.8029
19815TIP3    H280937   1.676   0.108   0.323  0.3724 -0.0383 -0.8301
19816TIP3   OH280938   6.318   1.854   3.410  0.0035 -0.0003 -0.3666
19816TIP3    H180939   6.350   1.943   3.394  0.2623  0.0205  0.2418
19816TIP3    H280940   6.391   1.810   3.454  0.3519 -0.8936 -1.7772
19817TIP3   OH280941   2.063   2.191   3.347 -0.0593  0.7278  0.0350
19817TIP3    H180942   2.139   2.200   3.405 -0.1588  1.1808  0.0977
19817TIP3    H280943   2.049   2.096   3.342 -0.6408  0.7042  1.5341
19818TIP3   OH280944   2.235   4.004  15.218 -0.5766 -0.3563  0.0384
19818TIP3    H180945   2.284   4.018  15.299  2.1651 -0.8152 -1.4284
19818TIP3    H280946   2.223   3.909  15.213 -1.4529 -0.2730  0.2348
19819TIP3   OH280947   5.722   5.848   5.288 -0.3515  0.7620  0.1819
19819TIP3    H180948   5.738   5.933   5.328  1.4659  0.7901 -0.4755
19819TIP3    H280949   5.711   5.867   5.195  0.3437  0.2848 -0.0125
19820TIP3   OH280950   0.504   0.948  13.571  0.2784 -0.2172 -0.2954
19820TIP3    H180951   0.427   0.972  13.622  0.2273 -0.1954 -0.3824
19820TIP3    H280952   0.553   0.889  13.627  0.2341 -0.1743 -0.2121
19821TIP3   OH280953   5.071   3.571  11.912 -0.5503 -0.2754  0.0320
19821TIP3    H180954   5.016   3.565  11.990 -1.2487 -1.5427 -0.5356
19821TIP3    H280955   5.013   3.547  11.839  0.6099 -1.1427 -0.6392
19822TIP3   OH280956   3.418   5.397   1.999 -0.1991 -0.0254 -0.4325
19822TIP3    H180957   3.351   5.466   2.001 -0.9834 -0.7097 -1.7350
19822TIP3    H280958   3.454   5.402   1.910  1.4731  0.3001  0.2293
19823TIP3   OH280959   5.517   3.380   4.620  0.4196  0.7217 -0.3218
19823TIP3    H180960   5.565   3.426   4.688  2.6132 -0.2113 -1.1433
19823TIP3    H280961   5.492   3.448   4.558  0.6768  1.2378  0.1336
19824TIP3   OH280962   1.663   5.819   0.711 -0.2556 -0.5505  0.0274
19824TIP3    H180963   1.731   5.850   0.652 -1.3532  1.6246 -0.1914
19824TIP3    H280964   1.582   5.832   0.664 -1.2819  2.3171  2.2810
19825TIP3   OH280965   6.811   4.947  15.402  0.2914 -0.0683  0.5870
19825TIP3    H180966   6.825   5.026  15.454  1.5208  1.0606 -1.3430
19825TIP3    H280967   6.898   4.909  15.391 -0.1369 -1.0698  0.5370
19826TIP3   OH280968   1.382   0.336  14.529 -0.0155 -0.1807 -0.2044
19826TIP3    H180969   1.380   0.243  14.505  1.1053 -0.0204 -1.0221
19826TIP3    H280970   1.326   0.379  14.464 -1.8336 -0.4416  1.1234
19827TIP3   OH280971   0.232   0.000   6.188 -0.0645  0.9958  0.2957
19827TIP3    H180972   0.217   0.092   6.211  0.1072  0.9351  0.6448
19827TIP3    H280973   0.327  -0.007   6.178 -0.0388  0.7563  0.6927
19828TIP3   OH280974   4.761   2.209  10.286 -0.2891  0.1044  0.3964
19828TIP3    H180975   4.850   2.175  10.298  0.0934  1.0074  0.1945
19828TIP3    H280976   4.730   2.227  10.374  0.0555  0.5917  0.4211
19829TIP3   OH280977   4.843   5.784   1.294  0.0740  0.1377  0.2088
19829TIP3    H180978   4.802   5.701   1.269  3.3271 -1.7426  0.6898
19829TIP3    H280979   4.874   5.821   1.211 -0.4170  0.3593  0.1186
19830TIP3   OH280980   4.365   4.741  10.225 -0.2004 -0.1990  0.3086
19830TIP3    H180981   4.392   4.827  10.257  1.1235  0.4559 -2.2806
19830TIP3    H280982   4.296   4.759  10.162  2.6997 -0.4332 -3.2782
19831TIP3   OH280983   5.793   3.122   0.302 -0.2233 -0.4842 -0.3908
19831TIP3    H180984   5.868   3.147   0.356  0.0050 -1.9646  0.0305
19831TIP3    H280985   5.724   3.103   0.366  0.0189 -2.1571 -0.5792
19832TIP3   OH280986   0.709   5.148  11.659  0.1796 -0.3020  0.4644
19832TIP3    H180987   0.697   5.210  11.587  0.9048 -0.2307  0.4035
19832TIP3    H280988   0.689   5.062  11.620 -0.9580 -0.1130  0.5824
19833TIP3   OH280989   2.569   3.986  17.119 -0.0397  0.3356 -0.3180
19833TIP3    H180990   2.579   4.040  17.041 -0.6588 -0.0679 -0.6882
19833TIP3    H280991   2.481   3.948  17.111  0.1477 -0.2380  0.2402
19834TIP3   OH280992   1.488   3.238  13.805 -0.0120 -0.2193  0.6540
19834TIP3    H180993   1.457   3.165  13.859  1.9312 -1.1022  0.6554
19834TIP3    H280994   1.567   3.269  13.850  1.0711 -0.3098 -1.0895
19835TIP3   OH280995   3.145   3.314  15.594  0.3816  0.4735 -0.1623
19835TIP3    H180996   3.151   3.228  15.636 -2.4286 -0.3453 -1.2329
19835TIP3    H280997   3.059   3.348  15.620 -0.4590  0.9751 -3.2297
19836TIP3   OH280998   5.490   2.813  15.033  0.1320  0.5605 -0.8680
19836TIP3    H180999   5.552   2.885  15.042  0.6957 -0.1504  1.6245
19836TIP3    H281000   5.406   2.849  15.063  0.7559 -0.1540  2.0542
19837TIP3   OH281001   6.654   2.032   0.333  0.2895  0.0877  0.2788
19837TIP3    H181002   6.633   2.031   0.240  1.4044  3.6810 -0.1766
19837TIP3    H281003   6.741   1.992   0.338  0.3121  0.0542 -0.2733
19838TIP3   OH281004   6.183   0.205  14.580 -0.0564 -0.0713  0.0556
19838TIP3    H181005   6.104   0.161  14.611  0.1064 -0.3395  0.0985
19838TIP3    H281006   6.160   0.298  14.577 -0.1561 -0.0693  0.7467
19839TIP3   OH281007   6.764   6.578   4.423  0.5024  0.0459  0.5562
19839TIP3    H181008   6.813   6.553   4.501 -2.2470  0.4730  2.6114
19839TIP3    H281009   6.719   6.498   4.396  1.5424 -0.1337 -0.7428
19840TIP3   OH281010   3.448   3.117  12.456  0.4780 -0.3254  0.6075
19840TIP3    H181011   3.426   3.155  12.541 -0.1176  0.7035  0.0176
19840TIP3    H281012   3.543   3.104  12.459  0.9003  2.2722  0.4505
19841TIP3   OH281013   5.586   0.385   0.457 -0.0349 -0.3156  0.0275
19841TIP3    H181014   5.671   0.355   0.487  0.0731 -1.3115 -1.2241
19841TIP3    H281015   5.592   0.384   0.362 -1.0363  0.8278 -0.0778
19842TIP3   OH281016   6.472   3.243  12.781  0.1989  0.2519  0.5230
19842TIP3    H181017   6.466   3.185  12.857  0.3063 -0.9618 -0.3554
19842TIP3    H281018   6.387   3.233  12.737  0.1825  0.8506  0.4060
19843TIP3   OH281019   0.332   1.964   4.069  0.3902  0.2487 -0.4292
19843TIP3    H181020   0.384   2.045   4.064 -1.2432  1.4168  0.4283
19843TIP3    H281021   0.353   1.917   3.988  2.4303  0.8487 -0.2935
19844TIP3   OH281022   0.488   6.180   5.898 -0.4394 -0.1961 -0.4406
19844TIP3    H181023   0.526   6.168   5.984 -0.2375 -1.7279 -0.7215
19844TIP3    H281024   0.396   6.201   5.915 -0.3638 -0.3223  0.1440
19845TIP3   OH281025   3.724   6.127   0.767  0.2482 -0.3287  0.7603
19845TIP3    H181026   3.760   6.133   0.855  1.1830  1.2314  0.3160
19845TIP3    H281027   3.796   6.153   0.710 -1.0024  1.0364 -0.2915
19846TIP3   OH281028   2.389   1.455   0.378  0.1452  0.7669 -0.4032
19846TIP3    H181029   2.304   1.498   0.388  0.5737  1.3700  0.8804
19846TIP3    H281030   2.371   1.362   0.391 -0.4203  0.8037 -0.8701
19847TIP3   OH281031   2.415   1.748   4.707  0.2976 -0.0381  0.3823
19847TIP3    H181032   2.417   1.702   4.791 -0.2042  0.4683  0.6825
19847TIP3    H281033   2.493   1.716   4.661  0.0792 -1.0179  0.6584
19848TIP3   OH281034   2.883   6.775  12.567  0.6551  0.3038 -0.1279
19848TIP3    H181035   2.813   6.711  12.576  0.8164  0.2624  0.9541
19848TIP3    H281036   2.963   6.725  12.584  0.8370  0.6583  0.0631
19849TIP3   OH281037   2.395   5.843   2.728 -0.4365  0.6515 -0.4538
19849TIP3    H181038   2.469   5.788   2.755 -2.0044 -0.3088  2.2491
19849TIP3    H281039   2.436   5.922   2.695  1.8452 -0.7875 -1.3666
19850TIP3   OH281040   2.192   6.481  16.124  0.0870  0.2365  0.0764
19850TIP3    H181041   2.189   6.577  16.131 -0.7118  0.1296  1.9187
19850TIP3    H281042   2.245   6.454  16.199 -0.0605 -0.7751 -0.1753
19851TIP3   OH281043   4.902   5.750   4.176  0.4565 -0.3658 -0.4021
19851TIP3    H181044   4.956   5.829   4.181 -0.7020  0.6629 -2.6672
19851TIP3    H281045   4.882   5.740   4.083 -1.2291 -2.1011  0.0731
19852TIP3   OH281046   3.155   2.374  14.523 -0.2364  0.3571 -0.2697
19852TIP3    H181047   3.125   2.298  14.572 -1.4483  0.5404 -0.7034
19852TIP3    H281048   3.117   2.449  14.569  0.4226  0.6619 -0.2135
19853TIP3   OH281049   0.065   2.550  16.522  0.6465 -0.1820 -0.4331
19853TIP3    H181050   0.014   2.472  16.499  0.0345 -0.0328  0.3559
19853TIP3    H281051   0.078   2.596  16.439  0.5302 -0.8362 -0.8194
19854TIP3   OH281052   4.269   4.183   3.173 -0.0155  0.3435 -0.2866
19854TIP3    H181053   4.227   4.269   3.165 -1.6577 -0.3876  0.0272
19854TIP3    H281054   4.341   4.198   3.234 -1.3504  1.1707  1.1801
19855TIP3   OH281055   0.808   2.543  15.948 -0.4482  0.2369  0.7174
19855TIP3    H181056   0.804   2.470  16.009  0.5545  0.4221  1.0316
19855TIP3    H281057   0.757   2.613  15.990 -2.0382 -0.4879  0.0757
19856TIP3   OH281058   5.328   6.763   6.028 -0.0336 -0.3271 -0.0804
19856TIP3    H181059   5.248   6.815   6.030  1.4799  2.1906  2.5265
19856TIP3    H281060   5.311   6.689   6.086 -0.5026  0.1781  0.4371
19857TIP3   OH281061   4.531   5.819   0.618 -0.5499 -0.4682 -0.8317
19857TIP3    H181062   4.503   5.803   0.708 -1.8891  1.9216 -0.7450
19857TIP3    H281063   4.465   5.773   0.565  0.1517 -1.7443 -0.6427
19858TIP3   OH281064   6.804   6.520   4.046  0.2771 -0.1751  0.2947
19858TIP3    H181065   6.721   6.485   4.078 -0.5540  2.6582  1.5930
19858TIP3    H281066   6.799   6.512   3.951 -2.0158  0.8418  0.2549
19859TIP3   OH281067   2.541   3.479  12.319  0.8175 -0.5654 -0.4584
19859TIP3    H181068   2.479   3.414  12.352  0.5092  0.3440  0.8205
19859TIP3    H281069   2.618   3.469  12.374  0.1551  1.2345  0.9002
19860TIP3   OH281070   1.831   5.081  12.689  0.0715 -0.4451 -0.0354
19860TIP3    H181071   1.898   5.044  12.632 -0.8117 -1.8257 -0.2174
19860TIP3    H281072   1.879   5.118  12.762  1.0515 -1.0984 -0.3372
19861TIP3   OH281073   5.953   3.766   2.806  0.3170  0.2490  0.6238
19861TIP3    H181074   6.037   3.721   2.807  0.2029  0.0294  1.6721
19861TIP3    H281075   5.902   3.725   2.876 -2.0409 -2.1169 -2.1797
19862TIP3   OH281076   5.922   1.226   4.123 -0.4513  0.0605 -0.2616
19862TIP3    H181077   5.972   1.147   4.103  0.1572  0.1095  0.9834
19862TIP3    H281078   5.864   1.200   4.195 -2.9220 -0.2513 -2.2043
19863TIP3   OH281079   4.341   4.990   4.801 -0.1048  0.5972 -0.2408
19863TIP3    H181080   4.376   4.929   4.867  0.1479 -0.2234 -1.1174
19863TIP3    H281081   4.313   5.066   4.852 -0.8022 -0.4077  0.9249
19864TIP3   OH281082   4.157   1.932  12.361  0.4392  0.2673 -0.2059
19864TIP3    H181083   4.229   1.962  12.307 -0.5272  0.5963 -1.3507
19864TIP3    H281084   4.189   1.851  12.401  0.6397 -0.8584 -2.5197
19865TIP3   OH281085   0.375   5.153   4.529  0.0718  0.4649  0.3013
19865TIP3    H181086   0.379   5.080   4.590 -2.4791 -0.5552 -0.6400
19865TIP3    H281087   0.423   5.123   4.452 -1.9823 -0.8094 -0.5627
19866TIP3   OH281088   0.371   6.118  11.863  0.0289  0.2781  0.2930
19866TIP3    H181089   0.415   6.108  11.948  4.1039 -0.8943 -1.6775
19866TIP3    H281090   0.395   6.039  11.814 -0.2549  1.8614 -2.6649
19867TIP3   OH281091   0.775   5.830   1.301  0.6887 -0.4501 -0.0028
19867TIP3    H181092   0.754   5.797   1.388 -0.8107 -0.0660 -0.1825
19867TIP3    H281093   0.870   5.818   1.292  0.6762 -1.6143  1.1924
19868TIP3   OH281094   2.038   0.481  16.112  0.1044  0.2020 -0.0939
19868TIP3    H181095   2.034   0.542  16.038  2.2639  0.4232 -0.1030
19868TIP3    H281096   2.131   0.481  16.137  0.2173 -3.1265 -0.1383
19869TIP3   OH281097   1.292   4.537  13.354  0.2579 -0.0858 -0.1911
19869TIP3    H181098   1.323   4.551  13.264  1.7152 -1.0651  0.1185
19869TIP3    H281099   1.226   4.605  13.367 -0.0306  0.0429 -2.0148
19870TIP3   OH281100   1.443   1.252  16.160 -0.5326  0.4346 -0.0298
19870TIP3    H181101   1.359   1.295  16.178 -1.0506 -0.2323 -0.7682
19870TIP3    H281102   1.440   1.232  16.067  0.8323  1.1772 -0.2581
19871TIP3   OH281103   3.683   2.721   4.864  0.2355  0.2112 -0.1183
19871TIP3    H181104   3.592   2.710   4.890  0.8165 -0.8164  1.6478
19871TIP3    H281105   3.681   2.716   4.769 -1.7032  1.6172 -0.2181
19872TIP3   OH281106   6.053   6.419   0.279 -0.3439  0.2981  0.8113
19872TIP3    H181107   6.063   6.362   0.355  0.2980  0.7850  1.0974
19872TIP3    H281108   6.121   6.391   0.218 -0.8677 -0.1032  0.3941
19873TIP3   OH281109   2.971   3.700  12.956 -0.5519  0.4952 -0.5037
19873TIP3    H181110   3.007   3.787  12.936 -0.4657  0.7787  0.7663
19873TIP3    H281111   3.030   3.666  13.024 -1.1089 -0.1814 -0.3541
19874TIP3   OH281112   3.432   5.981   4.160  0.1335 -0.0914  0.1307
19874TIP3    H181113   3.449   5.905   4.105  0.5705 -0.3968  0.6688
19874TIP3    H281114   3.422   6.054   4.099 -0.3608 -0.5901 -0.3927
19875TIP3   OH281115   4.082   4.200  12.268  0.2751 -0.0959 -0.4431
19875TIP3    H181116   4.061   4.168  12.181 -1.3910 -1.7887  0.5272
19875TIP3    H281117   4.141   4.134  12.305  0.4660  0.2847 -0.0570
19876TIP3   OH281118   0.154   5.080   0.319  0.5968  0.0010 -0.1413
19876TIP3    H181119   0.191   5.049   0.237 -1.7693  0.7739 -1.6171
19876TIP3    H281120   0.140   5.001   0.371  2.7110 -0.4366 -0.1688
19877TIP3   OH281121   3.983   5.559  13.657 -0.6260 -0.0554  0.0789
19877TIP3    H181122   3.922   5.600  13.596  0.4169 -0.1756 -1.0805
19877TIP3    H281123   4.027   5.491  13.606  0.3462 -0.0936  0.9239
19878TIP3   OH281124   0.332   0.013  14.794 -0.0549 -0.2729 -0.7566
19878TIP3    H181125   0.259  -0.015  14.738  0.0258 -0.8999 -0.5449
19878TIP3    H281126   0.382   0.072  14.738 -1.0032  0.5823 -0.7403
19879TIP3   OH281127   1.765   2.706  14.101  0.2422  0.0832 -0.0006
19879TIP3    H181128   1.750   2.677  14.011  2.2117 -0.0164 -0.3409
19879TIP3    H281129   1.840   2.764  14.096  0.4201  0.0455  1.5952
19880TIP3   OH281130   1.707   4.305   1.252 -0.2534  0.0377  0.3819
19880TIP3    H181131   1.709   4.354   1.334 -2.5884 -0.8968  1.0565
19880TIP3    H281132   1.627   4.334   1.208  0.2597 -0.4809 -0.9633
19881TIP3   OH281133   1.060   0.952  12.115  0.0282 -0.4747 -0.0308
19881TIP3    H181134   1.092   1.040  12.134 -0.0479 -0.4472 -0.0331
19881TIP3    H281135   1.129   0.894  12.149 -0.1132 -0.4249  0.3507
19882TIP3   OH281136   0.866   3.711   4.587 -0.2451  0.2617 -0.6893
19882TIP3    H181137   0.877   3.765   4.509 -0.9620  1.2311 -0.1459
19882TIP3    H281138   0.772   3.690   4.589  0.1834 -2.1130 -1.5754
19883TIP3   OH281139   5.971   1.376  12.504 -0.3548  0.1863  0.8414
19883TIP3    H181140   5.889   1.328  12.516 -1.0542  0.6872 -1.4843
19883TIP3    H281141   5.962   1.453  12.560 -1.6686  0.4360  0.3226
19884TIP3   OH281142   6.373   6.231  16.951  0.2274  0.5225 -0.2740
19884TIP3    H181143   6.332   6.275  17.026 -1.8795 -2.9635  0.8726
19884TIP3    H281144   6.330   6.270  16.874 -0.2114  1.6682  0.5240
19885TIP3   OH281145   0.811   1.790   4.551  0.2857 -0.2878 -0.3446
19885TIP3    H181146   0.723   1.828   4.549  0.4091  0.0113 -0.1772
19885TIP3    H281147   0.798   1.697   4.532  0.1844  0.1946 -2.9629
19886TIP3   OH281148   0.995   1.162   6.106  0.5328 -0.0968 -0.0228
19886TIP3    H181149   1.053   1.148   6.181  1.1843  0.9690 -0.3065
19886TIP3    H281150   0.976   1.256   6.108 -1.3149 -0.4304  0.1344
19887TIP3   OH281151   2.117   2.648  16.079 -1.1976 -0.0606  0.5659
19887TIP3    H181152   2.092   2.703  16.153  2.9146  0.8729  1.4801
19887TIP3    H281153   2.138   2.710  16.009 -0.1803 -0.6642  0.3233
19888TIP3   OH281154   3.867   3.700   5.355  0.4016  0.0004  0.0816
19888TIP3    H181155   3.953   3.722   5.321  0.5771 -1.3590 -0.4145
19888TIP3    H281156   3.862   3.604   5.348 -0.5280 -0.0934  1.5595
19889TIP3   OH281157   2.879   1.091   2.767 -0.3481  0.1537  0.0214
19889TIP3    H181158   2.949   1.151   2.795 -1.0521  0.3146  1.5534
19889TIP3    H281159   2.924   1.026   2.713  0.5322  1.7268 -1.2550
19890TIP3   OH281160   0.909   5.071   4.663  0.6607 -0.0076  0.4349
19890TIP3    H181161   0.988   5.017   4.654 -0.4950 -1.8149  0.6795
19890TIP3    H281162   0.942   5.157   4.686  2.5879 -0.6580  0.2803
19891TIP3   OH281163   1.618   2.980  16.603 -0.0450 -0.0369 -0.5297
19891TIP3    H181164   1.680   3.005  16.671 -1.3363  0.2328  0.5753
19891TIP3    H281165   1.658   2.902  16.563  0.3655 -0.6971  1.0681
19892TIP3   OH281166   0.615   2.369  13.651 -0.8671  0.4408  0.2148
19892TIP3    H181167   0.710   2.355  13.647 -0.5814  2.3132 -2.8994
19892TIP3    H281168   0.604   2.451  13.699 -0.8686  0.4036  0.2773
19893TIP3   OH281169   0.657   0.640  12.915  0.5846 -0.6565  0.2409
19893TIP3    H181170   0.645   0.549  12.939  0.1754 -0.5953  0.2734
19893TIP3    H281171   0.568   0.673  12.901  0.7654 -0.4288 -0.3735
19894TIP3   OH281172   0.215   3.984   3.072  0.0189 -0.1231 -0.2326
19894TIP3    H181173   0.137   3.970   3.019 -0.4171 -0.8523  0.5791
19894TIP3    H281174   0.276   3.916   3.043  0.8742  1.1909 -1.7409
19895TIP3   OH281175   4.319   2.094   4.231  0.0942  0.4975 -0.2587
19895TIP3    H181176   4.293   2.006   4.206 -0.2579  0.5228  0.0039
19895TIP3    H281177   4.247   2.150   4.200  0.6882  0.7930 -1.1413
19896TIP3   OH281178   5.804   4.182  13.927 -0.3407 -0.3776 -0.4539
19896TIP3    H181179   5.873   4.125  13.961 -1.0074 -1.1195 -0.3207
19896TIP3    H281180   5.797   4.253  13.991 -0.5250 -0.9445  0.1643
19897TIP3   OH281181   3.528   1.464  13.135 -0.2874 -0.0894  0.2538
19897TIP3    H181182   3.622   1.478  13.149 -0.3362  0.8770 -0.3273
19897TIP3    H281183   3.495   1.438  13.221  0.3018  0.7613  0.7541
19898TIP3   OH281184   5.349   6.012  15.963 -0.0571  0.0513  0.0213
19898TIP3    H181185   5.254   5.998  15.958  0.0002 -0.4340  0.2629
19898TIP3    H281186   5.372   6.049  15.878 -0.1768 -1.5665 -0.7545
19899TIP3   OH281187   1.631   5.098   0.987  0.3474 -0.0100 -0.0524
19899TIP3    H181188   1.625   5.163   1.058 -2.2299  0.7227 -0.8565
19899TIP3    H281189   1.650   5.151   0.909  0.3248 -0.4939 -0.3851
19900TIP3   OH281190   3.616   1.100  13.788 -0.1033  0.4763 -0.2063
19900TIP3    H181191   3.624   1.184  13.743 -2.8848  0.7703 -0.3285
19900TIP3    H281192   3.523   1.078  13.782 -0.1727 -0.7616  3.0936
19901TIP3   OH281193   5.515   4.701   0.641 -0.3989 -0.4503  0.0023
19901TIP3    H181194   5.459   4.624   0.650 -1.3376  0.1570 -0.5561
19901TIP3    H281195   5.595   4.667   0.599 -1.4656 -0.8588 -1.8187
19902TIP3   OH281196   3.895   0.236   2.568 -0.3878  0.0417 -0.0616
19902TIP3    H181197   3.954   0.249   2.642 -1.4771  0.3514  0.7789
19902TIP3    H281198   3.953   0.237   2.491  0.7961 -0.5612  0.7827
19903TIP3   OH281199   4.990   3.984  10.840  0.2202 -0.1014 -0.4567
19903TIP3    H181200   5.002   3.953  10.930 -0.5614  0.4550 -0.1396
19903TIP3    H281201   4.917   3.931  10.806  1.1332 -0.9741 -1.1079
19904TIP3   OH281202   5.780   2.621   3.350  0.0046  0.4997 -0.0088
19904TIP3    H181203   5.693   2.652   3.374  0.4367  0.1403  2.1706
19904TIP3    H281204   5.772   2.526   3.353  0.2602  0.4525 -0.7000
19905TIP3   OH281205   5.890   6.760   1.577 -0.2142  0.4648 -0.0332
19905TIP3    H181206   5.895   6.702   1.501  0.3639  0.9267 -0.3574
19905TIP3    H281207   5.804   6.743   1.615 -0.8258  0.7812 -1.2401
19906TIP3   OH281208   4.921   5.363  14.434  0.4285  0.2013 -0.1368
19906TIP3    H181209   4.989   5.393  14.374  1.1925 -1.3980 -0.1456
19906TIP3    H281210   4.841   5.404  14.403  1.2626  1.5835 -0.5514
19907TIP3   OH281211   3.987   6.300   5.740 -0.0587 -0.5599 -0.0211
19907TIP3    H181212   3.898   6.300   5.777 -0.1000 -0.8165 -0.1153
19907TIP3    H281213   4.044   6.317   5.815 -0.3832  4.0495 -0.5214
19908TIP3   OH281214   0.765   4.428   4.575 -0.0940  0.1187  0.1302
19908TIP3    H181215   0.756   4.414   4.480 -0.6313  0.1935  0.1693
19908TIP3    H281216   0.676   4.441   4.606  0.1544  1.1081  0.4878
19909TIP3   OH281217   1.089   5.228  13.831  0.3891  0.0414 -0.0943
19909TIP3    H181218   0.999   5.236  13.862  0.6234  3.3780  0.0404
19909TIP3    H281219   1.080   5.208  13.737 -0.4406 -0.8315  0.1595
19910TIP3   OH281220   4.172   3.545  16.924  0.3233  0.0437 -0.2607
19910TIP3    H181221   4.264   3.568  16.927  0.5000 -0.5803  2.6669
19910TIP3    H281222   4.132   3.596  16.995 -1.5402  0.1091 -1.2945
19911TIP3   OH281223   4.770   1.967   0.792 -0.1001  0.5230 -0.1221
19911TIP3    H181224   4.746   1.928   0.708  0.8045 -0.5812  0.1098
19911TIP3    H281225   4.753   1.899   0.856  0.8316  0.7457  0.3774
19912TIP3   OH281226   4.293   5.205   0.043  0.6290 -0.2707  0.6234
19912TIP3    H181227   4.210   5.245   0.070  0.7979 -1.1148  2.5700
19912TIP3    H281228   4.270   5.151  -0.032 -1.6168 -3.8497  3.5416
19913TIP3   OH281229   2.764   3.400   0.473 -0.8217 -0.1935  0.1715
19913TIP3    H181230   2.699   3.425   0.539 -0.6029  0.2422  0.2203
19913TIP3    H281231   2.727   3.430   0.390 -0.5650  0.2764  0.2285
19914TIP3   OH281232   5.145   1.118   4.684 -0.0038  0.3838  0.4591
19914TIP3    H181233   5.094   1.060   4.628 -0.8867  1.6345 -0.0764
19914TIP3    H281234   5.236   1.099   4.661 -0.3389  1.0024 -1.5962
19915TIP3   OH281235   5.977   5.610   4.027 -0.0157 -0.2632 -0.2395
19915TIP3    H181236   6.007   5.700   4.041 -0.4400 -0.1439 -0.0878
19915TIP3    H281237   6.018   5.583   3.945 -0.6829  0.4127 -0.7955
19916TIP3   OH281238   1.760   5.805   3.390 -0.9879  0.2656 -1.1223
19916TIP3    H181239   1.719   5.878   3.343 -1.2238  0.4705 -0.6094
19916TIP3    H281240   1.754   5.830   3.482 -0.9085 -0.3228 -0.9555
19917TIP3   OH281241   5.071   6.766  13.462 -0.4564  0.0648 -0.1706
19917TIP3    H181242   5.042   6.811  13.541 -0.7395  2.0376 -1.3273
19917TIP3    H281243   5.156   6.804  13.441 -0.5609 -0.1419 -1.0315
19918TIP3   OH281244   3.551   4.657   3.370 -0.3847 -0.3106 -0.5142
19918TIP3    H181245   3.590   4.616   3.293  0.5680  0.3951 -0.4220
19918TIP3    H281246   3.459   4.629   3.367 -0.4840  0.0564 -2.1568
19919TIP3   OH281247   4.309   4.943   2.517 -0.3083  0.2362  0.7011
19919TIP3    H181248   4.225   4.942   2.472 -0.2728  0.7750  0.6153
19919TIP3    H281249   4.316   4.857   2.557 -0.4296 -0.1813 -0.1538
19920TIP3   OH281250   1.125   1.090   2.987  0.3655 -0.5393  0.0256
19920TIP3    H181251   1.029   1.090   2.993  0.3903  0.2920  0.5144
19920TIP3    H281252   1.155   1.122   3.072  1.0745 -0.6007 -0.1954
19921TIP3   OH281253   4.854   2.837  13.831 -0.1572  0.1552 -0.3751
19921TIP3    H181254   4.926   2.899  13.843  0.6014 -1.0973  2.2184
19921TIP3    H281255   4.885   2.756  13.872 -1.2290 -1.9177 -3.3555
19922TIP3   OH281256   4.494   3.883  16.883  0.3988  0.4649  0.3980
19922TIP3    H181257   4.584   3.888  16.915  1.1559  0.3122 -1.5311
19922TIP3    H281258   4.486   3.960  16.825 -0.3516 -0.0888 -0.2466
19923TIP3   OH281259   0.890   5.647  12.959 -0.4310 -0.6976 -0.1320
19923TIP3    H181260   0.885   5.734  12.999  0.4210 -0.3969 -0.6653
19923TIP3    H281261   0.980   5.639  12.929 -0.6593 -1.5278 -0.6311
19924TIP3   OH281262   2.397   0.135   5.572 -0.4308 -0.3080 -0.4648
19924TIP3    H181263   2.375   0.106   5.661 -0.0503  0.1650 -0.2087
19924TIP3    H281264   2.328   0.098   5.517 -1.8153  1.0427  0.2823
19925TIP3   OH281265   1.849   1.729   6.641 -0.3461  0.0446  0.3251
19925TIP3    H181266   1.934   1.740   6.683  1.4445 -1.3539 -2.6509
19925TIP3    H281267   1.832   1.813   6.598 -0.7559  0.4829  1.3059
19926TIP3   OH281268   6.330   3.460  13.285  0.1597 -0.0503  0.3676
19926TIP3    H181269   6.292   3.478  13.198  0.9195 -1.0286 -0.1860
19926TIP3    H281270   6.416   3.503  13.282  0.0448  0.2129  0.7763
19927TIP3   OH281271   6.743   3.537   4.921 -0.8379 -0.1598  0.0594
19927TIP3    H181272   6.792   3.550   4.840 -1.6544 -0.4001 -0.4790
19927TIP3    H281273   6.766   3.449   4.950  0.1803  0.2666  0.6049
19928TIP3   OH281274   5.258   2.581  14.061  0.0266  0.0418 -0.2708
19928TIP3    H181275   5.337   2.618  14.100  1.1043 -2.9881  0.6474
19928TIP3    H281276   5.251   2.624  13.976  0.6921  2.8133  0.9423
19929TIP3   OH281277   4.704   2.001  10.563  0.0088  0.7311  0.4821
19929TIP3    H181278   4.692   2.094  10.584  0.0215  0.4684  1.7269
19929TIP3    H281279   4.615   1.965  10.562  0.0314  0.6770  0.3814
19930TIP3   OH281280   4.183   6.027   3.016 -0.6651 -0.0399 -0.5474
19930TIP3    H181281   4.222   5.942   2.995  1.4455  1.0620 -1.4518
19930TIP3    H281282   4.190   6.034   3.111 -2.3586 -1.5041 -0.2652
19931TIP3   OH281283   3.511   0.222   5.221  0.4826 -0.5540 -0.3211
19931TIP3    H181284   3.575   0.176   5.275  1.0829 -0.3308 -0.8390
19931TIP3    H281285   3.563   0.281   5.167 -0.2867  0.8458  0.4236
19932TIP3   OH281286   3.205   5.662  12.508 -0.6915  0.2610 -0.3499
19932TIP3    H181287   3.245   5.633  12.590 -1.5625 -0.5708 -0.2137
19932TIP3    H281288   3.196   5.582  12.456 -0.2123  0.7663 -1.2432
19933TIP3   OH281289   6.272   2.333   5.425 -0.2455 -0.4374  1.3175
19933TIP3    H181290   6.292   2.301   5.337 -0.2411  0.2220  1.0737
19933TIP3    H281291   6.177   2.327   5.432 -0.4775  1.4612  0.4717
19934TIP3   OH281292   2.249   6.409   3.106 -0.0645 -0.4280 -0.3387
19934TIP3    H181293   2.271   6.375   3.019  1.1192  1.9114 -1.0408
19934TIP3    H281294   2.180   6.473   3.089 -0.2717 -0.4091  0.5513
19935TIP3   OH281295   1.543   2.185  11.410  0.0280  0.0571  0.3265
19935TIP3    H181296   1.452   2.210  11.394 -0.1269  0.3570  1.5370
19935TIP3    H281297   1.589   2.267  11.423  0.7489 -0.0260 -1.4691
19936TIP3   OH281298   3.502   3.142   1.101  0.2802 -0.2784  0.5099
19936TIP3    H181299   3.481   3.102   1.185  2.1734 -0.7315  0.8162
19936TIP3    H281300   3.590   3.179   1.113  0.7521 -0.6611 -1.3644
19937TIP3   OH281301   5.155   3.631  14.395  0.2391  0.5220 -0.2144
19937TIP3    H181302   5.245   3.602  14.380 -0.2539 -0.8474 -0.6600
19937TIP3    H281303   5.106   3.551  14.413 -0.8372  1.2738  0.3696
19938TIP3   OH281304   5.760   3.212  13.583 -0.3757  1.0017 -0.6283
19938TIP3    H181305   5.769   3.260  13.665 -0.9916 -1.9681  1.3131
19938TIP3    H281306   5.849   3.188  13.559 -0.3523  0.0330  0.3857
19939TIP3   OH281307   1.586   3.032   3.385  0.1473  0.1680 -0.0343
19939TIP3    H181308   1.498   3.069   3.379 -0.1664 -0.5949 -0.3537
19939TIP3    H281309   1.639   3.082   3.323 -0.2757  0.0650 -0.4833
19940TIP3   OH281310   2.329   3.987  16.859 -0.2739  0.6201  0.0966
19940TIP3    H181311   2.305   4.072  16.822 -0.0362  0.6236 -0.0549
19940TIP3    H281312   2.425   3.986  16.854 -0.2791  0.3342  0.0805
19941TIP3   OH281313   5.481   3.004  12.886 -0.2318 -0.4807  0.1549
19941TIP3    H181314   5.439   2.959  12.959  1.0724 -0.8906  0.6723
19941TIP3    H281315   5.544   3.063  12.927  0.6045 -0.8099 -0.6180
19942TIP3   OH281316   1.134   1.875   4.904  0.2663 -0.7584 -0.2040
19942TIP3    H181317   1.052   1.826   4.895 -0.2745  0.2232 -0.7683
19942TIP3    H281318   1.109   1.957   4.945  1.2228 -1.0697  1.0664
19943TIP3   OH281319   5.383   2.429  11.405 -0.0257  0.0747 -0.3211
19943TIP3    H181320   5.288   2.442  11.406  0.1800  2.0750  1.6094
19943TIP3    H281321   5.416   2.498  11.347  0.3804  1.4661  1.4661
19944TIP3   OH281322   3.564   3.943  16.992  0.0161  0.8747 -0.5460
19944TIP3    H181323   3.526   3.968  17.076  0.3602 -0.4240  0.0298
19944TIP3    H281324   3.545   3.849  16.985  0.8010  0.7719 -1.4904
19945TIP3   OH281325   5.731   4.004   6.121  0.8321 -0.4166 -0.1625
19945TIP3    H181326   5.637   3.995   6.105  1.0292 -1.7310 -0.7030
19945TIP3    H281327   5.737   4.015   6.216  0.1682 -1.1934 -0.0089
19946TIP3   OH281328   2.670   4.454   4.550  0.1815  0.3954 -0.2818
19946TIP3    H181329   2.674   4.361   4.528  0.4940  0.5253 -0.7825
19946TIP3    H281330   2.762   4.481   4.557  0.1390  0.0947  2.3788
19947TIP3   OH281331   1.623   2.558   0.218  0.5363  0.2404  0.0255
19947TIP3    H181332   1.529   2.549   0.207  0.7455 -1.1623 -0.9165
19947TIP3    H281333   1.656   2.468   0.215  1.9302  0.7240  0.1144
19948TIP3   OH281334   0.701   2.869   0.140  0.1625  0.2531  0.2596
19948TIP3    H181335   0.698   2.965   0.144 -0.7584  0.1882  1.5726
19948TIP3    H281336   0.622   2.845   0.091  0.7462  0.1792 -0.6631
19949TIP3   OH281337   3.157   2.550  13.807 -0.0935  0.4874  0.1612
19949TIP3    H181338   3.076   2.592  13.778  0.1082  0.0837 -1.0213
19949TIP3    H281339   3.222   2.619  13.803  0.1075  0.2352 -1.1836
19950TIP3   OH281340   1.707   4.338  14.457  0.4676 -0.1476  0.1905
19950TIP3    H181341   1.753   4.300  14.382 -0.0302 -1.5961  0.5855
19950TIP3    H281342   1.756   4.307  14.533  0.3786  0.4818  0.5084
19951TIP3   OH281343   5.755   1.116   3.338  0.3707 -0.5285  0.2150
19951TIP3    H181344   5.687   1.154   3.393  1.1086  1.4747 -0.1650
19951TIP3    H281345   5.795   1.048   3.392  1.1489  1.4296  2.2702
19952TIP3   OH281346   2.427   3.938  14.761 -0.3199  0.1220 -0.1199
19952TIP3    H181347   2.346   3.989  14.754 -0.9647 -0.6594  1.3006
19952TIP3    H281348   2.425   3.902  14.849  3.0777  2.5551  1.1122
19953TIP3   OH281349   0.970   3.190  13.331 -0.2451 -0.3910 -0.3924
19953TIP3    H181350   0.916   3.261  13.366 -0.4969 -0.6483 -0.2564
19953TIP3    H281351   1.044   3.234  13.289  0.1924 -0.0700  0.6588
19954TIP3   OH281352   3.476   0.016   2.577  0.2503 -0.5429 -0.3343
19954TIP3    H181353   3.515   0.084   2.521 -0.5371  0.6241  0.4758
19954TIP3    H281354   3.384   0.017   2.554  0.4611 -2.4534 -1.3981
19955TIP3   OH281355   4.767   5.264  14.112 -0.4475  0.1359  0.5398
19955TIP3    H181356   4.861   5.260  14.098 -0.1954  0.3744  1.9688
19955TIP3    H281357   4.738   5.173  14.105  0.1370 -0.1401  1.4826
19956TIP3   OH281358   6.017   6.536  12.842 -0.1739  0.1916  0.1105
19956TIP3    H181359   5.967   6.457  12.865 -0.5140  0.8691  1.8454
19956TIP3    H281360   6.089   6.503  12.789 -0.4090 -1.2900  0.6510
19957TIP3   OH281361   6.519   6.316   3.009  0.1923 -0.3737  0.1893
19957TIP3    H181362   6.432   6.322   2.969 -0.5450  0.1735  1.7790
19957TIP3    H281363   6.556   6.404   2.999  0.0508 -0.2662  0.5879
19958TIP3   OH281364   4.374   4.655  10.496  0.1431 -0.1507  0.1041
19958TIP3    H181365   4.282   4.631  10.511  0.3498 -1.1806 -0.2142
19958TIP3    H281366   4.370   4.726  10.433 -0.4715  0.4238  0.7634
19959TIP3   OH281367   5.037   3.113  15.995 -0.2243 -0.1733  0.8825
19959TIP3    H181368   4.961   3.115  16.053 -0.3607 -1.0808  0.7589
19959TIP3    H281369   5.102   3.062  16.042 -0.5618 -1.4695  0.0101
19960TIP3   OH281370   5.459   2.229   0.172 -0.5805  0.0305  0.3461
19960TIP3    H181371   5.457   2.320   0.143 -1.7711  0.1202  0.6569
19960TIP3    H281372   5.372   2.213   0.208 -0.9262 -1.6897 -1.0854
19961TIP3   OH281373   5.683   6.227   0.241  0.2437 -0.2354 -0.0248
19961TIP3    H181374   5.703   6.260   0.329  2.3589  0.4123 -0.6848
19961TIP3    H281375   5.751   6.163   0.223  0.4833  0.3995 -1.5703
19962TIP3   OH281376   4.116   0.340  11.552  0.0517  0.1295 -0.0897
19962TIP3    H181377   4.033   0.292  11.556  0.4623 -0.5552  0.5950
19962TIP3    H281378   4.169   0.301  11.622  0.5733  1.2792  0.1757
19963TIP3   OH281379   3.432   1.363   4.238 -0.1256  0.1245 -0.3511
19963TIP3    H181380   3.450   1.398   4.150 -0.4711 -0.4402 -0.6516
19963TIP3    H281381   3.339   1.340   4.236  0.1425 -1.0274 -0.2520
19964TIP3   OH281382   1.363   5.264  13.003  0.6808  0.2327 -0.0422
19964TIP3    H181383   1.355   5.204  12.929 -0.9105  0.2330  0.0888
19964TIP3    H281384   1.396   5.345  12.965 -0.2177  0.2635 -0.7863
19965TIP3   OH281385   1.534   0.820  13.116 -0.0714  0.5899  0.2583
19965TIP3    H181386   1.446   0.840  13.148 -1.0701  1.5564 -2.7346
19965TIP3    H281387   1.522   0.802  13.023  2.6494 -1.4582  0.1838
19966TIP3   OH281388   3.919   2.115  11.655  0.1412  0.0313 -0.0265
19966TIP3    H181389   3.881   2.157  11.577  0.1303 -1.4967 -0.8932
19966TIP3    H281390   4.014   2.128  11.645  0.2108 -0.9759 -0.8206
19967TIP3   OH281391   1.100   3.940   1.522  0.1100 -0.3401 -0.2030
19967TIP3    H181392   1.100   4.030   1.490  1.1655 -0.1252  0.3503
19967TIP3    H281393   1.143   3.890   1.453 -3.0449 -0.9886 -1.8655
19968TIP3   OH281394   1.721   0.700  13.993  0.1637  0.5512  0.0653
19968TIP3    H181395   1.707   0.629  13.931 -1.0375  0.0764  0.8438
19968TIP3    H281396   1.655   0.766  13.971 -1.9774 -0.6642  2.2592
19969TIP3   OH281397   2.066   0.564  15.369  0.1386  0.2605 -0.2484
19969TIP3    H181398   2.124   0.511  15.314  0.1733  0.3129 -0.2630
19969TIP3    H281399   1.979   0.552  15.332  0.1461  0.2104 -0.2490
19970TIP3   OH281400   1.084   3.304  15.927 -0.0235 -0.4622  0.0399
19970TIP3    H181401   1.141   3.371  15.964 -1.7559  0.8445  0.4520
19970TIP3    H281402   1.106   3.225  15.976  2.0677 -0.2762 -0.4593
19971TIP3   OH281403   6.450   6.137   6.088 -0.3708  0.3359  0.0314
19971TIP3    H181404   6.491   6.120   6.173 -0.6506  0.4277  0.1836
19971TIP3    H281405   6.490   6.073   6.030 -1.3993 -0.8562  0.5923
19972TIP3   OH281406   1.996   1.661   1.143  0.4904 -0.1718 -0.0183
19972TIP3    H181407   2.008   1.718   1.068  1.1270 -0.9140 -0.4953
19972TIP3    H281408   2.056   1.588   1.128  1.6301  0.3171  1.8544
19973TIP3   OH281409   1.241   4.774  15.166  0.0940 -0.5593  0.1931
19973TIP3    H181410   1.289   4.695  15.142 -0.6683 -0.6397 -1.1464
19973TIP3    H281411   1.150   4.755  15.143 -0.0391  0.8425 -0.5686
19974TIP3   OH281412   1.421   0.482  14.154  0.1308 -0.2763  0.1656
19974TIP3    H181413   1.397   0.488  14.062  0.1798 -0.3694  0.1468
19974TIP3    H281414   1.349   0.432  14.195  0.2233 -0.4333  0.1354
19975TIP3   OH281415   5.290   1.940   0.322  0.1367 -0.4355  0.4192
19975TIP3    H181416   5.227   2.012   0.328  0.6604  0.0256  0.5384
19975TIP3    H281417   5.256   1.884   0.253 -0.2486 -0.0342  0.2760
19976TIP3   OH281418   5.926   5.484  13.478 -0.0251  0.2475  0.2258
19976TIP3    H181419   5.953   5.473  13.570 -1.2089  0.0476  0.5640
19976TIP3    H281420   6.007   5.507  13.432  0.7982 -0.7763  1.1188
19977TIP3   OH281421   1.992   1.308   5.236  0.0822 -0.7969  0.0080
19977TIP3    H181422   1.971   1.315   5.329  1.8806  0.1509  0.3932
19977TIP3    H281423   2.088   1.308   5.233  0.1006 -2.4219 -1.7452
19978TIP3   OH281424   1.919   1.821  10.994 -0.0391 -0.1883  0.5494
19978TIP3    H181425   1.999   1.779  10.962 -0.7098 -0.2934 -1.0904
19978TIP3    H281426   1.906   1.896  10.937 -1.8203 -0.9413 -0.1133
19979TIP3   OH281427   1.837   1.703  11.527  0.2811  0.0319  0.0214
19979TIP3    H181428   1.796   1.634  11.579  1.3088 -0.7388 -0.1490
19979TIP3    H281429   1.797   1.695  11.441  0.0178 -0.0047  0.1462
19980TIP3   OH281430   2.038   1.033   2.407  0.1236  0.0322 -0.0580
19980TIP3    H181431   1.981   1.061   2.478  0.6191 -0.1948  0.4282
19980TIP3    H281432   1.993   1.062   2.327 -0.6678 -0.1533  0.3230
19981TIP3   OH281433   4.054   5.395   3.518  0.2152 -0.8754 -0.1686
19981TIP3    H181434   4.063   5.490   3.521 -0.2031 -0.8505  0.8174
19981TIP3    H281435   4.068   5.367   3.608 -0.6598 -1.6472 -0.2548
19982TIP3   OH281436   2.516   1.192   1.230 -0.2937 -0.5642  0.3048
19982TIP3    H181437   2.597   1.221   1.271 -0.1880 -1.5597  0.8383
19982TIP3    H281438   2.516   1.096   1.240 -0.9986 -0.6901 -0.6782
19983TIP3   OH281439   0.485   1.645  12.889 -0.1822  0.2036  0.7121
19983TIP3    H181440   0.448   1.663  12.976 -1.6106  0.8748  0.0087
19983TIP3    H281441   0.493   1.550  12.885  1.1178  0.2304  2.0345
19984TIP3   OH281442   3.233   6.628   1.004 -0.0577  0.2312 -0.3140
19984TIP3    H181443   3.145   6.664   1.014 -0.8666 -1.3342 -1.2771
19984TIP3    H281444   3.262   6.658   0.918  0.2525  0.5250 -0.1104
19985TIP3   OH281445   3.800   5.721   4.292  0.3435  0.1821  0.0081
19985TIP3    H181446   3.752   5.793   4.333  0.7644  1.8864 -2.2774
19985TIP3    H281447   3.880   5.713   4.343 -0.6971 -0.2401  1.6443
19986TIP3   OH281448   3.452   3.132  11.701 -0.2524  0.1632 -0.4712
19986TIP3    H181449   3.416   3.064  11.644 -0.8819  0.8019 -0.8551
19986TIP3    H281450   3.419   3.110  11.788  0.3709 -0.5831 -0.4193
19987TIP3   OH281451   3.583   4.787   6.410 -0.3529  0.2453  0.4768
19987TIP3    H181452   3.636   4.815   6.336  0.0679 -1.9798 -0.1518
19987TIP3    H281453   3.541   4.867   6.442  0.0197  1.3746 -1.6840
19988TIP3   OH281454   2.533   6.119  12.494 -0.3902 -0.2382 -0.6131
19988TIP3    H181455   2.591   6.155  12.561  1.9697 -0.2057 -2.5269
19988TIP3    H281456   2.525   6.190  12.430 -2.8232 -0.1598 -0.3036
19989TIP3   OH281457   4.114   1.876   2.063 -0.5046  0.0367  0.0953
19989TIP3    H181458   4.163   1.856   1.984  0.1327 -0.8904  0.7049
19989TIP3    H281459   4.132   1.968   2.080  2.6031 -0.6590  1.3165
19990TIP3   OH281460   1.736   1.855   4.465  0.4824 -0.0738  0.1353
19990TIP3    H181461   1.658   1.911   4.458  0.8140  0.2386 -2.0133
19990TIP3    H281462   1.701   1.767   4.475 -0.2396 -0.0466 -1.7065
19991TIP3   OH281463   5.932   1.002   2.373  0.1255  0.6935  0.6834
19991TIP3    H181464   6.015   0.977   2.333  0.8604  1.1801  1.8609
19991TIP3    H281465   5.926   1.097   2.360 -0.7192  0.5346 -0.2295
19992TIP3   OH281466   4.565   2.347   2.350  0.1219 -0.2704 -1.0172
19992TIP3    H181467   4.495   2.294   2.313 -1.6664  2.3973 -1.8072
19992TIP3    H281468   4.582   2.310   2.436 -1.9559 -1.2948 -0.9952
19993TIP3   OH281469   4.223   1.212   4.454 -0.4077  0.1477  0.1736
19993TIP3    H181470   4.291   1.269   4.417  0.1548 -0.3074  0.4851
19993TIP3    H281471   4.234   1.218   4.548  0.4465 -1.3624  0.2113
19994TIP3   OH281472   3.658   4.149  15.330  0.0695 -0.2418  0.6099
19994TIP3    H181473   3.692   4.216  15.270 -0.6957 -0.1516  0.2646
19994TIP3    H281474   3.731   4.087  15.340  0.6192  0.3745  0.5440
19995TIP3   OH281475   5.128   0.519  14.994  0.1013 -0.1331 -0.5253
19995TIP3    H181476   5.213   0.545  14.959 -0.5845  0.9466 -1.4780
19995TIP3    H281477   5.147   0.443  15.049  1.7280  0.3306 -0.3809
19996TIP3   OH281478   6.317   1.799   2.848 -0.7617  0.0382 -0.3103
19996TIP3    H181479   6.265   1.720   2.865 -1.0393  0.2226 -0.2838
19996TIP3    H281480   6.353   1.785   2.760 -2.7750  0.9079 -1.3639
19997TIP3   OH281481   1.077   6.153  15.448 -0.3974 -0.3543  0.3368
19997TIP3    H181482   1.052   6.236  15.488 -1.8063 -0.5996  0.0414
19997TIP3    H281483   1.074   6.089  15.520 -1.1008 -0.4592  0.2251
19998TIP3   OH281484   1.900   5.804   0.489 -0.3414  0.3303 -0.3554
19998TIP3    H181485   1.858   5.747   0.424 -0.6003 -0.0786  0.1673
19998TIP3    H281486   1.939   5.743   0.552  1.2601  0.6854 -0.9577
19999TIP3   OH281487   2.386   5.055   4.340 -0.5081 -0.2986  0.6244
19999TIP3    H181488   2.401   4.996   4.266 -0.6392  1.1896 -0.6541
19999TIP3    H281489   2.471   5.097   4.353 -0.8010  0.3603  0.4630
20000TIP3   OH281490   4.059   3.625   0.688 -0.4916  0.1322  0.2062
20000TIP3    H181491   4.051   3.567   0.764 -3.8498  1.3376  0.9446
20000TIP3    H281492   4.034   3.711   0.722 -0.3586  1.0452 -1.8968
20001TIP3   OH281493   5.928   5.696   2.639  0.1998  0.0887 -0.0329
20001TIP3    H181494   5.970   5.780   2.652  0.1987  0.0411  0.2875
20001TIP3    H281495   5.883   5.678   2.721  2.3621 -1.4660  0.9199
20002TIP3   OH281496   4.594   3.983   0.956  0.4566  0.5591 -0.4439
20002TIP3    H181497   4.629   3.987   0.867 -0.6650 -0.6660 -0.9843
20002TIP3    H281498   4.637   3.907   0.995 -0.4544 -0.0708 -0.6191
20003TIP3   OH281499   4.239   0.239  12.955  0.4326  0.0425  0.8738
20003TIP3    H181500   4.239   0.145  12.972 -1.5056 -0.0531  0.6360
20003TIP3    H281501   4.282   0.278  13.031  0.0665 -0.9546  1.6029
20004TIP3   OH281502   0.025   3.212  16.770 -0.1376  0.0647  0.4871
20004TIP3    H181503   0.114   3.231  16.742 -0.6226  1.0431 -0.4953
20004TIP3    H281504   0.010   3.121  16.743  0.2589  0.1969 -0.2058
20005TIP3   OH281505   4.715   2.683   4.124 -0.4524  0.0650  0.0951
20005TIP3    H181506   4.752   2.649   4.206  3.7891  0.2008 -1.5574
20005TIP3    H281507   4.736   2.616   4.059 -1.8576  0.9415 -1.3229
20006TIP3   OH281508   2.916   4.688  16.458  0.4492 -0.4956  0.1707
20006TIP3    H181509   3.009   4.684  16.482  0.5027 -1.7432 -0.1449
20006TIP3    H281510   2.910   4.761  16.397  1.0667  0.0992  0.8000
20007TIP3   OH281511   4.400   0.681   4.957  0.2787  0.3888  0.3745
20007TIP3    H181512   4.474   0.687   5.017  2.6559  2.7393 -2.5026
20007TIP3    H281513   4.432   0.629   4.884 -1.6172 -0.2228 -0.0755
20008TIP3   OH281514   4.329   3.251  16.591  0.4227  0.2030  0.3432
20008TIP3    H181515   4.367   3.305  16.660 -1.3589  0.4217  1.2098
20008TIP3    H281516   4.277   3.313  16.539 -1.2554 -0.5413  1.0617
20009TIP3   OH281517   2.286   6.432  11.060 -0.3783  0.7709  0.4369
20009TIP3    H181518   2.379   6.457  11.058 -0.2136  0.6533  2.9518
20009TIP3    H281519   2.242   6.498  11.006  1.0347  1.4569  0.0696
20010TIP3   OH281520   2.637   3.577  16.851 -0.0651 -1.4171  0.4522
20010TIP3    H181521   2.651   3.570  16.757  3.3970  0.6466  0.6076
20010TIP3    H281522   2.562   3.636  16.860  0.3567 -0.5876 -1.0718
20011TIP3   OH281523   3.511   6.195  14.657 -0.0871 -0.0603 -0.4263
20011TIP3    H181524   3.426   6.213  14.616  0.3512 -0.7092 -1.6579
20011TIP3    H281525   3.533   6.277  14.701 -1.0219  0.3487 -0.6884
20012TIP3   OH281526   5.653   6.105   1.748 -0.5121  0.1783  0.2318
20012TIP3    H181527   5.616   6.029   1.792 -0.3388 -1.8093 -2.7100
20012TIP3    H281528   5.748   6.092   1.752 -0.5076 -0.7030 -1.6110
20013TIP3   OH281529   5.976   3.667   4.798  0.2202  0.3482  0.0705
20013TIP3    H181530   5.953   3.689   4.889  1.2217  0.7326  0.2453
20013TIP3    H281531   5.990   3.751   4.755 -0.8932  0.1925 -0.6371
20014TIP3   OH281532   2.567   2.155   4.236 -0.0561 -0.2332  0.4891
20014TIP3    H181533   2.516   2.157   4.317 -0.1696 -1.4961  0.4718
20014TIP3    H281534   2.642   2.212   4.253 -0.8426  0.7001  0.9390
20015TIP3   OH281535   6.798   5.259  10.749  0.3717 -0.0976 -0.9668
20015TIP3    H181536   6.844   5.326  10.698  0.7186 -0.5330 -1.2391
20015TIP3    H281537   6.862   5.188  10.758  0.2622 -0.0975 -0.0601
20016TIP3   OH281538   5.668   6.392   1.377  0.6274 -0.0823 -0.4222
20016TIP3    H181539   5.712   6.317   1.336 -0.7445 -0.5503 -1.1241
20016TIP3    H281540   5.660   6.368   1.469  1.4707 -0.1585 -0.3643
20017TIP3   OH281541   0.673   3.321  14.945 -0.4651  0.0901  0.3657
20017TIP3    H181542   0.672   3.287  15.034 -2.7874 -2.2437 -0.4433
20017TIP3    H281543   0.643   3.411  14.953 -2.7752 -0.7393  1.7940
20018TIP3   OH281544   6.058   0.621  12.137  0.2149 -0.0578 -0.5368
20018TIP3    H181545   6.067   0.684  12.066  0.7954  1.6954  1.0098
20018TIP3    H281546   5.991   0.660  12.195  1.4440 -0.2170  1.0618
20019TIP3   OH281547   6.128   0.321   4.502  0.1497 -0.3152 -0.0650
20019TIP3    H181548   6.199   0.330   4.566  1.3497  3.0086 -1.6210
20019TIP3    H281549   6.172   0.307   4.419 -0.8950  2.2505 -1.1430
20020TIP3   OH281550   6.111   1.063   5.499 -0.2200 -0.0548  0.7196
20020TIP3    H181551   6.086   1.027   5.584 -0.3476 -0.4238  0.5271
20020TIP3    H281552   6.078   1.000   5.436 -0.8691  0.6456  0.3568
20021TIP3   OH281553   5.715   0.970  11.507 -0.1872 -0.0917 -0.5397
20021TIP3    H181554   5.651   1.042  11.512 -0.5127 -0.4261  0.6338
20021TIP3    H281555   5.767   0.989  11.430 -1.7482  0.1690 -1.5786
20022TIP3   OH281556   6.532   6.652  14.332  0.6091  0.1847 -0.4527
20022TIP3    H181557   6.531   6.626  14.424 -2.2685  0.8440 -0.1983
20022TIP3    H281558   6.562   6.743  14.334  3.1897 -0.5787 -0.5438
20023TIP3   OH281559   3.081   3.769   3.028  0.0186 -0.0475  0.3247
20023TIP3    H181560   3.004   3.778   3.084  0.5618 -0.3292  1.1407
20023TIP3    H281561   3.059   3.701   2.965 -0.5295  0.1293  0.3261
20024TIP3   OH281562   3.060   2.075  15.078  0.0023  0.2968  0.1075
20024TIP3    H181563   3.000   2.044  15.146 -1.8874  1.0711 -1.1076
20024TIP3    H281564   3.057   2.171  15.086 -0.3908  0.4137 -1.1193
20025TIP3   OH281565   4.539   0.108   0.113  0.4593  0.1552 -0.3955
20025TIP3    H181566   4.509   0.156   0.190 -1.5037 -0.5568 -0.6552
20025TIP3    H281567   4.590   0.035   0.149  0.9622  0.7587  0.1338
20026TIP3   OH281568   6.409   6.319  15.784  0.1737 -0.2561 -0.1733
20026TIP3    H181569   6.330   6.358  15.820  1.8333  0.3242  3.2632
20026TIP3    H281570   6.382   6.232  15.754 -1.5340 -0.7870  2.5078
20027TIP3   OH281571   3.872   1.570   0.455  0.2832 -0.2179  0.3707
20027TIP3    H181572   3.941   1.527   0.506 -0.1155 -1.4140 -0.0791
20027TIP3    H281573   3.793   1.521   0.475 -0.1639  0.2403 -0.2410
20028TIP3   OH281574   5.276   5.281   2.232 -1.0137  0.5925 -0.0589
20028TIP3    H181575   5.288   5.243   2.320 -1.4034  1.4218  0.3623
20028TIP3    H281576   5.213   5.222   2.190  0.4163 -0.7468 -0.3894
20029TIP3   OH281577   3.982   1.843  10.993  0.0465 -1.0406 -0.4073
20029TIP3    H181578   3.984   1.764  10.939 -0.5958 -1.5118  0.2425
20029TIP3    H281579   3.911   1.827  11.056  1.0354 -0.6781  0.8312
20030TIP3   OH281580   0.568   0.116  14.605 -0.4286  0.2222 -0.1806
20030TIP3    H181581   0.545   0.198  14.648 -1.9313  0.2005 -0.8816
20030TIP3    H281582   0.560   0.134  14.511  0.4004 -0.4102 -0.3918
20031TIP3   OH281583   3.682   2.811  15.777  0.1691  0.4777  0.1908
20031TIP3    H181584   3.712   2.836  15.865 -0.5249  0.7990  0.3420
20031TIP3    H281585   3.660   2.893  15.735 -1.2726  0.2240  0.3777
20032TIP3   OH281586   3.787   5.538   0.052 -0.6967 -0.1102 -0.5923
20032TIP3    H181587   3.808   5.605  -0.013  0.8251 -0.1507 -0.1812
20032TIP3    H281588   3.792   5.584   0.136  1.4728 -0.9165 -0.2102
20033TIP3   OH281589   1.666   5.432  11.618  0.0400 -0.5195 -0.0585
20033TIP3    H181590   1.675   5.451  11.524  0.7300  0.6404  0.2223
20033TIP3    H281591   1.756   5.430  11.651 -0.1615 -1.7135  0.4426
20034TIP3   OH281592   4.113   6.464   1.314 -0.2489  0.2623 -0.6793
20034TIP3    H181593   4.174   6.402   1.273 -0.1126  0.4500 -0.7588
20034TIP3    H281594   4.170   6.528   1.357 -0.3854 -0.0078 -0.0791
20035TIP3   OH281595   1.004   3.074   0.311 -0.0904 -0.7071  0.2217
20035TIP3    H181596   0.941   3.107   0.247  0.6276 -0.8329 -0.5656
20035TIP3    H281597   0.980   3.117   0.393 -1.5912 -1.2315  0.0906
20036TIP3   OH281598   3.506   5.191  16.391  0.1732 -0.3575 -0.1142
20036TIP3    H181599   3.585   5.159  16.433  1.2050  1.6426 -0.3809
20036TIP3    H281600   3.528   5.195  16.298  0.6815  2.3253  0.0172
20037TIP3   OH281601   1.084   3.720   2.940 -0.3095 -0.2556 -0.4350
20037TIP3    H181602   0.998   3.717   2.982 -1.0288 -0.7077 -1.8434
20037TIP3    H281603   1.124   3.800   2.973 -0.8428 -0.5560  1.0258
20038TIP3   OH281604   1.840   3.623  15.369 -0.6342 -0.1154 -0.0801
20038TIP3    H181605   1.788   3.671  15.434  0.8229  1.4043  0.0421
20038TIP3    H281606   1.790   3.543  15.352 -3.2952  1.5066 -0.4440
20039TIP3   OH281607   2.884   0.916  11.210  0.8247  0.5731 -0.0384
20039TIP3    H181608   2.796   0.882  11.226  1.5342 -1.9790 -1.0850
20039TIP3    H281609   2.939   0.873  11.275  1.7445 -0.2161 -1.2904
20040TIP3   OH281610   0.024   1.516   3.348  0.2478 -0.4114  0.3255
20040TIP3    H181611  -0.065   1.487   3.331  0.2872 -1.3117  1.5307
20040TIP3    H281612   0.077   1.473   3.281 -0.1773 -0.0791 -0.2320
20041TIP3   OH281613   0.795   3.109   1.527 -0.1937  0.1024 -0.0004
20041TIP3    H181614   0.791   3.024   1.483  0.1640 -0.8743  1.7608
20041TIP3    H281615   0.876   3.105   1.578 -0.0004  1.6604 -0.1461
20042TIP3   OH281616   4.649   0.805   4.203 -0.5648  0.3624  0.6346
20042TIP3    H181617   4.677   0.739   4.139 -0.1894  0.2606  0.8972
20042TIP3    H281618   4.670   0.766   4.288  1.2075  1.4752  0.7748
20043TIP3   OH281619   0.334   2.699   1.990 -0.3806 -0.3797  0.3748
20043TIP3    H181620   0.324   2.675   1.898  1.9574 -0.2745  0.0357
20043TIP3    H281621   0.375   2.785   1.988  1.2327 -1.0794  1.4552
20044TIP3   OH281622   1.729   3.543  10.683 -1.0252 -0.4620 -0.5666
20044TIP3    H181623   1.820   3.570  10.690 -0.8714 -1.0958  0.0502
20044TIP3    H281624   1.680   3.624  10.669 -0.7276  0.3605  2.4519
20045TIP3   OH281625   3.076   4.553  16.845 -0.7891  0.7159  0.9686
20045TIP3    H181626   3.128   4.545  16.925 -2.9615 -0.6190  2.3603
20045TIP3    H281627   3.084   4.468  16.803 -1.5502  0.6074  1.0287
20046TIP3   OH281628   3.428   2.198  15.282 -0.4496 -0.1866  0.3533
20046TIP3    H181629   3.495   2.266  15.278  0.0204 -0.7088 -1.0410
20046TIP3    H281630   3.345   2.245  15.271 -0.0995  0.1298 -1.0693
20047TIP3   OH281631   3.713   6.089   3.517  0.3050  0.0516  0.4814
20047TIP3    H181632   3.618   6.076   3.517  0.5446 -2.0796 -0.3426
20047TIP3    H281633   3.731   6.136   3.436  0.0961 -1.1470 -0.2840
20048TIP3   OH281634   6.638   1.971  11.237 -0.0046 -0.9441 -0.4061
20048TIP3    H181635   6.604   1.882  11.227 -1.6025 -0.3133 -0.9180
20048TIP3    H281636   6.692   1.986  11.159  0.2148 -1.4277 -0.3497
20049TIP3   OH281637   5.448   6.084   5.169  0.3265  0.3088 -0.1285
20049TIP3    H181638   5.473   6.105   5.259  1.7272  1.2534 -0.7046
20049TIP3    H281639   5.421   5.993   5.173 -0.9380  0.6923  1.4874
20050TIP3   OH281640   3.246   4.947  15.797  0.2880  0.1078 -0.5981
20050TIP3    H181641   3.340   4.946  15.811  0.1177 -0.6026  0.7253
20050TIP3    H281642   3.219   5.036  15.818  0.5144 -0.0386  0.3695
20051TIP3   OH281643   1.123   5.444   1.278 -0.0940  0.1770 -0.6780
20051TIP3    H181644   1.079   5.445   1.363 -1.3957  0.1872 -1.3331
20051TIP3    H281645   1.163   5.531   1.271 -0.3361  0.3256 -0.2561
20052TIP3   OH281646   2.568   6.556  15.744 -0.0668  0.3043  0.1157
20052TIP3    H181647   2.491   6.510  15.777 -0.5790  0.3562 -0.9596
20052TIP3    H281648   2.612   6.492  15.689 -0.1968  0.7503 -0.5183
20053TIP3   OH281649   0.248   4.827  17.039  0.1436  0.3404 -0.2364
20053TIP3    H181650   0.184   4.820  17.109  0.6266  0.8318  0.2687
20053TIP3    H281651   0.215   4.896  16.982  1.2033  2.0349  1.1173
20054TIP3   OH281652   2.158   1.644  14.765  0.1713  0.4396  0.1005
20054TIP3    H181653   2.140   1.728  14.724  1.1336  0.3975 -0.4312
20054TIP3    H281654   2.071   1.608  14.784 -0.2595  2.2563  1.8497
20055TIP3   OH281655   5.915   1.828   0.578 -0.1652 -0.0538 -0.0252
20055TIP3    H181656   5.960   1.848   0.496 -0.5373  0.0696 -0.1992
20055TIP3    H281657   5.984   1.796   0.636  0.2661  0.7715 -0.0751
20056TIP3   OH281658   3.066   3.113  11.637 -0.0574  0.3218 -0.4789
20056TIP3    H181659   2.993   3.136  11.695 -1.1527 -0.8226 -1.3536
20056TIP3    H281660   3.126   3.062  11.692 -0.6298  0.0278 -0.1245
20057TIP3   OH281661   3.167   1.849   6.339 -0.0322  0.6449 -0.0542
20057TIP3    H181662   3.167   1.757   6.312 -0.3226 -0.0667  2.1443
20057TIP3    H281663   3.260   1.872   6.345  0.1909 -0.5513  2.3880
20058TIP3   OH281664   4.220   5.545  14.235  0.6616  0.0305  0.6254
20058TIP3    H181665   4.220   5.520  14.327 -0.6459 -1.7983  0.1950
20058TIP3    H281666   4.234   5.639  14.235 -0.1287  0.1950  2.7391
20059TIP3   OH281667   5.743   5.015  16.291  0.1862 -0.4566  0.3146
20059TIP3    H181668   5.687   5.018  16.214  0.4380  0.0572  0.1439
20059TIP3    H281669   5.787   5.101  16.292  0.8328 -0.7815  0.5398
20060TIP3   OH281670   1.141   5.091  16.708  0.0336  0.6751  0.7445
20060TIP3    H181671   1.066   5.131  16.664  1.0974  0.6512 -1.1696
20060TIP3    H281672   1.112   5.003  16.730 -0.0324  0.0985 -1.4304
20061TIP3   OH281673   5.866   2.845  15.292  0.7528  0.3794  0.3231
20061TIP3    H181674   5.892   2.914  15.230  0.1651  0.0493 -0.3041
20061TIP3    H281675   5.942   2.787  15.295  0.9131  0.5751  0.1600
20062TIP3   OH281676   0.629   3.058   5.472 -0.1017 -0.2233 -0.2170
20062TIP3    H181677   0.620   2.966   5.494 -1.0050  0.0074  0.4086
20062TIP3    H281678   0.724   3.073   5.468  0.0543 -0.9892  0.4550
20063TIP3   OH281679   5.812   3.649   0.064  0.4545  0.2277  0.2707
20063TIP3    H181680   5.844   3.727   0.110  0.6121  0.2367  0.1466
20063TIP3    H281681   5.883   3.626   0.004 -1.3907  2.8548 -3.3065
20064TIP3   OH281682   3.942   3.417  16.055  0.4828  0.2822 -0.2238
20064TIP3    H181683   3.882   3.343  16.066  1.5339 -0.7113 -0.9311
20064TIP3    H281684   3.926   3.449  15.966  0.9224  0.0726 -0.3824
20065TIP3   OH281685   5.320   5.938   3.633 -0.0740 -0.6575  0.2316
20065TIP3    H181686   5.273   5.955   3.551  0.0572 -2.3643 -0.2394
20065TIP3    H281687   5.338   6.025   3.668  3.3474  0.4374 -3.4702
20066TIP3   OH281688   2.592   3.665   1.063 -0.5811  0.7043  0.6578
20066TIP3    H181689   2.657   3.718   1.017 -1.1094  1.2933  0.5617
20066TIP3    H281690   2.511   3.680   1.014 -0.4765 -1.2968 -0.2128
20067TIP3   OH281691   1.983   6.616  12.078 -0.6132  0.0408 -0.6381
20067TIP3    H181692   2.066   6.661  12.092 -0.3256 -0.8983  0.8665
20067TIP3    H281693   1.944   6.661  12.003  0.1431  2.0745  0.1160
20068TIP3   OH281694   0.918   1.717   4.856  0.1585  0.1406  0.5750
20068TIP3    H181695   0.834   1.712   4.811 -0.1452 -0.1338  1.1561
20068TIP3    H281696   0.916   1.645   4.920 -0.0148  1.3408  1.9775
20069TIP3   OH281697   0.463   1.046  13.998 -0.5806 -0.2926 -0.2362
20069TIP3    H181698   0.558   1.048  14.007 -0.6539 -0.6770  0.7122
20069TIP3    H281699   0.439   1.137  13.979  0.0311 -0.3231 -1.2367
20070TIP3   OH281700   6.185   1.715  12.694 -0.5041 -0.5634  0.3299
20070TIP3    H181701   6.198   1.783  12.761  1.2733 -2.0583  1.6175
20070TIP3    H281702   6.270   1.709  12.651  0.3446 -3.7797  2.1289
20071TIP3   OH281703   5.031   1.613  12.723 -0.4227 -0.0877  0.0149
20071TIP3    H181704   5.042   1.521  12.697 -0.7103  0.3176 -1.5816
20071TIP3    H281705   5.087   1.621  12.801 -0.3185 -1.5830  0.1405
20072TIP3   OH281706   3.400   5.696  11.283  0.0938 -0.3085  0.1268
20072TIP3    H181707   3.480   5.705  11.231  0.5753  0.2350  0.9431
20072TIP3    H281708   3.418   5.743  11.364 -0.3719 -1.7956  1.1285
20073TIP3   OH281709   2.180   4.455  14.031 -0.5271 -0.0714 -0.5950
20073TIP3    H181710   2.207   4.544  14.056  1.5587 -0.1732 -2.1615
20073TIP3    H281711   2.205   4.400  14.105  0.7770  0.3032 -0.7380
20074TIP3   OH281712   4.071   4.496  14.278  0.3063 -0.2819 -0.4759
20074TIP3    H181713   4.041   4.417  14.323 -0.0286 -0.3239 -0.7621
20074TIP3    H281714   4.124   4.463  14.205  1.3654 -0.1964  0.2414
20075TIP3   OH281715   0.497   5.853  16.787  0.1712  0.0407  0.3687
20075TIP3    H181716   0.541   5.870  16.870 -0.7573 -1.0860  1.1244
20075TIP3    H281717   0.467   5.762  16.794 -0.5557  0.1631 -0.8984
20076TIP3   OH281718   5.214   1.288  13.434  0.5771  0.1669  0.1562
20076TIP3    H181719   5.242   1.363  13.382  0.0693 -0.0750 -0.4637
20076TIP3    H281720   5.135   1.256  13.391  0.6525 -0.5785  0.5586
20077TIP3   OH281721   5.364   2.924  12.182  0.4377  0.2692 -0.2375
20077TIP3    H181722   5.364   2.830  12.162  1.2260 -0.3965  2.5274
20077TIP3    H281723   5.287   2.937  12.237  0.8916  1.0453  0.2353
20078TIP3   OH281724   3.524   3.122  15.860  0.1215 -0.3544 -0.0289
20078TIP3    H181725   3.512   3.034  15.824  0.6832 -0.2890 -0.3907
20078TIP3    H281726   3.489   3.181  15.793  4.2955 -0.0061 -2.2341
20079TIP3   OH281727   2.011   0.438   1.045  0.2399  0.0104  0.2311
20079TIP3    H181728   1.964   0.502   0.991 -1.4670 -0.0285  1.5588
20079TIP3    H281729   1.958   0.358   1.037 -0.2742  0.1139  2.1995
20080TIP3   OH281730   1.900   6.359   4.734 -0.8230 -0.5830 -0.9213
20080TIP3    H181731   1.980   6.363   4.681 -0.8729  0.5061 -0.9271
20080TIP3    H281732   1.852   6.438   4.711 -0.5736  0.2332  1.1948
20081TIP3   OH281733   2.531   1.733   2.392 -0.5714 -0.2155  0.1757
20081TIP3    H181734   2.472   1.692   2.456 -0.2820  0.8997  1.1720
20081TIP3    H281735   2.540   1.667   2.324  3.1914 -3.7270  3.5479
20082TIP3   OH281736   6.500   3.122   0.028  0.0267 -0.2544  0.4576
20082TIP3    H181737   6.439   3.065   0.076 -2.1980  0.7606 -1.0204
20082TIP3    H281738   6.445   3.174  -0.030  2.4032  0.1081 -1.6660
20083TIP3   OH281739   5.977   5.913   2.351 -0.0812  0.0212 -0.2484
20083TIP3    H181740   6.002   5.898   2.442 -0.8762  0.4067  0.0419
20083TIP3    H281741   6.027   5.849   2.301  0.3479 -0.2021  0.4612
20084TIP3   OH281742   0.350   1.203   4.511 -0.0624 -0.1145 -0.0376
20084TIP3    H181743   0.398   1.152   4.445 -0.4764 -0.1507 -0.3161
20084TIP3    H281744   0.279   1.145   4.539  0.3905 -0.2735  0.7870
20085TIP3   OH281745   1.517   5.420   1.409 -0.4846 -0.7110 -0.0986
20085TIP3    H181746   1.587   5.416   1.474  0.2763  0.9295 -0.7640
20085TIP3    H281747   1.445   5.372   1.449  1.0569 -2.6390  0.5287
20086TIP3   OH281748   2.701   4.745  14.835 -0.0584 -0.0995 -0.2273
20086TIP3    H181749   2.746   4.802  14.897 -1.6081 -0.4721  1.3352
20086TIP3    H281750   2.612   4.737  14.870 -1.1605  0.0335 -2.7712
20087TIP3   OH281751   6.568   3.193  11.514  0.3701  0.2305 -0.1268
20087TIP3    H181752   6.531   3.141  11.443 -1.7034  0.8491  0.4352
20087TIP3    H281753   6.605   3.129  11.575 -1.8295 -0.6416  0.3910
20088TIP3   OH281754   3.443   0.130   2.243  0.0674 -0.4277 -0.2725
20088TIP3    H181755   3.529   0.110   2.279  0.1844 -2.7213 -1.6067
20088TIP3    H281756   3.404   0.191   2.305  2.1885 -0.2380  0.9672
20089TIP3   OH281757   4.606   3.685   4.783 -0.2727 -0.3987 -0.2486
20089TIP3    H181758   4.673   3.749   4.807 -0.3524 -0.0087 -1.0171
20089TIP3    H281759   4.554   3.673   4.863  0.7628 -0.7941  0.3869
20090TIP3   OH281760   5.854   1.019  11.232 -0.1427 -0.3089 -0.4446
20090TIP3    H181761   5.846   0.986  11.143  2.6047  1.0769 -1.3548
20090TIP3    H281762   5.929   0.972  11.268  0.0546  0.6081  0.3773
20091TIP3   OH281763   4.688   5.881  14.439 -1.2025  0.2090  0.3385
20091TIP3    H181764   4.724   5.961  14.478 -0.3036 -2.3665  5.7966
20091TIP3    H281765   4.765   5.834  14.407 -1.6181  0.9214 -1.8619
20092TIP3   OH281766   6.755   5.932  11.808  0.0492  0.2383 -0.6024
20092TIP3    H181767   6.845   5.958  11.829  0.3828 -1.0884 -0.2759
20092TIP3    H281768   6.716   5.914  11.893 -0.5937  0.9570 -0.7345
20093TIP3   OH281769   0.208   1.687   3.070 -0.1945 -0.2521  0.3607
20093TIP3    H181770   0.219   1.593   3.082 -0.9730 -0.3682  0.2263
20093TIP3    H281771   0.183   1.697   2.979  1.3218  0.2299 -0.0245
20094TIP3   OH281772   5.862   2.910  11.888  0.0392 -0.1308  0.0653
20094TIP3    H181773   5.782   2.928  11.939 -1.6599 -1.3811 -1.9928
20094TIP3    H281774   5.888   2.822  11.915 -1.2183 -1.0523 -1.5004
20095TIP3   OH281775   6.631   5.604  14.686 -0.5271 -0.5048  0.0800
20095TIP3    H181776   6.545   5.643  14.671 -1.0177 -0.7676  1.9064
20095TIP3    H281777   6.661   5.644  14.768  3.0513  2.8178 -2.5233
20096TIP3   OH281778   4.607   4.692   5.066  0.0291 -0.1323  0.0496
20096TIP3    H181779   4.554   4.683   4.987 -0.7531  1.5750  0.3505
20096TIP3    H281780   4.696   4.675   5.037 -0.0686  1.6842 -1.5021
20097TIP3   OH281781   3.653   1.689  12.390 -0.4755  0.1415  0.2300
20097TIP3    H181782   3.586   1.745  12.351 -0.0799  0.2673 -0.2909
20097TIP3    H281783   3.633   1.601  12.357 -0.1979  0.2322 -0.1857
20098TIP3   OH281784   5.048   4.623   5.608  0.2040 -0.5273  0.2663
20098TIP3    H181785   5.080   4.649   5.694 -1.8118  0.9471  0.6092
20098TIP3    H281786   4.954   4.609   5.619  0.0778 -1.3877 -1.4607
20099TIP3   OH281787   0.814   1.524   4.436  0.2759 -0.0298 -0.3461
20099TIP3    H181788   0.764   1.562   4.364 -1.7050 -0.1081  0.8841
20099TIP3    H281789   0.748   1.478   4.489  1.4188  0.9949  2.1340
20100TIP3   OH281790   0.167   2.462  15.834 -0.3713 -0.3548  0.2145
20100TIP3    H181791   0.078   2.455  15.869 -0.4092 -2.2911 -0.1542
20100TIP3    H281792   0.217   2.398  15.884  1.6206  2.7279  2.5341
20101TIP3   OH281793   6.091   1.831  15.429 -0.0705  0.4739  0.2635
20101TIP3    H181794   6.095   1.793  15.341  0.9872  0.1386  0.4460
20101TIP3    H281795   6.012   1.792  15.468 -1.3921  1.7314 -1.0072
20102TIP3   OH281796   6.038   6.159   3.320  0.4976  0.0200  0.1380
20102TIP3    H181797   6.089   6.143   3.241  1.2743  2.9218 -0.0749
20102TIP3    H281798   6.090   6.222   3.370 -1.3855  0.6116  1.4842
20103TIP3   OH281799   4.709   5.537   4.319  0.1079 -0.6857  0.0993
20103TIP3    H181800   4.698   5.507   4.409  0.2820 -0.0584  0.3341
20103TIP3    H281801   4.766   5.613   4.326  0.2239 -0.7089 -0.5560
20104TIP3   OH281802   5.586   4.250  17.226 -0.0055  0.0753 -0.5166
20104TIP3    H181803   5.671   4.207  17.219 -1.3989 -3.9605  3.1061
20104TIP3    H281804   5.588   4.293  17.311 -1.5692  0.0054 -0.4261
20105TIP3   OH281805   3.575   5.215  12.965  0.5876 -0.0545 -0.1602
20105TIP3    H181806   3.623   5.189  12.886 -1.3433  1.1381 -1.8477
20105TIP3    H281807   3.568   5.134  13.016  2.4865 -0.7103 -0.8448
20106TIP3   OH281808   1.312   4.279  11.356 -0.1874 -0.3387  0.1044
20106TIP3    H181809   1.297   4.367  11.389 -1.4865  0.2192 -1.8238
20106TIP3    H281810   1.336   4.291  11.265 -1.4413 -2.0062 -0.4977
20107TIP3   OH281811   2.681   3.597  12.557 -0.0829  0.1452  0.0103
20107TIP3    H181812   2.731   3.553  12.489 -0.9527 -0.6881 -0.1132
20107TIP3    H281813   2.656   3.527  12.617 -1.5347  0.4532 -0.2085
20108TIP3   OH281814   1.643   3.817   0.645 -0.1142  0.2951  0.2342
20108TIP3    H181815   1.699   3.740   0.631 -1.2786 -0.3572 -1.1057
20108TIP3    H281816   1.642   3.829   0.740  0.0143 -1.4364  0.4890
20109TIP3   OH281817   1.404   5.379  15.605 -0.5804 -0.8093  0.3619
20109TIP3    H181818   1.352   5.452  15.639 -1.3577 -0.9028 -0.5697
20109TIP3    H281819   1.460   5.353  15.678 -2.3408 -1.1442  1.6645
20110TIP3   OH281820   2.374   1.871   3.835  0.0884 -0.5690 -0.1830
20110TIP3    H181821   2.296   1.867   3.779  0.1746 -1.2522 -0.2659
20110TIP3    H281822   2.360   1.803   3.901  0.4068 -0.3871  0.0758
20111TIP3   OH281823   6.765   4.012  16.642 -0.2514  0.0181 -1.0551
20111TIP3    H181824   6.672   3.992  16.640  0.0493 -1.8212  0.1662
20111TIP3    H281825   6.807   3.935  16.604  0.8703 -0.4902  1.0632
20112TIP3   OH281826   3.490   2.033  14.764 -0.2400  0.4955  0.2613
20112TIP3    H181827   3.544   2.077  14.698  0.9929  0.2244  1.0473
20112TIP3    H281828   3.430   2.100  14.794 -0.6106  0.7126 -0.8895
20113TIP3   OH281829   2.772   3.726  11.687 -0.0333 -0.2211 -0.2357
20113TIP3    H181830   2.856   3.768  11.666  1.1647 -0.7776  2.8722
20113TIP3    H281831   2.713   3.753  11.617  2.5264  0.8227 -2.1396
20114TIP3   OH281832   3.273   4.954  16.127  0.2418  0.3513  0.1854
20114TIP3    H181833   3.360   4.915  16.117 -1.0075 -2.6851 -0.0316
20114TIP3    H281834   3.261   5.007  16.049  1.3503 -0.3830 -0.5082
20115TIP3   OH281835   5.487   4.040  13.952 -0.3507 -0.0832  0.5615
20115TIP3    H181836   5.543   3.964  13.965  1.1855  0.7081 -0.9136
20115TIP3    H281837   5.423   4.036  14.022  1.2870 -1.3152  2.0580
20116TIP3   OH281838   6.516   1.812  13.601  0.0426 -0.5580 -0.0311
20116TIP3    H181839   6.558   1.828  13.516 -1.0655  0.2733 -0.4468
20116TIP3    H281840   6.553   1.729  13.631  1.6380 -0.0876 -0.5789
20117TIP3   OH281841   0.537   6.173  15.822 -0.0203  0.2002 -0.1425
20117TIP3    H181842   0.568   6.231  15.892  0.6199 -0.9184  0.5316
20117TIP3    H281843   0.488   6.230  15.763 -0.7546  1.1324  1.3173
20118TIP3   OH281844   5.757   0.519   0.863  0.3495 -0.1647  0.4074
20118TIP3    H181845   5.822   0.476   0.806  0.7932 -0.4689  1.1294
20118TIP3    H281846   5.776   0.612   0.855  0.9915 -0.2623  0.7441
20119TIP3   OH281847   0.860   6.801   2.962  0.3792 -0.1297  0.9197
20119TIP3    H181848   0.885   6.878   3.013  2.8056 -1.2202  1.5091
20119TIP3    H281849   0.940   6.774   2.918 -1.0889 -0.6615 -1.6130
20120TIP3   OH281850   2.559   2.182  13.270  0.4218  0.2536  0.0978
20120TIP3    H181851   2.623   2.199  13.201 -0.2970  0.7292 -0.4845
20120TIP3    H281852   2.577   2.248  13.337  1.0731 -0.1586  0.3337
20121TIP3   OH281853   5.890   3.764  11.659  0.2253 -0.0543  0.0767
20121TIP3    H181854   5.827   3.692  11.666  0.1222 -0.0156 -0.3983
20121TIP3    H281855   5.839   3.838  11.625  0.9748 -0.7013 -2.7672
20122TIP3   OH281856   2.266   1.687   4.284  0.0875  0.7564 -0.0757
20122TIP3    H181857   2.335   1.753   4.273 -0.6480  1.5399 -0.0946
20122TIP3    H281858   2.313   1.604   4.285  1.1144  1.3149  0.6489
20123TIP3   OH281859   5.975   1.175  12.127  0.1459 -0.0924 -0.0342
20123TIP3    H181860   5.906   1.239  12.108  0.1381 -0.4012 -1.0939
20123TIP3    H281861   5.994   1.134  12.042  2.5525  0.8807 -0.0119
20124TIP3   OH281862   6.747   5.514  11.859  0.1306  0.2890  0.1682
20124TIP3    H181863   6.762   5.467  11.777  1.6916  0.5666  0.2603
20124TIP3    H281864   6.828   5.562  11.874 -1.0540  2.2487  0.5972
20125TIP3   OH281865   2.886   1.303   0.009  0.3026 -0.1973  0.1977
20125TIP3    H181866   2.828   1.362  -0.038 -0.2873  0.3240  1.5266
20125TIP3    H281867   2.834   1.222   0.019  0.2367 -0.1324  0.3830
20126TIP3   OH281868   1.676   5.564  13.631  0.0507  0.0811 -0.6332
20126TIP3    H181869   1.622   5.628  13.585 -0.6500 -1.4033 -1.9635
20126TIP3    H281870   1.650   5.479  13.594  0.8474 -0.9999  1.1611
20127TIP3   OH281871   2.754   5.187   2.691  0.3827  0.4202 -0.5074
20127TIP3    H181872   2.789   5.195   2.779 -1.2452  1.6474  0.0699
20127TIP3    H281873   2.792   5.261   2.643  0.8594  0.0473 -0.7243
20128TIP3   OH281874   4.826   3.443   6.511  0.3078 -0.0029  0.0002
20128TIP3    H181875   4.814   3.392   6.591 -0.3639 -0.6361 -0.4864
20128TIP3    H281876   4.837   3.378   6.442  2.3187  0.5364 -0.2438
20129TIP3   OH281877   4.195   3.259  17.000  0.2885 -0.2629 -0.4156
20129TIP3    H181878   4.153   3.345  17.002  0.8280  0.0200 -0.9858
20129TIP3    H281879   4.155   3.211  17.073 -1.2249 -0.1033 -1.1007
20130TIP3   OH281880   4.572   0.865  12.989 -0.2899 -0.6417 -0.0345
20130TIP3    H181881   4.573   0.960  12.981  0.6773 -0.6011  0.4590
20130TIP3    H281882   4.642   0.834  12.932 -0.1656 -1.0104  0.3072
20131TIP3   OH281883   1.314   2.971   3.953  0.3814  0.1781 -0.4379
20131TIP3    H181884   1.251   2.966   4.025 -0.7350  2.2997 -1.1735
20131TIP3    H281885   1.297   2.893   3.901  0.7428 -1.0404  1.1877
20132TIP3   OH281886   3.241   0.137   4.816 -0.8803  0.2945 -0.1638
20132TIP3    H181887   3.176   0.159   4.750 -3.7961 -0.2780  2.2956
20132TIP3    H281888   3.238   0.209   4.879  2.3121  1.1758 -0.8207
20133TIP3   OH281889   0.669   4.274  11.665  0.4027 -0.1284 -0.0779
20133TIP3    H181890   0.611   4.248  11.737  0.0252  0.5147 -0.1365
20133TIP3    H281891   0.636   4.360  11.638  1.7597  0.5209  0.2715
20134TIP3   OH281892   1.356   4.206   2.069 -0.9143 -0.2094  0.0083
20134TIP3    H181893   1.328   4.115   2.065 -0.3215 -0.3575 -1.3964
20134TIP3    H281894   1.445   4.206   2.033 -0.3736  0.7324  1.2422
20135TIP3   OH281895   4.742   6.251   3.568  0.1201  0.2007  0.0138
20135TIP3    H181896   4.801   6.193   3.616 -0.0897 -1.9353 -2.1338
20135TIP3    H281897   4.798   6.320   3.533  0.9478 -0.4690 -0.0021
20136TIP3   OH281898   5.075   2.191  11.974 -0.2729 -0.1382  0.3170
20136TIP3    H181899   5.161   2.149  11.986 -1.0048 -2.4380 -1.6539
20136TIP3    H281900   5.091   2.259  11.908 -0.1737 -1.5748 -1.2077
20137TIP3   OH281901   5.655   2.456   2.993 -0.2980 -0.4389 -0.4102
20137TIP3    H181902   5.708   2.536   3.000  0.0178 -0.7880  1.9573
20137TIP3    H281903   5.717   2.385   3.013 -0.5369 -1.3656 -2.6051
20138TIP3   OH281904   4.304   1.407   6.900 -0.2296  0.1043 -0.2156
20138TIP3    H181905   4.335   1.325   6.938  1.0083  1.1734  1.2019
20138TIP3    H281906   4.208   1.400   6.905 -0.1700 -0.0757  2.6976
20139TIP3   OH281907   0.805   5.093   3.208 -0.2770  0.2079  0.2851
20139TIP3    H181908   0.894   5.120   3.231  0.3246  0.3131 -1.9350
20139TIP3    H281909   0.749   5.164   3.239  0.5597  0.7645  0.5286
20140TIP3   OH281910   5.300   0.877  13.506  0.5190 -0.7446 -0.1351
20140TIP3    H181911   5.349   0.940  13.559  0.1599 -0.3667 -0.2530
20140TIP3    H281912   5.254   0.823  13.570  1.7050 -1.6257  0.0158
20141TIP3   OH281913   0.122   1.644  11.731  0.2369 -0.0631  0.4600
20141TIP3    H181914   0.145   1.634  11.638  1.5023 -1.5569  0.8863
20141TIP3    H281915   0.034   1.606  11.738  0.4401 -0.6357  0.0006
20142TIP3   OH281916   2.836   5.319  12.283 -0.3266  0.3032  0.6417
20142TIP3    H181917   2.778   5.245  12.264 -0.0318  0.0581  0.6831
20142TIP3    H281918   2.870   5.301  12.371 -0.0475  0.3494  0.5461
20143TIP3   OH281919   4.077   4.759  15.775 -0.1530  0.3864  0.1644
20143TIP3    H181920   4.080   4.763  15.679  0.8941 -0.1875  0.1618
20143TIP3    H281921   4.125   4.679  15.798 -0.2040  0.6286  1.1760
20144TIP3   OH281922   2.972   6.636   4.652 -0.2435  0.4322 -0.7413
20144TIP3    H181923   2.971   6.669   4.562 -0.9099  0.0666 -0.8697
20144TIP3    H281924   3.062   6.605   4.665  0.7499  3.2078 -0.2712
20145TIP3   OH281925   0.468   6.460  10.825 -0.0847 -0.0503  0.2751
20145TIP3    H181926   0.485   6.376  10.782 -0.2767  0.0074  0.0866
20145TIP3    H281927   0.381   6.485  10.795  0.3858  0.7221 -0.5032
20146TIP3   OH281928   5.759   4.668   1.877  0.1976 -0.3750 -0.2088
20146TIP3    H181929   5.800   4.611   1.942 -0.8179 -0.7455  0.1408
20146TIP3    H281930   5.674   4.627   1.861  0.6301 -0.5978 -2.1838
20147TIP3   OH281931   4.783   4.437  14.739  1.0011  0.6575  0.1663
20147TIP3    H181932   4.716   4.385  14.783  0.8994  1.5176  1.0714
20147TIP3    H281933   4.790   4.398  14.651 -0.7853  0.6366 -0.0117
20148TIP3   OH281934   4.182   0.751   2.064 -0.4889  0.2679  0.2917
20148TIP3    H181935   4.187   0.667   2.111  0.6310  0.0532 -0.1789
20148TIP3    H281936   4.270   0.788   2.073 -0.3139  0.3271 -1.4206
20149TIP3   OH281937   2.987   4.218  15.535  0.1418 -0.1435 -0.6557
20149TIP3    H181938   3.035   4.231  15.453  0.9459  1.5158  0.0346
20149TIP3    H281939   2.927   4.293  15.540  2.9205  2.1904  2.1167
20150TIP3   OH281940   1.634   6.417  13.933  0.5981 -0.4294 -0.2490
20150TIP3    H181941   1.673   6.384  14.014 -0.8771 -0.3736  0.5170
20150TIP3    H281942   1.552   6.369  13.925 -0.2646  1.0320 -0.5985
20151TIP3   OH281943   4.020   3.800  14.320 -0.0993 -0.6190 -0.0958
20151TIP3    H181944   4.023   3.842  14.233 -0.7160 -0.9206 -0.2753
20151TIP3    H281945   4.015   3.706  14.301 -0.5128 -0.6722  0.2580
20152TIP3   OH281946   6.630   6.564   3.036 -0.1322 -0.3757 -0.6307
20152TIP3    H181947   6.641   6.641   3.092  0.2839 -0.4845 -0.5560
20152TIP3    H281948   6.616   6.600   2.948  2.0451 -0.2022 -0.9575
20153TIP3   OH281949   3.062   3.890   1.461 -0.1856 -0.3216  0.4088
20153TIP3    H181950   3.120   3.889   1.538 -0.1651 -2.8736  0.4471
20153TIP3    H281951   3.120   3.876   1.387 -0.4998 -0.7052  0.2303
20154TIP3   OH281952   4.829   5.523   0.759  0.3215  0.1174  0.0034
20154TIP3    H181953   4.912   5.568   0.771  0.5198 -0.6191  1.5920
20154TIP3    H281954   4.763   5.582   0.795  0.6711 -1.1155  2.9042
20155TIP3   OH281955   1.380   2.094   3.087  0.3120  0.0069  0.2658
20155TIP3    H181956   1.475   2.100   3.078  0.3327 -1.1091 -0.5001
20155TIP3    H281957   1.362   2.125   3.176  1.5538 -1.1690  0.9777
20156TIP3   OH281958   1.238   0.439  13.118  0.3170 -0.8078 -0.0736
20156TIP3    H181959   1.256   0.502  13.049 -0.5208 -0.6828 -0.1862
20156TIP3    H281960   1.154   0.400  13.094 -0.3896 -0.1716  1.2936
20157TIP3   OH281961   4.595   4.120   4.296  0.2077 -0.5769 -0.3577
20157TIP3    H181962   4.564   4.124   4.206 -0.9612  1.6173  0.0847
20157TIP3    H281963   4.601   4.026   4.316 -0.9982 -1.0794 -2.1965
20158TIP3   OH281964   5.993   6.352  13.257 -0.3550  0.3729 -0.5190
20158TIP3    H181965   6.085   6.346  13.234 -0.1562 -0.5957  0.4707
20158TIP3    H281966   5.948   6.303  13.188 -0.1918  1.1493 -1.2050
20159TIP3   OH281967   0.147   4.517   5.852  0.7473 -0.5304 -0.2597
20159TIP3    H181968   0.211   4.517   5.923  2.1279  2.7704 -1.3003
20159TIP3    H281969   0.065   4.543   5.894  0.7223 -1.9237  0.6164
20160TIP3   OH281970   6.739   4.062  11.878  0.2163 -0.5625 -0.7542
20160TIP3    H181971   6.825   4.081  11.840 -0.9393 -0.7617 -3.6970
20160TIP3    H281972   6.693   4.013  11.811 -2.3472 -0.1679  0.5930
20161TIP3   OH281973   3.253   0.494   5.167 -0.2166  0.5454  0.1176
20161TIP3    H181974   3.304   0.489   5.248  0.2883  0.8777 -0.1679
20161TIP3    H281975   3.241   0.588   5.152  1.3214  0.5931 -1.1602
20162TIP3   OH281976   3.408   4.119  10.419  0.2136 -0.2270 -0.9016
20162TIP3    H181977   3.483   4.140  10.363  0.3544  0.1764 -0.5747
20162TIP3    H281978   3.428   4.164  10.501 -1.3625  1.6581 -1.4746
20163TIP3   OH281979   4.836   0.313   5.182 -0.1232 -0.4538  0.1069
20163TIP3    H181980   4.924   0.304   5.145 -0.0091 -0.3847  0.3586
20163TIP3    H281981   4.835   0.253   5.257 -0.0992 -0.0322  0.4510
20164TIP3   OH281982   2.011   0.979   0.520  0.2448  0.4525 -0.0656
20164TIP3    H181983   2.041   0.962   0.431 -0.5751 -1.5846  0.0034
20164TIP3    H281984   1.927   1.024   0.508  1.1378  2.1768 -0.2573
20165TIP3   OH281985   2.539   4.037   2.850  0.3409 -0.2928 -0.5507
20165TIP3    H181986   2.547   3.966   2.786 -0.0731 -2.4744  1.6732
20165TIP3    H281987   2.478   4.004   2.915  0.5862  1.9100  0.8971
20166TIP3   OH281988   4.211   5.058  11.081 -0.9001  0.0005 -0.1526
20166TIP3    H181989   4.180   5.148  11.095  0.4870  0.5452 -0.5056
20166TIP3    H281990   4.228   5.052  10.987 -0.1880 -0.3681 -0.0057
20167TIP3   OH281991   6.655   1.706  11.576  0.1116 -0.3643 -0.2900
20167TIP3    H181992   6.716   1.696  11.649 -0.0901 -2.1273 -0.3111
20167TIP3    H281993   6.576   1.744  11.615 -0.1240 -1.6108  0.5231
20168TIP3   OH281994   0.683   0.586  14.399 -0.4356  0.2046 -0.3721
20168TIP3    H181995   0.631   0.649  14.351 -0.7980  0.1645 -0.0394
20168TIP3    H281996   0.639   0.578  14.484 -0.7300 -0.9264 -0.6163
20169TIP3   OH281997   4.295   5.322   2.594  0.1923 -0.1148 -0.5345
20169TIP3    H181998   4.358   5.296   2.526 -0.0032 -1.8824 -0.0971
20169TIP3    H281999   4.209   5.306   2.554  0.0728 -1.7771  0.2698
20170TIP3   OH282000   0.334   2.397   6.107 -1.0405 -0.3672 -0.1178
20170TIP3    H182001   0.284   2.317   6.091  0.1345 -1.1615  0.1147
20170TIP3    H282002   0.403   2.396   6.041  0.4289 -0.7956  1.3531
20171TIP3   OH282003   6.277   5.633  16.066 -0.0730  0.3863  0.2641
20171TIP3    H182004   6.312   5.705  16.014 -0.5734  0.2364 -0.3026
20171TIP3    H282005   6.349   5.570  16.072  0.2988  0.8324  0.5884
20172TIP3   OH282006   1.317   0.418   5.742 -0.0429 -0.4250  0.2906
20172TIP3    H182007   1.383   0.410   5.673 -1.2405  0.5563 -1.0303
20172TIP3    H282008   1.233   0.420   5.695 -1.0561 -1.8142  1.9320
20173TIP3   OH282009   2.458   2.631   1.302 -0.0466 -0.5444  0.3939
20173TIP3    H182010   2.440   2.583   1.222  2.0623 -1.2695  0.2830
20173TIP3    H282011   2.392   2.701   1.305 -1.0069 -1.3443 -1.2267
20174TIP3   OH282012   2.056   1.364  14.264 -0.3167 -1.0654 -0.1253
20174TIP3    H182013   2.064   1.363  14.360  1.9311  0.3734 -0.2146
20174TIP3    H282014   2.133   1.413  14.235 -1.9995  0.2989 -2.5802
20175TIP3   OH282015   4.084   5.281  16.502 -0.0315  0.4038  0.2875
20175TIP3    H182016   3.998   5.302  16.538  0.2462  1.2548  0.4685
20175TIP3    H282017   4.116   5.209  16.557 -1.5984 -1.5899 -1.2323
20176TIP3   OH282018   4.311   0.154  12.588  1.0799  0.4655  0.4681
20176TIP3    H182019   4.304   0.068  12.546  1.0376  1.4552 -1.6722
20176TIP3    H282020   4.255   0.148  12.665  0.7995 -1.3114  0.1629
20177TIP3   OH282021   3.212   2.936   2.782  0.8973  0.4585  0.2653
20177TIP3    H182022   3.126   2.920   2.821 -0.4846  1.8583 -1.9859
20177TIP3    H282023   3.248   3.009   2.832 -0.1848  1.2476 -0.0706
20178TIP3   OH282024   3.284   3.931   4.080 -0.0952 -0.2981  0.2432
20178TIP3    H182025   3.193   3.901   4.077 -1.3989  3.2357  0.5169
20178TIP3    H282026   3.310   3.938   3.988 -1.0249  1.0552  0.0566
20179TIP3   OH282027   0.799   2.432  17.203  0.1848  0.5446 -0.0257
20179TIP3    H182028   0.831   2.507  17.252 -1.0359  0.4349  0.9812
20179TIP3    H282029   0.830   2.356  17.253 -0.6270  0.4251  0.3061
20180TIP3   OH282030   2.425   0.862   3.486 -0.3599  0.2144  0.0025
20180TIP3    H182031   2.392   0.880   3.574 -0.9744  1.2839 -0.4219
20180TIP3    H282032   2.369   0.791   3.454  0.6951 -1.0862  0.9160
20181TIP3   OH282033   2.502   2.931   5.939 -0.1077  0.1454  0.9708
20181TIP3    H182034   2.487   3.025   5.945 -2.0460  0.0057 -0.6024
20181TIP3    H282035   2.570   2.913   6.004  0.9914  2.7568  0.6330
20182TIP3   OH282036   3.511   5.759  12.696 -0.1737  0.0463  0.4274
20182TIP3    H182037   3.498   5.712  12.778  0.6193 -1.0971 -0.0740
20182TIP3    H282038   3.606   5.768  12.688 -0.2426  0.1710 -0.3475
20183TIP3   OH282039   6.582   5.977  15.326 -0.1351  0.0440  0.1064
20183TIP3    H182040   6.669   6.016  15.333 -0.0992 -0.1998  1.4501
20183TIP3    H282041   6.596   5.893  15.284  0.1457  0.3817 -0.4900
20184TIP3   OH282042   5.517   1.790  12.343  0.3723  0.7061 -0.4118
20184TIP3    H182043   5.481   1.834  12.420 -1.3239 -0.5443 -0.4355
20184TIP3    H282044   5.470   1.706  12.339 -1.2115  1.5806 -3.9992
20185TIP3   OH282045   2.490   4.651   2.379 -0.2517  0.3051  0.4435
20185TIP3    H182046   2.581   4.653   2.350 -0.1353  2.2642  0.8022
20185TIP3    H282047   2.460   4.562   2.358  1.1580  0.2107 -1.4365
20186TIP3   OH282048   1.193   1.192  12.164 -0.3140  0.2988  0.3955
20186TIP3    H182049   1.256   1.233  12.105  0.9466 -1.3517  0.5484
20186TIP3    H282050   1.160   1.265  12.218  2.1043  1.1045  0.8936
20187TIP3   OH282051   4.431   3.126  16.030 -0.0265  0.2079 -0.1599
20187TIP3    H182052   4.475   3.175  16.099  2.6877 -1.5576 -0.4951
20187TIP3    H282053   4.501   3.096  15.972 -2.0572  0.3966 -2.9312
20188TIP3   OH282054   0.561   1.773   0.815  0.3279  0.5840 -0.4252
20188TIP3    H182055   0.603   1.711   0.875  0.1045  0.1403 -0.7251
20188TIP3    H282056   0.607   1.856   0.830  1.6834 -0.0137 -1.1142
20189TIP3   OH282057   5.151   1.325  12.144  0.3962  0.7355  0.8231
20189TIP3    H182058   5.146   1.370  12.228 -1.4852  0.7473  0.7364
20189TIP3    H282059   5.225   1.265  12.153 -0.5539 -0.1947  2.9741
20190TIP3   OH282060   6.312   6.694  11.105 -0.3216 -0.4194  0.1842
20190TIP3    H182061   6.298   6.787  11.086 -1.2192 -0.5064  0.4126
20190TIP3    H282062   6.373   6.694  11.179  0.8578 -0.0468 -0.7558
20191TIP3   OH282063   6.706   4.586  10.817 -0.0662  0.4749 -1.0433
20191TIP3    H182064   6.625   4.536  10.805 -0.1228  0.2312  0.2241
20191TIP3    H282065   6.689   4.670  10.773 -0.9597  0.3799 -0.8974
20192TIP3   OH282066   0.097   3.771  14.218  0.3718  0.0603  0.0816
20192TIP3    H182067   0.136   3.855  14.241  4.1182 -1.7179  1.0652
20192TIP3    H282068   0.059   3.739  14.299 -1.8202  1.0623 -0.4862
20193TIP3   OH282069   1.275   5.452   2.270  0.4477  0.0312 -0.0467
20193TIP3    H182070   1.322   5.482   2.348  0.7324 -2.0834  0.6442
20193TIP3    H282071   1.259   5.359   2.285 -2.5694  0.3036 -0.9821
20194TIP3   OH282072   3.321   6.454  12.242 -0.4231 -0.2196  0.2586
20194TIP3    H182073   3.384   6.411  12.184  0.4470 -2.9188  2.9115
20194TIP3    H282074   3.356   6.542  12.254  1.4996 -0.8548 -0.3203
20195TIP3   OH282075   5.690   2.282   4.974 -0.3104 -0.2298  0.3192
20195TIP3    H182076   5.753   2.324   4.915 -2.0316  2.0178 -0.0643
20195TIP3    H282077   5.614   2.340   4.973 -1.5337 -1.6500  2.5194
20196TIP3   OH282078   2.509   6.096   2.664  0.0498  0.2683 -0.1453
20196TIP3    H182079   2.416   6.109   2.649  0.3374  0.5002 -1.8620
20196TIP3    H282080   2.546   6.184   2.660  0.3551  0.1791  0.5491
20197TIP3   OH282081   6.062   3.432  15.078  0.1724  0.2165 -0.4195
20197TIP3    H182082   6.144   3.414  15.034  0.1564  1.8819 -1.2218
20197TIP3    H282083   6.083   3.430  15.172  1.1545  0.7172 -0.6223
20198TIP3   OH282084   3.184   6.177   2.936  0.0940 -0.1868  0.4939
20198TIP3    H182085   3.122   6.248   2.952  0.4418 -0.1650  1.8144
20198TIP3    H282086   3.131   6.109   2.894  0.2387  1.7212 -3.1510
20199TIP3   OH282087   5.044   4.692   3.613  0.1834  0.0231 -0.0446
20199TIP3    H182088   4.994   4.665   3.535 -0.5724 -0.3737  0.5659
20199TIP3    H282089   5.084   4.611   3.645  2.0495  0.4857 -1.0745
20200TIP3   OH282090   2.328   6.411   5.001  0.0380 -0.6006  0.5410
20200TIP3    H182091   2.265   6.480   5.023 -3.0016 -3.4321  1.6339
20200TIP3    H282092   2.308   6.389   4.910 -0.3846 -1.3070  0.7969
20201TIP3   OH282093   0.355   1.944   0.042 -0.6124  0.0055  0.4087
20201TIP3    H182094   0.448   1.968   0.041 -0.5637 -0.2033 -0.2798
20201TIP3    H282095   0.331   1.946   0.135  0.2223 -0.4874  0.6443
20202TIP3   OH282096   4.579   6.703  11.068  0.1284  0.3162 -0.4881
20202TIP3    H182097   4.631   6.766  11.117 -0.9336  1.8490 -1.2552
20202TIP3    H282098   4.576   6.737  10.979  1.3489 -1.9849 -1.5027
20203TIP3   OH282099   1.740   0.335  12.373 -0.5183 -0.1170  0.3991
20203TIP3    H182100   1.745   0.396  12.446  0.6980 -0.1587  0.3772
20203TIP3    H282101   1.695   0.258  12.409 -2.3683  0.8764  0.3332
20204TIP3   OH282102   5.999   4.541  15.652  0.0590 -0.3108 -0.1737
20204TIP3    H182103   6.032   4.530  15.741  0.5491 -1.5033 -0.4764
20204TIP3    H282104   5.911   4.503  15.653  0.4349 -1.2152 -0.4104
20205TIP3   OH282105   1.380   5.460  11.610 -0.0821  0.4339  0.0945
20205TIP3    H182106   1.376   5.408  11.530 -0.7081  3.2361 -1.8562
20205TIP3    H282107   1.473   5.477  11.624 -0.0126  0.5860 -0.5281
20206TIP3   OH282108   3.124   3.791   5.588 -0.5828 -0.0664 -0.1926
20206TIP3    H182109   3.072   3.870   5.606  0.6429  0.6134  0.5372
20206TIP3    H282110   3.201   3.823   5.541  1.1426 -0.4086  2.1927
20207TIP3   OH282111   1.774   1.132  16.279  0.0794 -0.4252 -0.1095
20207TIP3    H182112   1.862   1.141  16.316  0.9721  1.4214 -2.4186
20207TIP3    H282113   1.726   1.206  16.315 -0.3177 -1.0112  0.5733
20208TIP3   OH282114   2.616   5.540  10.924 -0.1887  0.3790  0.4735
20208TIP3    H182115   2.586   5.631  10.927 -2.5541 -0.3370  3.2940
20208TIP3    H282116   2.693   5.538  10.981 -0.6368  0.4670  1.0839
20209TIP3   OH282117   5.955   4.451  11.476  0.5983 -0.1445  0.3753
20209TIP3    H182118   6.034   4.502  11.490  0.3776  0.2239  0.2950
20209TIP3    H282119   5.927   4.424  11.563  2.0007 -2.1219  0.2808
20210TIP3   OH282120   2.640   4.026   1.439  0.1881 -0.3115 -0.4588
20210TIP3    H182121   2.616   4.092   1.374  1.5406  0.2944 -0.3617
20210TIP3    H282122   2.556   3.988   1.466 -0.7632  2.1465  0.3355
20211TIP3   OH282123   5.336   3.218  17.013  0.5388 -0.0597 -0.3488
20211TIP3    H182124   5.420   3.210  17.058  1.0055  1.8650 -0.7997
20211TIP3    H282125   5.272   3.189  17.078  1.3976  0.2715  0.6805
20212TIP3   OH282126   0.533   5.358   3.623 -0.5444  0.0475 -0.8213
20212TIP3    H182127   0.617   5.315   3.607 -0.0297  0.8393 -0.3198
20212TIP3    H282128   0.494   5.308   3.695  0.2825  0.7060  0.1063
20213TIP3   OH282129   2.243   3.618  14.241 -0.0793  0.1071 -0.4915
20213TIP3    H182130   2.328   3.578  14.226 -0.0035  0.4261 -0.9245
20213TIP3    H282131   2.259   3.712  14.236 -0.5094  0.1609 -0.8637
20214TIP3   OH282132   1.551   2.545  17.065  0.7040  0.3675 -0.5217
20214TIP3    H182133   1.497   2.615  17.101 -1.0863 -1.3020  0.2364
20214TIP3    H282134   1.524   2.538  16.974 -1.2541 -1.1626  0.1147
20215TIP3   OH282135   6.660   4.497  16.052  0.2884 -0.3088  0.0486
20215TIP3    H182136   6.709   4.444  16.115  1.1170  1.0853  0.6248
20215TIP3    H282137   6.569   4.491  16.081  0.4632 -0.8557  0.4988
20216TIP3   OH282138   3.711   6.338  11.913 -0.2258  0.4685 -0.0507
20216TIP3    H182139   3.712   6.429  11.884 -1.1381 -0.0057 -1.6754
20216TIP3    H282140   3.621   6.309  11.901  0.4600 -1.2431 -1.6085
20217TIP3   OH282141   4.029   5.700   2.864  0.3037 -0.3099  0.1401
20217TIP3    H182142   4.020   5.774   2.804 -0.0936 -0.2552  0.2662
20217TIP3    H282143   4.118   5.707   2.897  0.4447 -0.1964 -0.2531
20218TIP3   OH282144   6.090   2.262  12.810 -0.2158 -0.1003  0.0791
20218TIP3    H182145   6.102   2.353  12.783 -0.2096  0.6663  2.4188
20218TIP3    H282146   6.051   2.268  12.897 -3.6652 -2.4013 -1.1282
20219TIP3   OH282147   2.916   0.037   1.214  0.1622  0.2167 -0.4627
20219TIP3    H182148   2.874  -0.041   1.181  0.8406  0.2096 -1.3564
20219TIP3    H282149   2.844   0.094   1.241 -0.3259 -1.2240  1.4967
20220TIP3   OH282150   4.897   1.510  11.627  0.4647 -0.2465 -0.3165
20220TIP3    H182151   4.883   1.554  11.711  0.1527 -1.2428  0.1829
20220TIP3    H282152   4.818   1.457  11.615  0.7167 -0.4693 -1.0036
20221TIP3   OH282153   2.623   2.459   5.388  0.0596  0.0809 -0.6224
20221TIP3    H182154   2.574   2.406   5.450  0.9788  1.7774  1.7112
20221TIP3    H282155   2.714   2.450   5.415  0.4765  0.9616 -1.6523
20222TIP3   OH282156   5.160   3.285  16.748 -0.3207  0.0648 -0.5294
20222TIP3    H182157   5.187   3.376  16.760  0.4730  0.0062 -1.6706
20222TIP3    H282158   5.176   3.243  16.833 -0.5920  0.9557 -0.0313
20223TIP3   OH282159   6.789   6.318  15.790 -0.1816  0.2044 -0.1468
20223TIP3    H182160   6.757   6.368  15.865 -0.4649 -2.0033  1.2843
20223TIP3    H282161   6.884   6.329  15.793 -0.0828 -0.8307  1.3062
20224TIP3   OH282162   0.720   4.189   4.401  0.2698 -0.2753 -0.1276
20224TIP3    H182163   0.652   4.146   4.350 -0.7928  2.2575 -1.0533
20224TIP3    H282164   0.727   4.137   4.480 -2.0520 -1.2121 -0.4392
20225TIP3   OH282165   3.536   0.413   1.655 -0.0579  0.0946 -0.4718
20225TIP3    H182166   3.447   0.399   1.687 -0.9027  1.2709 -2.1636
20225TIP3    H282167   3.547   0.349   1.585 -0.0117  0.7251 -1.0484
20226TIP3   OH282168   0.177   1.532  13.585  0.0482 -0.3187  0.0528
20226TIP3    H182169   0.199   1.578  13.666  1.6822 -0.0839 -0.4852
20226TIP3    H282170   0.095   1.486  13.604  0.6323 -0.6164  1.9746
20227TIP3   OH282171   2.682   0.211   1.856  0.0537 -0.1687 -0.0448
20227TIP3    H182172   2.622   0.214   1.931 -0.7574 -0.5901 -0.6666
20227TIP3    H282173   2.769   0.208   1.896 -0.3703 -0.6155  0.8824
20228TIP3   OH282174   0.234   3.345   5.901 -0.3776  0.0590  0.7302
20228TIP3    H182175   0.190   3.262   5.921 -2.2487 -0.1031 -3.1112
20228TIP3    H282176   0.163   3.403   5.871  1.2111  2.1951  0.8703
20229TIP3   OH282177   5.086   6.246   2.716 -0.4353  0.2114  0.3619
20229TIP3    H182178   5.155   6.274   2.775 -0.7417  0.2292  0.7158
20229TIP3    H282179   5.056   6.327   2.674 -0.1668  0.1886  0.1268
20230TIP3   OH282180   6.124   5.208  11.713  0.3379  0.3104  0.5367
20230TIP3    H182181   6.047   5.193  11.766  0.9395 -0.1134  1.3100
20230TIP3    H282182   6.095   5.191  11.623 -0.4392  0.0788  0.8278
20231TIP3   OH282183   6.397   3.513   2.793 -0.2842 -0.2121 -0.1832
20231TIP3    H182184   6.302   3.501   2.797 -0.4972  0.9541 -1.3449
20231TIP3    H282185   6.413   3.553   2.707  1.3830 -1.4902 -0.5276
20232TIP3   OH282186   0.300   6.094   2.701  0.0704  0.4567 -0.1798
20232TIP3    H182187   0.237   6.104   2.629 -0.2192 -0.6682 -0.1019
20232TIP3    H282188   0.292   6.002   2.727 -0.2715  0.9793  1.7067
20233TIP3   OH282189   5.679   0.712   2.638 -0.8341  0.1180  0.8247
20233TIP3    H182190   5.760   0.683   2.594  0.0092  2.2017  0.8827
20233TIP3    H282191   5.609   0.665   2.592  0.2274  0.2226 -1.0123
20234TIP3   OH282192   0.171   1.808   2.496  0.0599  0.5175 -0.9069
20234TIP3    H182193   0.078   1.823   2.478  0.0388 -0.6361 -1.8954
20234TIP3    H282194   0.214   1.816   2.411  0.3892 -2.1818 -1.0765
20235TIP3   OH282195   1.504   1.169  12.490 -0.0873  0.4878  0.0655
20235TIP3    H182196   1.496   1.264  12.490 -1.3150  0.3985 -0.5410
20235TIP3    H282197   1.415   1.137  12.476  0.5909 -0.7239 -1.7645
20236TIP3   OH282198   2.791   5.823   1.844 -0.3228 -0.2424 -0.3425
20236TIP3    H182199   2.770   5.744   1.893  0.2435  0.2590  0.7481
20236TIP3    H282200   2.800   5.794   1.753  0.6339 -1.5771  0.1546
20237TIP3   OH282201   1.809   0.808   6.202  0.1198 -0.6426  0.0081
20237TIP3    H182202   1.823   0.903   6.192  1.6454 -0.8299  0.0894
20237TIP3    H282203   1.715   0.797   6.193 -0.2584  1.0503  1.2401
20238TIP3   OH282204   5.683   4.147  11.707 -0.2700 -0.4446  0.2462
20238TIP3    H182205   5.670   4.121  11.798  0.2209 -0.6113  0.2688
20238TIP3    H282206   5.777   4.161  11.698 -0.4460  0.7945  0.0877
20239TIP3   OH282207   5.989   3.848  11.185 -0.2863  0.0839 -0.0534
20239TIP3    H182208   6.054   3.880  11.124  1.1724 -0.1741  1.2942
20239TIP3    H282209   6.009   3.892  11.268  1.0425 -3.1835  1.5561
20240LIG     O182210   1.524   5.312  16.985  0.1449 -0.6197  0.6583
20240LIG     O282211   1.489   5.526  17.137 -0.5258 -0.2285  0.4280
20240LIG     O382212   1.271   5.410  16.851  0.2307  0.4130 -0.0230
20240LIG     O482213   1.584   5.719  17.207 -0.4902 -0.7032 -0.1194
20240LIG     O582214   1.453   5.615  16.877 -0.1771 -0.1596  0.7337
20240LIG     O682215   1.472   5.898  16.846  0.1032  0.1678  0.0773
20240LIG     O782216   1.651   6.040  17.037  0.7336  0.0635 -0.5959
20240LIG     O882217   1.733   5.965  17.381 -0.0082  0.1619  0.4449
20240LIG     O982218   1.510   5.994  17.351 -0.0514  0.5625  0.5932
20240LIG      N82219   1.518   4.915  17.296  0.1091  0.2931 -0.4306
20240LIG     C182220   1.538   5.179  17.169 -0.4869 -0.4782 -0.2492
20240LIG     C282221   1.540   5.168  17.323  0.1716 -0.4043  1.4195
20240LIG     C382222   1.593   5.305  17.109 -0.9269  0.0474 -0.0146
20240LIG     C482223   1.454   5.040  17.356 -0.7095 -0.4083 -0.0078
20240LIG     C582224   1.591   5.046  17.106  0.6027 -0.3127  0.7810
20240LIG     C682225   1.401   5.167  17.114 -0.7858 -0.1930 -0.2327
20240LIG     C782226   1.301   5.056  17.311  0.1246 -0.3621 -0.7976
20240LIG     C882227   1.535   4.912  17.155  0.1218 -0.1764 -0.0943
20240LIG     C982228   1.568   5.432  17.204  0.1551  0.4570 -0.4388
20240LIG    C1082229   1.287   5.122  17.180  0.0534  0.2840  0.4833
20240LIG    C1182230   1.497   5.291  17.399 -0.9172  0.0276  0.0555
20240LIG    C1282231   1.395   5.261  17.008 -0.3364  0.7237 -0.2026
20240LIG    C1382232   1.491   5.415  17.337 -0.5742  0.3285  0.1314
20240LIG    C1482233   1.637   4.867  17.369  0.0879 -0.6170  0.3073
20240LIG    C1582234   1.169   5.155  17.118 -0.3090 -0.5541  0.2415
20240LIG    C1682235   1.277   5.300  16.942 -0.5019  0.2569 -0.5001
20240LIG    C1782236   1.160   5.244  17.002 -0.5674 -0.8859 -0.4302
20240LIG    C1882237   1.555   5.639  17.088 -0.8962  0.1396 -0.1677
20240LIG    C1982238   1.470   5.706  16.988  0.1309 -0.0105  0.3229
20240LIG    C2082239   1.548   5.834  16.950  0.4988  0.0575  0.0783
20240LIG    C2182240   1.570   5.922  17.070  0.1816 -0.4896 -0.2422
20240LIG    C2282241   1.638   5.850  17.182 -0.6981 -0.1532  0.1232
20240LIG    C2382242   1.615   5.942  17.313  0.5023  0.2495  0.0054
20240LIG     H182243   1.640   5.134  17.359  1.3408  0.0543 -1.1777
20240LIG     H282244   1.704   5.311  17.096 -0.8398  3.4188  1.4831
20240LIG     H382245   1.468   5.022  17.465  0.3204  1.2891  0.1776
20240LIG     H482246   1.700   5.034  17.124  0.8405 -0.6920 -0.7508
20240LIG     H582247   1.579   5.044  16.996  2.6092 -1.8307  0.5233
20240LIG     H682248   1.255   5.115  17.393 -1.9919 -3.3571  0.3378
20240LIG     H782249   1.259   4.953  17.305 -0.9773  0.1058 -1.4068
20240LIG     H882250   1.439   4.891  17.104  0.7927 -3.4616 -0.2146
20240LIG     H982251   1.594   4.824  17.119 -2.5514 -2.0524 -0.1567
20240LIG    H1082252   1.662   5.488  17.226  1.1033  0.5191 -4.0591
20240LIG    H1182253   1.514   5.284  17.508 -0.1159  0.2581 -0.0455
20240LIG    H1282254   1.465   5.505  17.395 -0.2292 -1.7925  3.9067
20240LIG    H1382255   1.633   4.756  17.375  1.8588 -0.7610 -0.5015
20240LIG    H1482256   1.649   4.911  17.471 -0.9073 -1.4206  0.7861
20240LIG    H1582257   1.725   4.903  17.312 -1.0903  0.0977 -1.1304
20240LIG    H1682258   1.077   5.108  17.150 -0.3158 -1.7956 -1.4890
20240LIG    H1782259   1.062   5.261  16.961 -0.3069 -2.1711 -1.6865
20240LIG    H1882260   1.651   5.609  17.040 -1.0395 -2.5355  1.0346
20240LIG    H1982261   1.365   5.727  17.019 -0.0600 -0.5934  0.0979
20240LIG    H2082262   1.649   5.816  16.909  0.2899  0.9666 -0.8970
20240LIG    H2182263   1.179   5.403  16.827  0.0392  0.5374  0.6448
20240LIG    H2282264   1.472   5.967  17.098  0.4253 -0.3149  0.3457
20240LIG    H2382265   1.746   5.832  17.162 -0.5365  2.6291 -2.1943
20240LIG    H2482266   1.397   5.541  16.904  2.2563 -1.5251  2.4794
20240LIG    H2582267   1.499   5.859  16.762 -1.9736 -1.9912  0.3125
20240LIG    H2682268   1.603   6.088  16.969 -1.2667  1.2033  1.4761
20240LIG    H2782269   1.705   6.015  17.458 -1.7605 -0.2435  0.1060
   6.82887   6.82887  17.22585
